INSANE! Membrane UpperLeaflet>loPI:POPI:DPPI:PYPI:ERGO=180.0:5.0:3.0:2.0:10.0 LowerLeaflet>PSPI:POPI:POPS:YOPS:POPE:YOPE:POPC:YOPC:ERGO=6.0:14.0:21.0:9.0:9.0:21.0:12.0:48.0:60.0
49261
    1loPI    C1    1  14.441   1.672  10.005  0.1123 -0.1916 -0.2588
    1loPI    C2    2  14.304   1.369  10.227 -0.0440 -0.0302 -0.1319
    1loPI    C3    3  14.245   1.746  10.346  0.1989  0.0499 -0.2597
    1loPI   PO4    4  14.632   1.535   9.900 -0.0140  0.1518  0.0704
    1loPI   GL1    5  14.809   1.683   9.579  0.2223  0.2463 -0.0815
    1loPI   GL2    6  15.163   1.538   9.648 -0.0099  0.1248  0.0609
    1loPI   C1A    7  14.909   1.678   9.107  0.2370  0.0064 -0.0827
    1loPI   C2A    8  15.011   1.667   8.625 -0.0612  0.2871 -0.1555
    1loPI   C3A    9  15.041   1.671   8.144  0.2810 -0.0896  0.1079
    1loPI   C4A   10  15.094   1.736   7.707 -0.1525 -0.1149  0.0027
    1loPI   C5A   11  15.477   2.047   7.689 -0.1041  0.1836  0.1845
    1loPI   C6A   12  15.803   2.190   7.970 -0.3341 -0.1016 -0.1914
    1loPI   C1B   13  15.340   1.493   9.308 -0.2905  0.2117  0.3369
    1loPI   C2B   14  15.425   1.680   9.018  0.0284  0.2899 -0.0667
    1loPI   C3B   15  15.521   1.676   8.589 -0.2016 -0.1142  0.0672
    1loPI   C4B   16  15.551   1.833   8.245 -0.0388  0.2845 -0.1729
    2loPI    C1   17  12.928   2.989  10.152 -0.0534  0.1256 -0.0952
    2loPI    C2   18  12.786   3.021  10.524 -0.0087  0.0581 -0.0720
    2loPI    C3   19  13.180   3.000  10.463 -0.0261 -0.2158 -0.1014
    2loPI   PO4   20  12.762   3.153   9.966 -0.2011  0.0489 -0.0771
    2loPI   GL1   21  12.386   3.146   9.675  0.2993  0.0604 -0.1215
    2loPI   GL2   22  12.231   2.890   9.712 -0.5294 -0.1628 -0.1645
    2loPI   C1A   23  12.487   3.144   9.195  0.2147 -0.1814 -0.1532
    2loPI   C2A   24  12.500   3.065   8.713  0.0002  0.0658 -0.0262
    2loPI   C3A   25  12.515   3.025   8.328  0.0435  0.1754 -0.0004
    2loPI   C4A   26  12.529   2.669   8.056 -0.1850 -0.0129  0.4450
    2loPI   C5A   27  12.587   2.900   7.619 -0.0992 -0.0326 -0.0771
    2loPI   C6A   28  12.960   3.109   7.448  0.0245  0.0860  0.1043
    2loPI   C1B   29  12.051   2.878   9.331 -0.1832  0.2792 -0.0675
    2loPI   C2B   30  12.004   2.759   8.880  0.0321 -0.1766  0.0771
    2loPI   C3B   31  12.084   2.742   8.418 -0.3234  0.1214 -0.1492
    2loPI   C4B   32  11.924   2.678   8.047  0.0380  0.1282 -0.0950
    3loPI    C1   33  16.087  17.565  10.123 -0.1491  0.1431  0.0086
    3loPI    C2   34  15.905  17.655  10.468 -0.1398 -0.0994  0.0787
    3loPI    C3   35  16.304  17.673  10.441 -0.1608  0.2969 -0.0346
    3loPI   PO4   36  16.044  17.672   9.977  0.0103 -0.2131  0.1456
    3loPI   GL1   37  16.218  17.689   9.623 -0.0565  0.0308  0.0248
    3loPI   GL2   38  16.500  17.508   9.680 -0.0965 -0.0039  0.4470
    3loPI   C1A   39  16.140  17.597   9.186 -0.0118 -0.1127  0.0825
    3loPI   C2A   40  15.943  17.661   8.862 -0.0741  0.0255 -0.0127
    3loPI   C3A   41  15.928  17.806   8.432 -0.0618  0.1415 -0.0529
    3loPI   C4A   42  16.152  18.113   8.146  0.2817  0.2395 -0.0981
    3loPI   C5A   43  16.097  18.228   7.815 -0.1804  0.0817  0.1023
    3loPI   C6A   44  16.054  18.061   7.370  0.0465 -0.0505 -0.2459
    3loPI   C1B   45  16.627  17.651   9.259 -0.1308 -0.2174 -0.0316
    3loPI   C2B   46  16.913  17.692   8.739  0.3681 -0.0892 -0.0369
    3loPI   C3B   47  16.741  17.508   8.428 -0.2363 -0.2956 -0.2651
    3loPI   C4B   48  16.558  17.001   8.420 -0.0227 -0.0994  0.0635
    4loPI    C1   49  10.114   1.471  10.338 -0.1035  0.0629 -0.0784
    4loPI    C2   50  10.171   1.723  10.033 -0.0474  0.1511  0.0044
    4loPI    C3   51  10.276   1.831  10.404  0.2432 -0.1025  0.0003
    4loPI   PO4   52   9.830   1.449  10.281 -0.3707  0.0001  0.2511
    4loPI   GL1   53   9.754   1.494   9.838 -0.0627 -0.2205 -0.0180
    4loPI   GL2   54   9.528   1.612   9.890 -0.2125 -0.1243 -0.0546
    4loPI   C1A   55   9.898   1.419   9.379 -0.2947  0.0213  0.2508
    4loPI   C2A   56   9.779   1.478   9.016  0.0821 -0.1135 -0.1303
    4loPI   C3A   57   9.856   1.483   8.638  0.1563 -0.1027 -0.2538
    4loPI   C4A   58   9.752   1.554   8.195 -0.0736 -0.1943 -0.1243
    4loPI   C5A   59  10.043   1.660   7.949 -0.2401 -0.0558 -0.0548
    4loPI   C6A   60  10.111   1.973   7.654 -0.0289 -0.0830  0.1088
    4loPI   C1B   61   9.431   1.456   9.433 -0.1191 -0.1130 -0.0951
    4loPI   C2B   62   9.324   1.669   9.061 -0.0215  0.0234  0.0524
    4loPI   C3B   63   9.399   1.716   8.606 -0.2642  0.0819 -0.1030
    4loPI   C4B   64   9.287   1.741   8.181 -0.2765 -0.1466 -0.2430
    5loPI    C1   65   5.759   6.719  11.100  0.0900  0.2510 -0.1193
    5loPI    C2   66   5.420   6.689  11.309  0.1237 -0.1151 -0.1109
    5loPI    C3   67   5.760   6.789  11.494  0.0933 -0.1245 -0.0496
    5loPI   PO4   68   5.687   6.804  10.899  0.0142  0.1771  0.1610
    5loPI   GL1   69   5.633   6.737  10.471  0.2120 -0.1573  0.0024
    5loPI   GL2   70   5.301   6.856  10.425  0.0562  0.2562  0.4159
    5loPI   C1A   71   5.786   6.819  10.102 -0.0761  0.3376  0.0214
    5loPI   C2A   72   5.745   7.027   9.672  0.3640 -0.3047  0.4685
    5loPI   C3A   73   5.677   7.134   9.308 -0.0727 -0.2351  0.1219
    5loPI   C4A   74   5.764   7.020   8.816 -0.4347  0.1741 -0.4576
    5loPI   C5A   75   5.653   6.826   8.349  0.0790 -0.3761 -0.0116
    5loPI   C6A   76   5.687   6.470   8.154  0.3996  0.0436 -0.0348
    5loPI   C1B   77   5.320   6.702  10.060 -0.0016  0.1074 -0.1647
    5loPI   C2B   78   5.312   6.819   9.585  0.1002  0.2607 -0.2673
    5loPI   C3B   79   5.211   6.885   9.223 -0.0003 -0.0946 -0.1421
    5loPI   C4B   80   5.326   6.753   8.835  0.0559  0.0361  0.0429
    6loPI    C1   81   4.733   5.568  10.884 -0.0768 -0.0882 -0.0815
    6loPI    C2   82   4.684   5.193  11.013 -0.0329  0.0052  0.2131
    6loPI    C3   83   4.724   5.491  11.276  0.1363  0.1909 -0.0190
    6loPI   PO4   84   4.768   5.592  10.600 -0.2044 -0.1488 -0.3503
    6loPI   GL1   85   4.563   5.366  10.263 -0.1334  0.1751  0.0762
    6loPI   GL2   86   4.300   5.510  10.216  0.2909  0.1065  0.0882
    6loPI   C1A   87   4.726   5.476   9.806  0.4404  0.3832 -0.0644
    6loPI   C2A   88   4.690   5.551   9.438  0.3855  0.2090  0.2274
    6loPI   C3A   89   4.795   5.599   9.069 -0.0516 -0.1123 -0.1052
    6loPI   C4A   90   4.798   5.576   8.535  0.0774 -0.1801  0.2027
    6loPI   C5A   91   4.727   5.758   8.102 -0.1814  0.1788 -0.3110
    6loPI   C6A   92   4.456   5.942   7.920  0.0222  0.3446  0.0450
    6loPI   C1B   93   4.291   5.743   9.797 -0.2763  0.0299 -0.1179
    6loPI   C2B   94   4.336   5.841   9.327 -0.1454  0.0157  0.0636
    6loPI   C3B   95   4.301   5.839   8.854 -0.3185 -0.0628  0.0459
    6loPI   C4B   96   4.337   5.840   8.371  0.4000  0.0497 -0.0219
    7loPI    C1   97   3.274   8.670  11.088 -0.0351  0.0758  0.2612
    7loPI    C2   98   3.552   8.813  10.837 -0.1654 -0.1244 -0.0016
    7loPI    C3   99   3.631   8.786  11.229  0.1040  0.0267 -0.0431
    7loPI   PO4  100   3.041   8.752  10.930  0.0282 -0.1577  0.0473
    7loPI   GL1  101   3.121   8.791  10.537 -0.0034 -0.1381 -0.4179
    7loPI   GL2  102   3.096   9.181  10.536  0.2176  0.2666 -0.0144
    7loPI   C1A  103   3.005   8.681  10.077  0.1645  0.2931  0.1368
    7loPI   C2A  104   2.999   8.678   9.701 -0.0012 -0.0820 -0.0918
    7loPI   C3A  105   3.064   8.610   9.239 -0.1303  0.4189 -0.1793
    7loPI   C4A  106   2.934   8.630   8.805  0.0904 -0.1303 -0.2359
    7loPI   C5A  107   3.003   8.620   8.348  0.3212  0.2219 -0.3333
    7loPI   C6A  108   3.125   8.663   7.911  0.0983  0.0264 -0.0856
    7loPI   C1B  109   3.063   9.188  10.051 -0.2477  0.1281  0.0093
    7loPI   C2B  110   3.056   9.191   9.584  0.0376  0.0089  0.0289
    7loPI   C3B  111   3.115   9.072   9.040  0.2607 -0.3254 -0.1614
    7loPI   C4B  112   2.963   9.256   8.651 -0.2416  0.2794  0.0023
    8loPI    C1  113   1.271  11.673  11.064  0.0151 -0.2205  0.0155
    8loPI    C2  114   1.413  11.368  11.280  0.0267 -0.1653  0.0863
    8loPI    C3  115   1.203  11.657  11.457  0.1637 -0.0421  0.0499
    8loPI   PO4  116   1.152  11.616  10.873  0.1058  0.1490  0.3236
    8loPI   GL1  117   1.002  11.796  10.460  0.3146 -0.2283  0.0555
    8loPI   GL2  118   1.018  11.488  10.352 -0.0097  0.1503 -0.3122
    8loPI   C1A  119   1.200  12.051  10.051 -0.1908 -0.3482  0.2973
    8loPI   C2A  120   1.287  11.954   9.615  0.1948 -0.0597  0.1312
    8loPI   C3A  121   1.204  11.900   9.244 -0.0075  0.0418  0.0726
    8loPI   C4A  122   1.397  11.840   8.891 -0.1721 -0.1056  0.0246
    8loPI   C5A  123   1.435  11.795   8.419  0.1637 -0.1709  0.0411
    8loPI   C6A  124   1.503  11.354   8.215  0.0223 -0.3512 -0.2039
    8loPI   C1B  125   1.272  11.527   9.941  0.0873  0.0474 -0.1692
    8loPI   C2B  126   1.304  11.433   9.568  0.0241 -0.0148 -0.2777
    8loPI   C3B  127   1.243  11.364   9.175  0.2522 -0.2635  0.0396
    8loPI   C4B  128   1.388  11.373   8.769  0.1125 -0.1289  0.0762
    9loPI    C1  129   8.647   1.843  10.322 -0.3816 -0.2395 -0.1957
    9loPI    C2  130   8.590   1.864  10.717  0.0149  0.0751 -0.1487
    9loPI    C3  131   8.852   1.603  10.567 -0.2026 -0.1083 -0.2151
    9loPI   PO4  132   8.495   1.812  10.223 -0.1385  0.1382 -0.0478
    9loPI   GL1  133   8.590   1.747   9.823 -0.2005  0.0618 -0.1009
    9loPI   GL2  134   8.836   1.653   9.841  0.2218 -0.0349 -0.0709
    9loPI   C1A  135   8.828   1.802   9.370 -0.2504 -0.2073 -0.0270
    9loPI   C2A  136   8.849   1.917   8.942 -0.2218 -0.0036 -0.1359
    9loPI   C3A  137   8.848   2.012   8.516 -0.1301 -0.0704 -0.0180
    9loPI   C4A  138   8.912   2.299   8.118 -0.1389 -0.1240  0.0414
    9loPI   C5A  139   9.025   2.631   8.157 -0.0571  0.0879  0.0646
    9loPI   C6A  140   9.303   2.738   7.897 -0.3349 -0.0026 -0.2284
    9loPI   C1B  141   9.198   1.944   9.676 -0.1371 -0.3386 -0.3651
    9loPI   C2B  142   9.295   2.118   9.251  0.4954  0.2063 -0.0471
    9loPI   C3B  143   9.310   2.236   8.824  0.5084 -0.0984  0.1866
    9loPI   C4B  144   9.404   2.271   8.374  0.0043 -0.1594  0.3467
   10loPI    C1  145   6.822  17.494  10.252  0.0500 -0.1806  0.0110
   10loPI    C2  146   6.822  17.118  10.387  0.0356 -0.1032  0.2307
   10loPI    C3  147   6.867  17.422  10.643  0.0994  0.0429  0.0480
   10loPI   PO4  148   6.637  17.570  10.154 -0.1194  0.0642  0.0335
   10loPI   GL1  149   6.457  17.583   9.686 -0.2943  0.0078 -0.0592
   10loPI   GL2  150   6.341  17.871   9.761 -0.1473  0.1477 -0.2255
   10loPI   C1A  151   6.679  17.552   9.322  0.2229 -0.1606 -0.0146
   10loPI   C2A  152   6.631  17.517   8.885  0.1172  0.2686  0.2737
   10loPI   C3A  153   6.614  17.586   8.443 -0.4692  0.0755 -0.2243
   10loPI   C4A  154   6.494  17.615   8.020 -0.1613 -0.0617 -0.5176
   10loPI   C5A  155   6.095  17.472   7.757  0.1013  0.0883  0.1758
   10loPI   C6A  156   5.828  17.379   7.439 -0.0444  0.1007  0.4163
   10loPI   C1B  157   6.385  17.993   9.508  0.0940 -0.0207 -0.0011
   10loPI   C2B  158   6.246  17.706   9.153 -0.0638  0.1959  0.0014
   10loPI   C3B  159   6.109  17.731   8.779 -0.1735 -0.2261  0.2009
   10loPI   C4B  160   6.054  17.599   8.346  0.0177  0.3713 -0.0340
   11loPI    C1  161   8.529  16.673  10.038  0.1483  0.0093 -0.1795
   11loPI    C2  162   8.132  16.632  10.049  0.1536  0.0446  0.3685
   11loPI    C3  163   8.305  16.951  10.218  0.4190  0.0112  0.1648
   11loPI   PO4  164   8.577  16.679   9.872 -0.0083 -0.1002 -0.0559
   11loPI   GL1  165   8.220  16.560   9.455  0.1686  0.2182 -0.1011
   11loPI   GL2  166   8.136  16.789   9.221 -0.1864 -0.1803  0.2388
   11loPI   C1A  167   8.245  16.237   9.131  0.0538  0.2033  0.0841
   11loPI   C2A  168   8.183  16.186   8.779 -0.1143  0.2856  0.5425
   11loPI   C3A  169   8.247  16.175   8.367  0.5272  0.1359  0.0684
   11loPI   C4A  170   8.265  16.103   7.947 -0.0423  0.1325 -0.0153
   11loPI   C5A  171   8.538  16.194   7.600  0.1257  0.0084 -0.0781
   11loPI   C6A  172   8.536  15.974   7.225  0.1910  0.0913 -0.0058
   11loPI   C1B  173   8.135  16.714   8.685  0.0811 -0.1220  0.0877
   11loPI   C2B  174   8.175  16.626   8.303  0.0313 -0.2342  0.3558
   11loPI   C3B  175   8.034  16.529   7.901  0.1095 -0.0343 -0.0762
   11loPI   C4B  176   8.063  16.313   7.531  0.1740  0.0180 -0.2418
   12loPI    C1  177   8.647   0.651  10.402  0.1074  0.3684 -0.1866
   12loPI    C2  178   8.293   0.760  10.555  0.1078  0.3735 -0.1891
   12loPI    C3  179   8.605   0.699  10.797  0.0528  0.1714 -0.1675
   12loPI   PO4  180   8.605   0.849  10.129  0.1924 -0.1322 -0.3230
   12loPI   GL1  181   8.419   1.047   9.766  0.0758  0.1415  0.4349
   12loPI   GL2  182   8.268   0.767   9.698 -0.3015 -0.0349  0.1895
   12loPI   C1A  183   8.305   1.088   9.297 -0.2468 -0.2968  0.1342
   12loPI   C2A  184   8.296   1.235   8.864 -0.1975 -0.1807  0.3292
   12loPI   C3A  185   8.185   1.215   8.375  0.0680 -0.1031 -0.0808
   12loPI   C4A  186   8.208   0.961   8.093 -0.1641  0.0643  0.0890
   12loPI   C5A  187   8.172   1.188   7.629  0.3581  0.0637 -0.5843
   12loPI   C6A  188   8.134   1.398   7.301 -0.3932  0.0381  0.2695
   12loPI   C1B  189   7.897   0.761   9.328  0.0944 -0.1852 -0.4284
   12loPI   C2B  190   7.890   0.914   8.982 -0.1984 -0.1283 -0.1350
   12loPI   C3B  191   7.570   1.149   8.789 -0.1054 -0.1605 -0.1950
   12loPI   C4B  192   7.180   1.260   8.852  0.3145  0.1715 -0.2052
   13loPI    C1  193  14.462  17.769  10.146  0.1797 -0.0382  0.1524
   13loPI    C2  194  14.236  17.957  10.417 -0.1551  0.0650 -0.1883
   13loPI    C3  195  14.262  17.558  10.421 -0.0933  0.0697  0.0409
   13loPI   PO4  196  14.372  17.895   9.927 -0.1272  0.1420  0.2165
   13loPI   GL1  197  14.660  17.889   9.608  0.0494 -0.0115 -0.2666
   13loPI   GL2  198  14.832  18.114   9.488 -0.0932  0.1498  0.0209
   13loPI   C1A  199  14.500  17.845   9.210 -0.1199 -0.4338  0.2823
   13loPI   C2A  200  14.408  17.820   8.802  0.0377  0.0666 -0.2585
   13loPI   C3A  201  14.060  17.727   8.597 -0.0943 -0.3161 -0.0488
   13loPI   C4A  202  13.915  17.684   8.264  0.4857 -0.1388  0.0690
   13loPI   C5A  203  13.526  17.744   8.119  0.2725  0.2688  0.0878
   13loPI   C6A  204  13.277  17.953   7.901 -0.2263  0.2194  0.2131
   13loPI   C1B  205  14.982  18.010   9.035  0.0141 -0.0243 -0.0704
   13loPI   C2B  206  15.146  18.073   8.722 -0.0751  0.0055 -0.1783
   13loPI   C3B  207  15.471  18.031   8.266  0.0201  0.2358 -0.1545
   13loPI   C4B  208  15.671  17.945   7.899 -0.1107  0.0227 -0.0423
   14loPI    C1  209  14.955   2.995  10.368 -0.0084 -0.1676 -0.0056
   14loPI    C2  210  14.657   3.261  10.345  0.1033 -0.0387  0.0266
   14loPI    C3  211  14.710   3.048  10.679 -0.2354 -0.3988 -0.1414
   14loPI   PO4  212  15.022   2.936  10.006  0.3490 -0.0701  0.1482
   14loPI   GL1  213  15.015   3.168   9.670  0.1252  0.2657  0.1884
   14loPI   GL2  214  14.638   3.115   9.779 -0.2274  0.4427  0.1810
   14loPI   C1A  215  14.930   3.009   9.205 -0.0381  0.0120 -0.0698
   14loPI   C2A  216  14.921   2.928   8.736 -0.2744  0.1193 -0.1307
   14loPI   C3A  217  14.845   2.837   8.315 -0.0109  0.1182 -0.0769
   14loPI   C4A  218  14.836   2.585   7.960 -0.0216  0.1524  0.0255
   14loPI   C5A  219  14.836   2.154   7.650 -0.0199 -0.0208  0.1563
   14loPI   C6A  220  14.620   1.900   7.378  0.0724  0.2694 -0.0655
   14loPI   C1B  221  14.502   3.195   9.426 -0.1696  0.0653  0.2154
   14loPI   C2B  222  14.145   3.093   9.202  0.3603 -0.2736 -0.3738
   14loPI   C3B  223  13.939   3.191   8.822  0.1533  0.2553  0.1887
   14loPI   C4B  224  13.885   3.103   8.324  0.0730  0.3526  0.2013
   15loPI    C1  225   1.617  15.049  10.654  0.0701  0.2773 -0.0385
   15loPI    C2  226   1.906  14.802  10.779 -0.3022 -0.1825 -0.0563
   15loPI    C3  227   1.821  15.133  10.988  0.1149 -0.1326  0.0429
   15loPI   PO4  228   1.582  14.931  10.404 -0.1456  0.2497 -0.1269
   15loPI   GL1  229   1.559  15.102  10.020 -0.4040  0.0095 -0.0216
   15loPI   GL2  230   1.886  15.042   9.964  0.2193  0.0682 -0.0338
   15loPI   C1A  231   1.529  15.126   9.579  0.3664  0.3314  0.0473
   15loPI   C2A  232   1.433  15.006   9.151 -0.3679  0.0306 -0.0282
   15loPI   C3A  233   1.453  14.909   8.766  0.0371  0.1750 -0.1495
   15loPI   C4A  234   1.310  14.972   8.404 -0.0464  0.0409 -0.0992
   15loPI   C5A  235   1.183  14.969   7.995  0.3650 -0.2356 -0.0739
   15loPI   C6A  236   1.041  14.849   7.559  0.1028 -0.0172  0.2982
   15loPI   C1B  237   1.967  14.821   9.517  0.2408  0.2397 -0.2867
   15loPI   C2B  238   1.852  14.716   9.120  0.2376  0.0687  0.0868
   15loPI   C3B  239   1.824  14.631   8.594 -0.2719 -0.0347 -0.2476
   15loPI   C4B  240   1.844  14.548   8.176 -0.0186  0.2348 -0.4192
   16loPI    C1  241  14.077   8.975  10.330  0.0619  0.1451 -0.2619
   16loPI    C2  242  14.195   9.311  10.513 -0.0377  0.1428 -0.1920
   16loPI    C3  243  14.325   8.956  10.643  0.0278  0.1510 -0.2345
   16loPI   PO4  244  14.091   9.005  10.089 -0.2135  0.1382 -0.1350
   16loPI   GL1  245  13.853   9.259   9.822 -0.1512 -0.2404 -0.2375
   16loPI   GL2  246  14.142   9.603   9.682  0.1021  0.1427 -0.0942
   16loPI   C1A  247  13.772   9.121   9.421  0.1224 -0.3353  0.4545
   16loPI   C2A  248  13.763   9.146   9.014  0.0575 -0.1643 -0.1896
   16loPI   C3A  249  13.964   9.133   8.585 -0.2292 -0.1275  0.2209
   16loPI   C4A  250  14.138   9.122   8.197 -0.0771 -0.4162  0.0287
   16loPI   C5A  251  14.264   9.020   7.698 -0.2986  0.2168 -0.1111
   16loPI   C6A  252  14.358   8.918   7.267 -0.0816  0.2033 -0.0394
   16loPI   C1B  253  14.222   9.392   9.237  0.2229  0.0874  0.1654
   16loPI   C2B  254  14.445   9.479   8.852  0.1722 -0.1087  0.1943
   16loPI   C3B  255  14.481   9.463   8.401  0.1309 -0.0562  0.1594
   16loPI   C4B  256  14.448   9.452   7.992 -0.3604 -0.2597 -0.1068
   17loPI    C1  257  13.349   5.839  10.488  0.0061  0.1803  0.0464
   17loPI    C2  258  13.552   5.531  10.642 -0.0868 -0.0895 -0.3561
   17loPI    C3  259  13.181   5.610  10.770  0.1436  0.2122  0.1554
   17loPI   PO4  260  13.336   5.781  10.129  0.1065  0.0663  0.0243
   17loPI   GL1  261  13.014   5.798   9.822  0.0085  0.0716  0.1660
   17loPI   GL2  262  12.835   5.986   9.974  0.0348  0.0124  0.0836
   17loPI   C1A  263  12.966   5.886   9.415  0.3046  0.0753  0.0661
   17loPI   C2A  264  12.983   5.850   8.950  0.1159 -0.0872  0.2583
   17loPI   C3A  265  12.910   5.975   8.614 -0.1100  0.0680  0.0832
   17loPI   C4A  266  12.970   5.960   8.172  0.1179 -0.4293 -0.2850
   17loPI   C5A  267  13.264   5.827   7.869 -0.1848  0.3602 -0.2663
   17loPI   C6A  268  13.507   5.539   7.743  0.3043 -0.0223 -0.2584
   17loPI   C1B  269  12.543   6.029   9.654  0.2548  0.0992 -0.0566
   17loPI   C2B  270  12.596   6.095   9.221  0.1153  0.2481  0.0615
   17loPI   C3B  271  12.532   6.138   8.862  0.0373  0.3019 -0.0223
   17loPI   C4B  272  12.436   6.134   8.444  0.2287  0.3111 -0.0115
   18loPI    C1  273   8.040   5.520  10.512  0.2298 -0.0004 -0.0070
   18loPI    C2  274   8.228   5.537  10.865 -0.3001  0.0591  0.2816
   18loPI    C3  275   7.871   5.713  10.818 -0.0458  0.4300 -0.4160
   18loPI   PO4  276   8.203   5.597  10.364  0.1186 -0.0138 -0.0780
   18loPI   GL1  277   8.219   5.829  10.045  0.0673 -0.0412  0.1526
   18loPI   GL2  278   7.999   6.006  10.056 -0.3479  0.2381 -0.0080
   18loPI   C1A  279   8.339   5.828   9.613  0.1258 -0.1936  0.0207
   18loPI   C2A  280   8.324   5.867   9.164 -0.2971  0.0381  0.1039
   18loPI   C3A  281   8.362   5.795   8.723  0.1276 -0.2692  0.2361
   18loPI   C4A  282   8.185   5.762   8.266  0.0642 -0.0166  0.0621
   18loPI   C5A  283   7.814   5.634   8.092  0.1354  0.1014  0.0128
   18loPI   C6A  284   7.315   5.494   8.050 -0.0444 -0.5278 -0.2057
   18loPI   C1B  285   7.874   6.090   9.654  0.3249 -0.3248  0.2543
   18loPI   C2B  286   7.930   6.147   9.190 -0.1636 -0.0244  0.1042
   18loPI   C3B  287   7.945   6.136   8.753 -0.1516  0.1477 -0.0004
   18loPI   C4B  288   7.807   6.192   8.327 -0.2967 -0.2038  0.0025
   19loPI    C1  289  11.432  15.237  10.542  0.1620 -0.0354 -0.1659
   19loPI    C2  290  11.476  15.590  10.726 -0.0648  0.0260 -0.2260
   19loPI    C3  291  11.270  15.296  10.903  0.3338 -0.1639 -0.0670
   19loPI   PO4  292  11.369  15.377  10.276  0.4186 -0.1931  0.1485
   19loPI   GL1  293  11.392  15.292   9.820 -0.3741 -0.2301 -0.4500
   19loPI   GL2  294  11.399  14.966   9.658 -0.1110  0.2598  0.0113
   19loPI   C1A  295  11.235  15.430   9.402  0.0709  0.0225 -0.2248
   19loPI   C2A  296  11.306  15.565   8.978  0.0031 -0.1885 -0.0521
   19loPI   C3A  297  11.404  15.513   8.555 -0.2158 -0.0975  0.0484
   19loPI   C4A  298  11.373  15.610   8.170  0.0367  0.1297 -0.2040
   19loPI   C5A  299  11.432  15.786   7.768 -0.2885  0.2643  0.1630
   19loPI   C6A  300  11.733  15.987   7.575  0.0166  0.1573 -0.0248
   19loPI   C1B  301  11.345  14.892   9.242  0.3949  0.0088  0.1640
   19loPI   C2B  302  11.321  15.074   8.969  0.2843 -0.3554 -0.1253
   19loPI   C3B  303  11.608  15.081   8.468  0.2395 -0.3140  0.0526
   19loPI   C4B  304  11.693  15.184   8.084 -0.0051  0.2687  0.0010
   20loPI    C1  305   5.684   2.791  10.482  0.2008  0.0321 -0.2062
   20loPI    C2  306   5.993   2.720  10.726  0.0740  0.0375 -0.0427
   20loPI    C3  307   5.628   2.585  10.820  0.0360 -0.0160 -0.2620
   20loPI   PO4  308   5.860   2.821  10.209 -0.0117 -0.0952 -0.3080
   20loPI   GL1  309   6.098   2.736   9.844  0.0463  0.0195 -0.0166
   20loPI   GL2  310   6.067   2.541   9.580 -0.0529  0.2877  0.0237
   20loPI   C1A  311   6.022   3.066   9.521  0.0966  0.0574 -0.0286
   20loPI   C2A  312   6.113   3.204   9.144 -0.0513 -0.0177 -0.1282
   20loPI   C3A  313   6.117   2.998   8.831 -0.2215 -0.0951  0.2313
   20loPI   C4A  314   6.110   3.140   8.383 -0.0037 -0.2117 -0.1200
   20loPI   C5A  315   5.799   3.157   8.111 -0.1264 -0.3247 -0.1657
   20loPI   C6A  316   5.633   2.978   7.822 -0.0828  0.0954 -0.0305
   20loPI   C1B  317   5.779   2.681   9.266  0.0997  0.1451 -0.1450
   20loPI   C2B  318   5.617   2.840   8.954 -0.3767  0.1300  0.1538
   20loPI   C3B  319   5.564   3.148   8.643 -0.3086 -0.0739  0.0015
   20loPI   C4B  320   5.576   3.536   8.470  0.0068  0.2176  0.0653
   21loPI    C1  321   0.741  16.143  10.534 -0.3641 -0.2957 -0.3628
   21loPI    C2  322   0.756  15.826  10.778  0.2349 -0.1383 -0.1780
   21loPI    C3  323   0.541  16.148  10.880  0.2850 -0.1685  0.0275
   21loPI   PO4  324   0.966  15.938  10.360  0.2010  0.0341  0.0369
   21loPI   GL1  325   0.959  15.730  10.050  0.0573 -0.1609 -0.0677
   21loPI   GL2  326   0.548  15.791  10.097 -0.3363  0.3577 -0.0403
   21loPI   C1A  327   1.172  15.885   9.649  0.0247  0.1511 -0.0223
   21loPI   C2A  328   1.032  15.785   9.241  0.2960 -0.2089  0.0786
   21loPI   C3A  329   0.953  15.683   8.852 -0.2252 -0.0150  0.1092
   21loPI   C4A  330   0.953  15.735   8.492 -0.1079 -0.3706 -0.3698
   21loPI   C5A  331   1.169  15.939   8.196  0.0329 -0.1358  0.1175
   21loPI   C6A  332   1.504  15.883   7.898  0.0917 -0.1872  0.0359
   21loPI   C1B  333   0.668  15.735   9.644  0.1290 -0.1628  0.0188
   21loPI   C2B  334   0.579  15.653   9.205 -0.0961 -0.2055  0.1819
   21loPI   C3B  335   0.354  15.585   8.789  0.1139  0.0935  0.0936
   21loPI   C4B  336   0.421  15.541   8.309 -0.3401  0.0059 -0.1135
   22loPI    C1  337  16.302   0.202  10.347 -0.4662  0.2264  0.0420
   22loPI    C2  338  16.411  -0.031  10.653  0.2341  0.0531 -0.3189
   22loPI    C3  339  16.462   0.366  10.675  0.0547  0.0672 -0.1232
   22loPI   PO4  340  16.314   0.064  10.162 -0.3273 -0.0019  0.2874
   22loPI   GL1  341  16.227   0.053   9.695  0.1782 -0.0499  0.1614
   22loPI   GL2  342  16.487   0.182   9.701 -0.0609  0.2523  0.2180
   22loPI   C1A  343  16.250  -0.039   9.225 -0.0993  0.3690  0.0566
   22loPI   C2A  344  16.426   0.024   8.856  0.1896  0.1735 -0.2502
   22loPI   C3A  345  16.334  -0.053   8.432 -0.0406 -0.0707 -0.1530
   22loPI   C4A  346  16.400   0.044   8.032  0.2477 -0.2344  0.2240
   22loPI   C5A  347  16.189   0.276   7.693  0.0774 -0.1895  0.1796
   22loPI   C6A  348  15.927   0.477   7.465 -0.1425 -0.0570 -0.0294
   22loPI   C1B  349  16.732   0.196   9.279 -0.3003  0.0253 -0.0697
   22loPI   C2B  350  16.999   0.039   9.025 -0.1283  0.0726  0.1506
   22loPI   C3B  351  17.299  -0.088   8.773  0.0472  0.3509  0.2955
   22loPI   C4B  352  17.510  -0.056   8.318  0.0990 -0.0410  0.0523
   23loPI    C1  353   7.205   8.058  10.658  0.0676  0.1894  0.1211
   23loPI    C2  354   6.827   8.165  10.736 -0.0343 -0.0237 -0.0681
   23loPI    C3  355   7.121   8.267  10.988 -0.2542 -0.0805  0.2157
   23loPI   PO4  356   7.213   8.106  10.434 -0.1723  0.2449  0.0628
   23loPI   GL1  357   7.357   8.479  10.091 -0.0583  0.4543 -0.3761
   23loPI   GL2  358   7.180   8.207   9.969  0.0247 -0.1017  0.0366
   23loPI   C1A  359   7.484   8.458   9.679 -0.4701 -0.0661 -0.2327
   23loPI   C2A  360   7.466   8.636   9.357 -0.0457 -0.2159  0.0603
   23loPI   C3A  361   7.458   8.628   9.045  0.2265  0.0567 -0.0406
   23loPI   C4A  362   7.594   8.605   8.586 -0.1832 -0.1337 -0.2342
   23loPI   C5A  363   7.371   8.560   8.297  0.2182  0.0547  0.0895
   23loPI   C6A  364   7.293   8.487   7.831 -0.1584  0.0653 -0.0977
   23loPI   C1B  365   7.039   8.184   9.554 -0.0695 -0.1076  0.0807
   23loPI   C2B  366   7.054   8.319   9.087 -0.1222  0.0160  0.0070
   23loPI   C3B  367   7.169   8.272   8.641  0.2252  0.2843  0.0316
   23loPI   C4B  368   7.135   8.040   8.263 -0.1743 -0.2854 -0.3145
   24loPI    C1  369   8.816   4.870  10.661  0.2112 -0.0005  0.0679
   24loPI    C2  370   9.106   4.808  10.930  0.1744  0.3332  0.1899
   24loPI    C3  371   8.765   4.601  10.952  0.2238  0.2649  0.3207
   24loPI   PO4  372   8.959   4.934  10.416 -0.1176  0.1133  0.0963
   24loPI   GL1  373   8.964   4.725  10.054  0.2762 -0.0420  0.1361
   24loPI   GL2  374   9.143   4.466  10.158  0.0589 -0.0219  0.0687
   24loPI   C1A  375   8.901   4.946   9.643  0.1277  0.3745 -0.2993
   24loPI   C2A  376   8.759   5.025   9.299 -0.0723  0.0123  0.1850
   24loPI   C3A  377   8.835   4.988   8.888  0.2974 -0.2043  0.1379
   24loPI   C4A  378   8.854   5.029   8.420 -0.1157 -0.1859 -0.3498
   24loPI   C5A  379   8.897   5.099   7.965  0.1617 -0.1256  0.1194
   24loPI   C6A  380   8.947   5.069   7.496  0.2842 -0.0136 -0.1472
   24loPI   C1B  381   9.342   4.257   9.840  0.2077  0.3142  0.0877
   24loPI   C2B  382   9.132   4.134   9.535  0.0263 -0.3367 -0.1576
   24loPI   C3B  383   9.114   4.121   9.027 -0.0999 -0.1792  0.1009
   24loPI   C4B  384   9.286   4.283   8.505 -0.1743 -0.2410 -0.1163
   25loPI    C1  385  13.977  17.123  10.599  0.0873  0.0910  0.0754
   25loPI    C2  386  13.837  16.792  10.776  0.1407  0.0659  0.0708
   25loPI    C3  387  13.831  17.141  10.971 -0.1891  0.1207 -0.0322
   25loPI   PO4  388  14.113  17.020  10.429  0.3623 -0.0522 -0.1237
   25loPI   GL1  389  13.947  17.124   9.992 -0.2469  0.0478 -0.0991
   25loPI   GL2  390  14.151  16.880   9.939 -0.1573  0.0828  0.0996
   25loPI   C1A  391  13.755  17.031   9.533  0.2805 -0.3063  0.2976
   25loPI   C2A  392  13.868  16.991   9.152  0.3589  0.1538 -0.0757
   25loPI   C3A  393  13.701  17.137   8.901  0.0209 -0.0478  0.0563
   25loPI   C4A  394  13.642  17.278   8.511  0.0156  0.2119 -0.0202
   25loPI   C5A  395  13.779  17.262   8.041 -0.0326 -0.0220  0.3059
   25loPI   C6A  396  13.934  17.207   7.606  0.1403  0.0603  0.1525
   25loPI   C1B  397  14.239  16.944   9.493  0.1663 -0.1177  0.0798
   25loPI   C2B  398  14.343  16.979   9.178 -0.0007 -0.1942 -0.0737
   25loPI   C3B  399  14.585  16.914   8.886 -0.1229  0.1136  0.2647
   25loPI   C4B  400  14.617  16.980   8.398  0.0373 -0.2296 -0.3620
   26loPI    C1  401  15.536   8.853  10.534  0.0715 -0.1312  0.1209
   26loPI    C2  402  15.266   8.923  10.821  0.0692  0.2359  0.0339
   26loPI    C3  403  15.656   8.933  10.906  0.0633 -0.0692  0.1101
   26loPI   PO4  404  15.390   8.674  10.408 -0.3276 -0.0583 -0.0481
   26loPI   GL1  405  15.186   8.623   9.975 -0.0452 -0.2461 -0.0804
   26loPI   GL2  406  15.274   8.253  10.030 -0.0222 -0.2259  0.2232
   26loPI   C1A  407  15.510   8.576   9.694 -0.2936  0.0899 -0.1845
   26loPI   C2A  408  15.693   8.553   9.152  0.1877  0.3145 -0.4937
   26loPI   C3A  409  15.815   8.591   8.722  0.1409 -0.1453 -0.0007
   26loPI   C4A  410  15.785   8.598   8.207 -0.1941  0.0297 -0.5635
   26loPI   C5A  411  15.975   8.464   7.799 -0.1678 -0.3526  0.0971
   26loPI   C6A  412  16.137   8.394   7.374 -0.1089 -0.0084  0.1911
   26loPI   C1B  413  15.053   8.307   9.619 -0.0826 -0.2016 -0.2475
   26loPI   C2B  414  15.177   8.354   9.147 -0.3288 -0.1059 -0.0748
   26loPI   C3B  415  15.304   8.432   8.700 -0.0772  0.0091 -0.1708
   26loPI   C4B  416  15.329   8.412   8.357  0.2102  0.2278 -0.1629
   27loPI    C1  417  14.457   8.516  10.223  0.0049  0.1488 -0.1609
   27loPI    C2  418  14.482   8.371   9.851 -0.2070 -0.1937 -0.0465
   27loPI    C3  419  14.129   8.489   9.996 -0.1281 -0.0783  0.0540
   27loPI   PO4  420  14.770   8.673  10.233  0.1773 -0.1270 -0.2058
   27loPI   GL1  421  14.792   8.853   9.791 -0.0314  0.0108  0.0114
   27loPI   GL2  422  14.460   8.874   9.780 -0.2579 -0.3742 -0.1086
   27loPI   C1A  423  14.849   8.685   9.380 -0.2553 -0.1558  0.0386
   27loPI   C2A  424  15.238   8.827   9.120 -0.0411  0.3502 -0.1326
   27loPI   C3A  425  15.388   8.908   8.644 -0.0368 -0.1226  0.0665
   27loPI   C4A  426  15.316   8.920   8.319  0.2012 -0.2475 -0.1608
   27loPI   C5A  427  15.213   8.743   7.927  0.1892  0.0516  0.2191
   27loPI   C6A  428  15.132   8.628   7.562  0.0475 -0.1543 -0.0346
   27loPI   C1B  429  14.347   8.864   9.320 -0.1287  0.4545 -0.1670
   27loPI   C2B  430  14.364   8.928   8.930  0.1119  0.2292  0.0133
   27loPI   C3B  431  14.500   8.919   8.508  0.1461  0.1897 -0.3948
   27loPI   C4B  432  14.631   8.918   8.098 -0.1043 -0.1577 -0.0159
   28loPI    C1  433   6.466  15.641  10.668 -0.1695 -0.2981  0.3019
   28loPI    C2  434   6.138  15.869  10.682 -0.1274 -0.2238  0.1100
   28loPI    C3  435   6.366  15.828  11.008  0.1312  0.4054  0.0234
   28loPI   PO4  436   6.368  15.446  10.449 -0.1919  0.3676 -0.0127
   28loPI   GL1  437   6.176  15.340  10.054 -0.0759 -0.1574  0.0273
   28loPI   GL2  438   6.253  15.691   9.930  0.0473 -0.0631  0.0413
   28loPI   C1A  439   6.501  15.219   9.704  0.0650  0.0315 -0.0308
   28loPI   C2A  440   6.428  15.189   9.245  0.1064  0.3446 -0.1070
   28loPI   C3A  441   6.458  15.127   8.773 -0.0046 -0.0109  0.1806
   28loPI   C4A  442   6.318  15.045   8.359  0.1937 -0.1210  0.3784
   28loPI   C5A  443   6.297  14.847   7.932 -0.0256 -0.1526 -0.0966
   28loPI   C6A  444   5.914  14.911   7.698  0.0735  0.0177  0.1888
   28loPI   C1B  445   6.064  15.420   9.586  0.0875  0.0055 -0.1835
   28loPI   C2B  446   5.887  15.393   9.121  0.0642  0.3181  0.0872
   28loPI   C3B  447   5.932  15.390   8.742 -0.0996 -0.1228  0.2984
   28loPI   C4B  448   5.985  15.392   8.347 -0.3820  0.1489  0.1202
   29loPI    C1  449   8.996  18.466   9.834 -0.2059  0.2706 -0.2106
   29loPI    C2  450   9.050  18.450  10.230  0.0132  0.3079 -0.2378
   29loPI    C3  451   8.680  18.456  10.079 -0.0721  0.1187 -0.0414
   29loPI   PO4  452   9.269  18.538   9.815 -0.0382  0.1243 -0.0375
   29loPI   GL1  453   9.442  18.582   9.422 -0.0214 -0.3671 -0.4148
   29loPI   GL2  454   9.746  18.492   9.441 -0.3146 -0.1953 -0.2295
   29loPI   C1A  455   9.266  18.912   9.095 -0.1294  0.2387 -0.2106
   29loPI   C2A  456   9.298  19.264   8.776 -0.1096  0.0931 -0.1201
   29loPI   C3A  457   9.341  19.401   8.449 -0.2567 -0.1191  0.0340
   29loPI   C4A  458   9.157  19.433   7.993  0.0117 -0.1597 -0.0705
   29loPI   C5A  459   9.244  19.560   7.645 -0.0299 -0.1350  0.3263
   29loPI   C6A  460   9.074  19.559   7.176 -0.2254 -0.0280  0.3191
   29loPI   C1B  461   9.676  18.513   8.927  0.0625  0.0873 -0.2900
   29loPI   C2B  462   9.472  18.571   8.590  0.0851 -0.0568  0.1984
   29loPI   C3B  463   9.434  18.346   8.201 -0.1544  0.2510 -0.0857
   29loPI   C4B  464   9.549  17.977   7.898  0.1416 -0.2641  0.3717
   30loPI    C1  465  14.818  12.063  10.603  0.2438 -0.2781  0.1129
   30loPI    C2  466  14.591  11.804  10.806 -0.1970  0.0811  0.0942
   30loPI    C3  467  14.696  12.151  10.974 -0.3621  0.2761 -0.1972
   30loPI   PO4  468  14.689  12.032  10.278  0.1105 -0.4545  0.1790
   30loPI   GL1  469  14.846  11.805   9.946  0.2807 -0.2181 -0.1799
   30loPI   GL2  470  14.706  11.553   9.804 -0.0907  0.0312  0.0062
   30loPI   C1A  471  14.700  11.960   9.498 -0.0167  0.2038  0.0890
   30loPI   C2A  472  14.794  12.006   8.999 -0.0491  0.0710 -0.2198
   30loPI   C3A  473  14.792  11.902   8.534 -0.2602  0.0365  0.2038
   30loPI   C4A  474  14.696  11.748   8.127 -0.2670  0.2034 -0.0828
   30loPI   C5A  475  14.633  11.492   7.782  0.0031 -0.2059 -0.0326
   30loPI   C6A  476  14.489  11.205   7.475  0.1743  0.0899  0.0538
   30loPI   C1B  477  14.688  11.374   9.463 -0.2704 -0.2739  0.2105
   30loPI   C2B  478  14.568  11.581   9.062  0.1551 -0.1975  0.1383
   30loPI   C3B  479  14.641  11.496   8.701  0.1682 -0.0473  0.0773
   30loPI   C4B  480  14.615  11.280   8.239  0.3437  0.1038 -0.1189
   31loPI    C1  481  12.654  15.289  10.120  0.5182 -0.0912 -0.0155
   31loPI    C2  482  12.774  15.300  10.502  0.3764 -0.2518  0.0349
   31loPI    C3  483  12.388  15.241  10.415  0.4055 -0.2010 -0.1337
   31loPI   PO4  484  12.759  15.185   9.971 -0.0881  0.0719  0.0930
   31loPI   GL1  485  12.697  15.290   9.474 -0.1475  0.2049 -0.1750
   31loPI   GL2  486  12.400  15.400   9.622 -0.0738 -0.1461  0.1186
   31loPI   C1A  487  12.715  15.190   9.066  0.1563  0.0698 -0.1973
   31loPI   C2A  488  12.637  15.109   8.696  0.2792  0.2202  0.1009
   31loPI   C3A  489  12.685  15.166   8.212 -0.1531  0.0494  0.1989
   31loPI   C4A  490  12.803  15.328   7.855 -0.1222  0.1861 -0.2458
   31loPI   C5A  491  12.918  15.602   7.504  0.0488 -0.0631  0.1156
   31loPI   C6A  492  12.695  15.815   7.196 -0.0617 -0.1983  0.2382
   31loPI   C1B  493  12.302  15.394   9.275  0.2554  0.2939 -0.1713
   31loPI   C2B  494  12.365  15.482   8.813 -0.0487  0.0001 -0.0158
   31loPI   C3B  495  12.536  15.675   8.467  0.0703 -0.2267  0.1054
   31loPI   C4B  496  12.460  15.626   8.022  0.0922  0.0154  0.5289
   32loPI    C1  497   2.349  17.948  10.746  0.1346 -0.1563  0.0289
   32loPI    C2  498   2.537  18.005  11.095 -0.2027 -0.0808  0.2023
   32loPI    C3  499   2.304  17.684  11.043  0.1143 -0.2734 -0.0773
   32loPI   PO4  500   2.207  18.292  10.671  0.2835 -0.0683 -0.1627
   32loPI   GL1  501   2.136  18.421  10.243  0.1243 -0.1886 -0.1793
   32loPI   GL2  502   2.194  18.666  10.068 -0.1063  0.0866 -0.1900
   32loPI   C1A  503   2.093  18.280   9.829  0.3352 -0.0149  0.2796
   32loPI   C2A  504   2.108  18.245   9.368 -0.0762  0.0746  0.0314
   32loPI   C3A  505   2.166  18.265   8.984 -0.0733 -0.0711 -0.0482
   32loPI   C4A  506   2.202  18.253   8.457 -0.3078 -0.1828 -0.1915
   32loPI   C5A  507   2.475  18.256   8.073 -0.1613  0.2494  0.1204
   32loPI   C6A  508   2.770  17.998   7.824 -0.0229 -0.0136  0.0577
   32loPI   C1B  509   2.169  18.730   9.637 -0.0682 -0.1468 -0.1388
   32loPI   C2B  510   2.341  18.733   9.337  0.0539 -0.1040 -0.1352
   32loPI   C3B  511   2.438  18.694   8.848  0.3596  0.0134 -0.1707
   32loPI   C4B  512   2.421  18.757   8.343  0.3004  0.0137  0.0062
   33loPI    C1  513   3.859   9.810  10.967 -0.3830 -0.1055 -0.3401
   33loPI    C2  514   3.539   9.676  11.165 -0.2389  0.0101 -0.0227
   33loPI    C3  515   3.646  10.060  11.195 -0.0561 -0.0335 -0.1059
   33loPI   PO4  516   3.831   9.757  10.660 -0.0939  0.0386  0.2355
   33loPI   GL1  517   3.799  10.100  10.410  0.2847  0.0608 -0.1629
   33loPI   GL2  518   3.564  10.269  10.129 -0.2209 -0.1657  0.3376
   33loPI   C1A  519   4.021  10.205   9.972  0.1977 -0.1776 -0.1179
   33loPI   C2A  520   3.900  10.216   9.585  0.1453 -0.1134 -0.1833
   33loPI   C3A  521   3.967  10.224   9.132  0.1934 -0.1981  0.0550
   33loPI   C4A  522   4.100  10.132   8.814 -0.2193  0.1249 -0.0021
   33loPI   C5A  523   4.004  10.080   8.465  0.0681 -0.0474 -0.0205
   33loPI   C6A  524   4.054  10.231   8.069  0.2836  0.5156  0.2636
   33loPI   C1B  525   3.546   9.957   9.894 -0.2220 -0.0446 -0.0243
   33loPI   C2B  526   3.455   9.935   9.489 -0.0297  0.0055 -0.2814
   33loPI   C3B  527   3.540   9.952   9.154 -0.1857 -0.1131 -0.1493
   33loPI   C4B  528   3.611   9.954   8.767 -0.1268 -0.0523  0.0522
   34loPI    C1  529   7.602   7.115  10.871  0.0002  0.0423  0.0448
   34loPI    C2  530   7.789   7.436  11.019  0.1629 -0.0138 -0.0361
   34loPI    C3  531   7.784   7.094  11.227 -0.2671  0.1212  0.1892
   34loPI   PO4  532   7.667   7.158  10.594  0.1120 -0.0626 -0.0338
   34loPI   GL1  533   7.589   7.205  10.176 -0.1696  0.1791  0.0987
   34loPI   GL2  534   7.675   6.935  10.172 -0.0718 -0.2977 -0.2916
   34loPI   C1A  535   7.604   7.338   9.677 -0.0860  0.3826 -0.0068
   34loPI   C2A  536   7.486   7.472   9.374 -0.1611  0.1748  0.2902
   34loPI   C3A  537   7.487   7.560   8.938 -0.2874  0.2840  0.1140
   34loPI   C4A  538   7.543   7.523   8.465 -0.1853  0.3493  0.0259
   34loPI   C5A  539   7.466   7.513   7.982 -0.1667  0.1531 -0.1006
   34loPI   C6A  540   7.450   7.119   7.752 -0.0975 -0.2879 -0.4619
   34loPI   C1B  541   7.496   6.815   9.732 -0.2957  0.0964  0.0385
   34loPI   C2B  542   7.500   6.951   9.275 -0.0579  0.0189  0.0729
   34loPI   C3B  543   7.439   6.952   8.907 -0.1145  0.1886  0.0398
   34loPI   C4B  544   7.329   7.077   8.488  0.0936  0.0790  0.1060
   35loPI    C1  545  16.491   9.188  10.664 -0.0940  0.0506  0.0226
   35loPI    C2  546  16.107   9.102  10.731 -0.0565 -0.0605  0.0975
   35loPI    C3  547  16.265   9.438  10.878 -0.1290 -0.0068  0.0530
   35loPI   PO4  548  16.488   9.141  10.359  0.2678  0.0188  0.0302
   35loPI   GL1  549  16.605   9.230   9.951 -0.0187 -0.1571  0.2017
   35loPI   GL2  550  16.973   9.344   9.810  0.0275 -0.1537  0.2635
   35loPI   C1A  551  16.439   9.001   9.696 -0.2316  0.2242  0.1578
   35loPI   C2A  552  16.587   9.183   9.314 -0.1568  0.3020 -0.0296
   35loPI   C3A  553  16.514   9.154   8.977 -0.1031 -0.1051  0.0443
   35loPI   C4A  554  16.567   9.245   8.604  0.4012 -0.0817 -0.0545
   35loPI   C5A  555  16.490   9.238   8.158 -0.2742 -0.0103 -0.1066
   35loPI   C6A  556  16.677   9.048   7.784  0.1166  0.3581  0.2531
   35loPI   C1B  557  16.981   9.413   9.395 -0.6068 -0.0622  0.1242
   35loPI   C2B  558  16.937   9.407   8.969  0.1829  0.0169  0.1560
   35loPI   C3B  559  17.135   9.408   8.508  0.5021 -0.0788  0.1113
   35loPI   C4B  560  16.971   9.657   8.213  0.1241  0.2745  0.1223
   36loPI    C1  561   5.782  18.113  10.394 -0.2463  0.0817 -0.0467
   36loPI    C2  562   6.044  18.164  10.693 -0.0702  0.0304 -0.1902
   36loPI    C3  563   5.668  18.054  10.773 -0.0374  0.0634  0.0151
   36loPI   PO4  564   5.901  18.076  10.189 -0.2467  0.2412 -0.1990
   36loPI   GL1  565   5.844  17.855   9.793 -0.1784 -0.1941 -0.2658
   36loPI   GL2  566   5.544  17.716   9.636  0.3638 -0.0342 -0.0522
   36loPI   C1A  567   5.887  17.931   9.405  0.2265  0.0508  0.0664
   36loPI   C2A  568   5.847  18.175   8.940  0.0817 -0.0369  0.2049
   36loPI   C3A  569   5.879  18.085   8.524  0.0307 -0.0052  0.1236
   36loPI   C4A  570   5.782  18.189   8.105 -0.0194 -0.0126 -0.2054
   36loPI   C5A  571   5.459  18.090   7.800  0.1881 -0.2037 -0.0736
   36loPI   C6A  572   5.184  18.265   7.587 -0.4619  0.0164 -0.1876
   36loPI   C1B  573   5.413  17.734   9.168 -0.1327 -0.3067 -0.3481
   36loPI   C2B  574   5.446  17.873   8.703  0.0363 -0.1846  0.1278
   36loPI   C3B  575   5.546  17.824   8.306 -0.2699  0.0001  0.0582
   36loPI   C4B  576   5.647  17.655   7.873  0.2424 -0.3042  0.0782
   37loPI    C1  577  10.575   5.642  10.480  0.0655  0.0173 -0.3914
   37loPI    C2  578  10.258   5.634  10.236 -0.0523  0.0561 -0.2419
   37loPI    C3  579  10.398   5.294  10.393 -0.1427  0.0600 -0.1522
   37loPI   PO4  580  10.762   5.781  10.364 -0.0910 -0.0792  0.1629
   37loPI   GL1  581  10.806   5.957   9.990  0.1585 -0.0257  0.1724
   37loPI   GL2  582  10.460   6.082  10.057 -0.1385 -0.0314 -0.1348
   37loPI   C1A  583  10.657   6.115   9.536  0.1325  0.2394 -0.4530
   37loPI   C2A  584  10.576   6.118   8.959 -0.0597 -0.0024 -0.0483
   37loPI   C3A  585  10.549   6.203   8.646  0.2621 -0.2180  0.0940
   37loPI   C4A  586  10.505   6.149   8.213  0.3465 -0.1508 -0.2129
   37loPI   C5A  587  10.313   5.736   8.004  0.0366 -0.0952  0.1380
   37loPI   C6A  588  10.114   5.593   7.622  0.0036 -0.2035  0.2786
   37loPI   C1B  589  10.274   5.787   9.740  0.1437 -0.0634 -0.1496
   37loPI   C2B  590  10.208   5.858   9.313 -0.0232  0.0842  0.2435
   37loPI   C3B  591  10.143   5.852   8.874  0.1300 -0.1498 -0.0522
   37loPI   C4B  592  10.152   5.895   8.468 -0.1493 -0.1385  0.0922
   38loPI    C1  593  17.028   5.927  10.557  0.1566  0.1046  0.1551
   38loPI    C2  594  16.658   5.930  10.708  0.0283 -0.3147 -0.1339
   38loPI    C3  595  16.939   5.697  10.872  0.1458 -0.0605  0.0326
   38loPI   PO4  596  16.996   5.854  10.352 -0.0195  0.0237  0.1583
   38loPI   GL1  597  16.900   5.604   9.945 -0.2242 -0.3492 -0.1681
   38loPI   GL2  598  16.631   5.364   9.752 -0.2502  0.1886 -0.0900
   38loPI   C1A  599  16.939   6.015   9.651 -0.2404  0.3571 -0.0211
   38loPI   C2A  600  17.038   6.027   9.191  0.1571 -0.2724 -0.2142
   38loPI   C3A  601  17.042   6.155   8.717  0.0274 -0.0817 -0.3217
   38loPI   C4A  602  16.880   6.162   8.300  0.0253  0.3327  0.1727
   38loPI   C5A  603  16.602   6.057   7.999 -0.1845 -0.0443 -0.2830
   38loPI   C6A  604  16.404   6.055   7.695 -0.1808 -0.0815 -0.0493
   38loPI   C1B  605  16.821   5.476   9.358 -0.2995  0.2985 -0.0390
   38loPI   C2B  606  16.947   5.575   8.913 -0.1755 -0.2535 -0.1036
   38loPI   C3B  607  16.930   5.701   8.535  0.2958 -0.2580 -0.1557
   38loPI   C4B  608  17.157   5.587   8.098 -0.2977 -0.1351  0.2685
   39loPI    C1  609  13.313  14.503  10.388 -0.2119 -0.0155  0.0978
   39loPI    C2  610  13.123  14.219  10.596  0.2351 -0.3612  0.0490
   39loPI    C3  611  13.516  14.274  10.646  0.1887  0.1334 -0.0773
   39loPI   PO4  612  13.380  14.490  10.181  0.0921  0.0089  0.3079
   39loPI   GL1  613  13.498  14.524   9.684 -0.1118 -0.1740 -0.3054
   39loPI   GL2  614  13.213  14.458   9.674 -0.1586 -0.2823 -0.1666
   39loPI   C1A  615  13.691  14.633   9.308  0.3304  0.1041 -0.1008
   39loPI   C2A  616  13.949  14.567   8.994  0.1753 -0.1443 -0.1158
   39loPI   C3A  617  14.000  14.501   8.465  0.0691  0.1942  0.2005
   39loPI   C4A  618  14.237  14.512   8.065  0.1397 -0.2226 -0.0041
   39loPI   C5A  619  14.128  14.736   7.655  0.0920  0.1232  0.1028
   39loPI   C6A  620  13.865  14.812   7.236  0.1817 -0.0144  0.1356
   39loPI   C1B  621  13.227  14.459   9.172  0.1034  0.2359 -0.0719
   39loPI   C2B  622  13.416  14.596   8.778  0.1851  0.1344  0.1927
   39loPI   C3B  623  13.306  14.376   8.355 -0.1071  0.0937  0.0993
   39loPI   C4B  624  13.337  14.374   7.812 -0.0881 -0.1398 -0.0620
   40loPI    C1  625   5.812   3.284  10.874  0.2110  0.1332  0.2020
   40loPI    C2  626   5.746   3.677  10.917  0.1167  0.1266  0.1221
   40loPI    C3  627   5.482   3.412  11.060 -0.1684  0.1033 -0.4201
   40loPI   PO4  628   6.067   3.288  10.615 -0.0323  0.1918  0.0284
   40loPI   GL1  629   6.229   3.520  10.145  0.1366 -0.1621  0.0438
   40loPI   GL2  630   6.170   3.217  10.073  0.0523 -0.0173 -0.2315
   40loPI   C1A  631   6.144   3.568   9.708 -0.2797  0.2150 -0.0314
   40loPI   C2A  632   6.318   3.680   9.310  0.1680  0.1099 -0.0837
   40loPI   C3A  633   6.443   3.924   9.015 -0.1887 -0.0091 -0.0856
   40loPI   C4A  634   6.602   3.865   8.600 -0.1144  0.1201 -0.2208
   40loPI   C5A  635   6.881   3.623   8.261  0.1568 -0.1442 -0.0305
   40loPI   C6A  636   7.151   3.536   7.954  0.0716 -0.3095 -0.0058
   40loPI   C1B  637   6.526   3.280   9.859 -0.0886  0.0176  0.2390
   40loPI   C2B  638   6.542   3.214   9.411  0.0082 -0.2130 -0.0645
   40loPI   C3B  639   6.534   3.416   8.917 -0.3478  0.2144 -0.0517
   40loPI   C4B  640   6.533   3.372   8.582  0.1751  0.0178 -0.3862
   41loPI    C1  641  15.537   1.150  10.141  0.0322  0.3468  0.1623
   41loPI    C2  642  15.593   0.982  10.500 -0.1101  0.0013  0.0278
   41loPI    C3  643  15.266   0.895  10.288 -0.1554  0.4052 -0.0766
   41loPI   PO4  644  15.768   1.083   9.988 -0.1108  0.0369 -0.2390
   41loPI   GL1  645  15.762   1.053   9.503 -0.0334 -0.1932  0.0867
   41loPI   GL2  646  15.778   1.437   9.503  0.0889  0.1695  0.0607
   41loPI   C1A  647  15.477   1.051   9.128 -0.0941  0.1321  0.0495
   41loPI   C2A  648  15.410   1.235   8.765 -0.0789 -0.3439  0.2628
   41loPI   C3A  649  15.362   1.275   8.266 -0.0200 -0.0920 -0.1853
   41loPI   C4A  650  15.293   1.350   7.908  0.2295 -0.0176  0.2396
   41loPI   C5A  651  14.890   1.284   7.528 -0.0294 -0.2101  0.1568
   41loPI   C6A  652  14.435   1.475   7.308  0.0883 -0.0506 -0.0287
   41loPI   C1B  653  15.823   1.362   9.142 -0.1890 -0.1765 -0.1097
   41loPI   C2B  654  15.911   1.312   8.704 -0.0211 -0.1326 -0.1767
   41loPI   C3B  655  15.858   1.360   8.227 -0.1509  0.0207  0.2198
   41loPI   C4B  656  15.782   1.697   7.819  0.3102  0.0593 -0.0090
   42loPI    C1  657   7.544  17.452   9.869  0.1951 -0.0262  0.1563
   42loPI    C2  658   7.617  17.513  10.257 -0.2155  0.3992  0.1750
   42loPI    C3  659   7.314  17.276  10.145  0.1778 -0.0861  0.1040
   42loPI   PO4  660   7.742  17.364   9.716 -0.1036 -0.2412 -0.0764
   42loPI   GL1  661   7.777  17.204   9.324  0.0721  0.2810  0.0540
   42loPI   GL2  662   8.130  17.413   9.353 -0.3129 -0.2209 -0.3039
   42loPI   C1A  663   7.695  16.921   9.056 -0.1296  0.1181  0.0000
   42loPI   C2A  664   7.703  16.533   8.945  0.3016 -0.2049 -0.0387
   42loPI   C3A  665   7.785  16.401   8.484 -0.1349 -0.6300  0.2791
   42loPI   C4A  666   7.702  16.132   8.101 -0.5559 -0.0066  0.3534
   42loPI   C5A  667   7.630  16.078   7.642  0.0064  0.1186 -0.1268
   42loPI   C6A  668   7.345  16.056   7.370  0.2785 -0.2311  0.1186
   42loPI   C1B  669   8.077  17.209   8.928 -0.4387  0.0581 -0.2298
   42loPI   C2B  670   7.983  17.192   8.539  0.2774  0.1845 -0.0986
   42loPI   C3B  671   7.809  16.935   8.221  0.0904  0.4819  0.2034
   42loPI   C4B  672   7.702  16.995   7.877  0.1360 -0.1611 -0.1209
   43loPI    C1  673   1.820  11.227  10.496  0.0988  0.0652  0.0257
   43loPI    C2  674   2.096  10.937  10.515 -0.1007 -0.1402 -0.1590
   43loPI    C3  675   1.776  10.924  10.754 -0.1945 -0.1639 -0.2846
   43loPI   PO4  676   1.808  11.263  10.324 -0.1104 -0.1728 -0.0527
   43loPI   GL1  677   2.061  11.010  10.039  0.2518 -0.1312 -0.2848
   43loPI   GL2  678   2.056  11.310   9.917 -0.0900  0.0392 -0.0174
   43loPI   C1A  679   2.162  10.854   9.718  0.3438 -0.1919  0.1722
   43loPI   C2A  680   2.220  10.813   9.344 -0.4053  0.0021  0.4625
   43loPI   C3A  681   2.185  10.809   8.896  0.1833 -0.1050  0.0414
   43loPI   C4A  682   2.367  10.750   8.532 -0.2781 -0.2995 -0.0090
   43loPI   C5A  683   2.342  10.669   8.138  0.3574 -0.2563  0.1324
   43loPI   C6A  684   2.462  10.440   7.859 -0.0055 -0.0391 -0.2013
   43loPI   C1B  685   2.168  11.329   9.438  0.0886 -0.1824  0.1311
   43loPI   C2B  686   2.269  11.392   8.959  0.0300  0.2921 -0.2542
   43loPI   C3B  687   2.413  11.293   8.524  0.3821 -0.1521  0.0016
   43loPI   C4B  688   2.402  11.175   8.166  0.0710  0.2705  0.0903
   44loPI    C1  689  17.618  11.343  10.569 -0.0350 -0.1462 -0.0591
   44loPI    C2  690  17.665  11.573  10.893 -0.0323 -0.1961 -0.0241
   44loPI    C3  691  17.350  11.328  10.866 -0.2001  0.0337 -0.1958
   44loPI   PO4  692  17.815  11.191  10.567 -0.1496  0.3047 -0.0100
   44loPI   GL1  693  18.167  11.148  10.381 -0.2583  0.1861 -0.1514
   44loPI   GL2  694  18.112  11.529  10.310 -0.1507 -0.1826  0.0419
   44loPI   C1A  695  18.270  11.162   9.977  0.0662  0.2762 -0.0705
   44loPI   C2A  696  18.298  11.310   9.610  0.1786  0.3048  0.1390
   44loPI   C3A  697  18.485  11.221   9.337 -0.0078  0.0809  0.0381
   44loPI   C4A  698  18.391  11.068   8.830 -0.1297 -0.0614  0.0206
   44loPI   C5A  699  18.357  10.977   8.396 -0.1510  0.1530  0.2892
   44loPI   C6A  700  18.538  11.042   8.083 -0.3939  0.0015 -0.0933
   44loPI   C1B  701  18.030  11.671   9.868  0.0559  0.0308 -0.1790
   44loPI   C2B  702  18.025  11.684   9.422 -0.4705 -0.0249  0.1630
   44loPI   C3B  703  18.047  11.585   9.027 -0.0223  0.1864  0.0285
   44loPI   C4B  704  17.924  11.347   8.722  0.0400  0.0406 -0.0513
   45loPI    C1  705  14.163   4.827  10.422  0.0632  0.0630 -0.1445
   45loPI    C2  706  14.207   4.447  10.538  0.2039  0.0211 -0.3313
   45loPI    C3  707  14.133   4.731  10.809  0.3109 -0.1079 -0.1655
   45loPI   PO4  708  13.930   4.871  10.289  0.0800 -0.1262 -0.3692
   45loPI   GL1  709  13.753   4.984   9.950 -0.1520 -0.3405 -0.2661
   45loPI   GL2  710  13.675   5.115   9.795  0.1563  0.1351  0.1233
   45loPI   C1A  711  13.899   4.760   9.499 -0.1587 -0.1111 -0.0784
   45loPI   C2A  712  13.850   4.909   9.128  0.0537  0.1942 -0.1955
   45loPI   C3A  713  13.816   5.020   8.773 -0.3988 -0.0118 -0.3357
   45loPI   C4A  714  13.797   4.920   8.354 -0.2446 -0.3957  0.1721
   45loPI   C5A  715  13.771   4.761   7.872 -0.3625 -0.3442  0.1949
   45loPI   C6A  716  13.398   4.709   7.688 -0.0543  0.5107 -0.3659
   45loPI   C1B  717  13.354   5.094   9.472  0.1092 -0.2092  0.3143
   45loPI   C2B  718  13.394   5.074   8.992  0.1292  0.2357 -0.2787
   45loPI   C3B  719  13.364   5.130   8.595  0.1072 -0.1267  0.1282
   45loPI   C4B  720  13.349   5.118   8.127 -0.2291  0.0372 -0.0254
   46loPI    C1  721  15.606   6.412  10.514  0.0252 -0.0566  0.1051
   46loPI    C2  722  15.999   6.432  10.441 -0.0057  0.0683 -0.0310
   46loPI    C3  723  15.861   6.191  10.729  0.1716  0.0344  0.0266
   46loPI   PO4  724  15.547   6.301  10.352 -0.0951 -0.1362  0.1596
   46loPI   GL1  725  15.620   6.303   9.944  0.2846 -0.0823  0.1679
   46loPI   GL2  726  15.332   6.265   9.794 -0.1081  0.0780  0.4405
   46loPI   C1A  727  15.674   6.501   9.533 -0.2911 -0.0202 -0.0039
   46loPI   C2A  728  15.577   6.401   9.071 -0.0964 -0.0453  0.0521
   46loPI   C3A  729  15.585   6.306   8.660 -0.0188 -0.2263  0.2346
   46loPI   C4A  730  15.522   6.185   8.237  0.0141 -0.0569 -0.0864
   46loPI   C5A  731  15.504   6.002   7.985 -0.1297 -0.2588  0.1756
   46loPI   C6A  732  15.294   5.933   7.534 -0.0196 -0.0975  0.1747
   46loPI   C1B  733  15.163   6.302   9.412  0.0666 -0.0533 -0.1802
   46loPI   C2B  734  15.120   6.219   9.004 -0.0546 -0.1786  0.1735
   46loPI   C3B  735  15.205   5.946   8.553  0.0579  0.3333 -0.2042
   46loPI   C4B  736  15.263   5.512   8.314  0.3644 -0.1591  0.2684
   47loPI    C1  737   7.790  12.613  10.346  0.1679  0.1128 -0.0670
   47loPI    C2  738   8.127  12.766  10.498  0.0420  0.0475  0.2865
   47loPI    C3  739   7.785  12.789  10.705 -0.1433 -0.0133 -0.0063
   47loPI   PO4  740   7.751  12.743  10.151  0.2054  0.1331 -0.3159
   47loPI   GL1  741   7.766  12.878   9.845 -0.0506  0.0655 -0.1253
   47loPI   GL2  742   7.867  13.148   9.937 -0.2107  0.2204 -0.0749
   47loPI   C1A  743   7.759  12.762   9.552  0.2812  0.1103  0.1741
   47loPI   C2A  744   7.767  12.716   9.181  0.0041 -0.3792  0.1753
   47loPI   C3A  745   7.717  12.720   8.798  0.1932 -0.2573 -0.1242
   47loPI   C4A  746   7.799  12.866   8.356  0.2238  0.2853  0.0260
   47loPI   C5A  747   7.799  13.000   7.952 -0.1213  0.0528 -0.2498
   47loPI   C6A  748   7.385  13.155   7.840  0.2965  0.0861 -0.1774
   47loPI   C1B  749   7.788  13.315   9.562  0.6405 -0.2239  0.3894
   47loPI   C2B  750   7.753  13.279   9.124  0.2567  0.2286  0.1492
   47loPI   C3B  751   7.720  13.282   8.588  0.0055  0.2458  0.1111
   47loPI   C4B  752   7.693  13.420   8.206  0.0049 -0.0775  0.1688
   48loPI    C1  753  13.900  16.197  10.272  0.0990 -0.1820  0.0913
   48loPI    C2  754  14.172  16.378  10.042 -0.1336 -0.1980 -0.2026
   48loPI    C3  755  14.061  16.545  10.388  0.1775 -0.1450 -0.1248
   48loPI   PO4  756  13.724  16.083  10.081 -0.2500  0.0444  0.0719
   48loPI   GL1  757  13.724  16.182   9.708  0.1288  0.1946  0.1252
   48loPI   GL2  758  13.610  16.423   9.555 -0.0440  0.0748 -0.2108
   48loPI   C1A  759  14.001  16.053   9.294  0.0805 -0.0652 -0.2657
   48loPI   C2A  760  14.043  15.804   8.910 -0.2433  0.0790  0.2035
   48loPI   C3A  761  14.026  15.574   8.506 -0.1284 -0.1367 -0.0302
   48loPI   C4A  762  14.189  15.648   8.125  0.1139 -0.2408  0.3200
   48loPI   C5A  763  14.431  16.032   8.056 -0.0820  0.0643  0.0308
   48loPI   C6A  764  14.843  16.211   7.954 -0.0367  0.1837  0.0993
   48loPI   C1B  765  14.020  16.522   9.324 -0.4096  0.1473 -0.3484
   48loPI   C2B  766  14.178  16.495   8.919  0.3091  0.4362 -0.2689
   48loPI   C3B  767  14.172  16.638   8.640  0.0572 -0.2484  0.1815
   48loPI   C4B  768  14.373  16.619   8.222  0.2873 -0.0415  0.2704
   49loPI    C1  769   2.422   1.007  10.464  0.0177  0.1072  0.3626
   49loPI    C2  770   2.793   1.124  10.368 -0.0234 -0.0710 -0.0356
   49loPI    C3  771   2.480   1.359  10.284  0.0090  0.1773  0.4958
   49loPI   PO4  772   2.391   0.796  10.358 -0.0092  0.0099  0.1093
   49loPI   GL1  773   2.264   0.687   9.999 -0.0083 -0.1472  0.1763
   49loPI   GL2  774   1.989   0.551  10.115  0.1075  0.1704  0.0840
   49loPI   C1A  775   2.433   0.629   9.565  0.2794  0.0772  0.2049
   49loPI   C2A  776   2.626   0.538   9.111  0.2843  0.1442  0.1329
   49loPI   C3A  777   2.685   0.576   8.719  0.0611 -0.0882  0.0371
   49loPI   C4A  778   2.652   0.637   8.261  0.0403 -0.3507 -0.3066
   49loPI   C5A  779   2.434   0.622   7.932  0.1320  0.1241  0.0576
   49loPI   C6A  780   2.022   0.755   7.837  0.0488  0.1272 -0.3502
   49loPI   C1B  781   1.943   0.568   9.673  0.4594 -0.1317 -0.2648
   49loPI   C2B  782   1.944   0.632   9.339  0.0264 -0.2145 -0.2065
   49loPI   C3B  783   2.065   0.581   8.983 -0.1172  0.2682  0.1079
   49loPI   C4B  784   2.193   0.507   8.593 -0.0860  0.3408 -0.1783
   50loPI    C1  785   1.368   0.232  10.605  0.0827  0.0914 -0.0280
   50loPI    C2  786   1.267   0.585  10.765 -0.2235 -0.0203  0.0323
   50loPI    C3  787   0.988   0.304  10.707  0.0085 -0.2359 -0.0619
   50loPI   PO4  788   1.615   0.304  10.391 -0.1669 -0.0704 -0.2937
   50loPI   GL1  789   1.695   0.160   9.974 -0.1425  0.0666  0.0862
   50loPI   GL2  790   1.389   0.433   9.880 -0.2061 -0.3595  0.1472
   50loPI   C1A  791   1.682   0.052   9.501  0.2845  0.2429 -0.2528
   50loPI   C2A  792   1.910   0.141   9.157 -0.1072  0.0328 -0.0276
   50loPI   C3A  793   1.937   0.117   8.749  0.3136  0.3528  0.1800
   50loPI   C4A  794   1.890   0.098   8.362 -0.0604  0.0520  0.0303
   50loPI   C5A  795   2.069   0.180   8.013 -0.0532 -0.1234 -0.0418
   50loPI   C6A  796   2.511   0.103   7.827 -0.3832  0.0364  0.1030
   50loPI   C1B  797   1.466   0.495   9.510 -0.2789 -0.3476 -0.1806
   50loPI   C2B  798   1.516   0.506   9.079 -0.2135 -0.0079 -0.1809
   50loPI   C3B  799   1.546   0.504   8.640 -0.3269  0.0069 -0.0123
   50loPI   C4B  800   1.816   0.585   8.312  0.3263  0.3832  0.0287
   51loPI    C1  801  16.304  15.920  10.407  0.1292  0.0040 -0.1366
   51loPI    C2  802  16.663  15.846  10.568  0.0918  0.1279  0.0055
   51loPI    C3  803  16.602  16.183  10.362  0.0090  0.1898  0.1304
   51loPI   PO4  804  16.329  15.695  10.173  0.6654  0.1249 -0.0561
   51loPI   GL1  805  16.377  15.482   9.810 -0.0299 -0.0173 -0.1394
   51loPI   GL2  806  16.449  15.697   9.578 -0.1134  0.0627  0.0892
   51loPI   C1A  807  16.499  15.163   9.558  0.0688  0.0824  0.1535
   51loPI   C2A  808  16.744  14.998   9.205  0.2429 -0.0240 -0.1040
   51loPI   C3A  809  16.749  15.010   8.744 -0.4733  0.2242  0.1786
   51loPI   C4A  810  16.608  14.912   8.307 -0.3317  0.0768  0.1420
   51loPI   C5A  811  16.372  14.865   7.914 -0.0666  0.3371 -0.0054
   51loPI   C6A  812  16.111  15.109   7.710 -0.0313 -0.0252 -0.1960
   51loPI   C1B  813  16.562  15.694   9.129 -0.1909  0.1588  0.1621
   51loPI   C2B  814  16.706  15.723   8.664 -0.2791 -0.0731  0.2292
   51loPI   C3B  815  16.653  15.656   8.244 -0.0370 -0.0973 -0.1798
   51loPI   C4B  816  16.773  15.872   7.971 -0.0273  0.0713 -0.0611
   52loPI    C1  817   8.292   6.701  10.512 -0.1005  0.0035  0.1815
   52loPI    C2  818   8.146   6.464  10.799  0.1962 -0.3064  0.0830
   52loPI    C3  819   8.508   6.630  10.841 -0.0385  0.1986  0.1847
   52loPI   PO4  820   8.118   6.588  10.300 -0.0509  0.0312  0.0917
   52loPI   GL1  821   8.025   6.703   9.849  0.0192  0.2775 -0.2096
   52loPI   GL2  822   8.038   7.046   9.799  0.0235  0.1648  0.2080
   52loPI   C1A  823   7.929   6.564   9.477 -0.1280 -0.0861 -0.4387
   52loPI   C2A  824   7.929   6.723   9.049  0.0646  0.0116  0.2190
   52loPI   C3A  825   7.880   6.766   8.577 -0.0538  0.3415 -0.2539
   52loPI   C4A  826   7.950   6.740   8.072  0.0536  0.1214  0.0318
   52loPI   C5A  827   8.324   6.604   7.824  0.0144 -0.2746 -0.0400
   52loPI   C6A  828   8.478   6.316   7.440  0.2651  0.0298 -0.0517
   52loPI   C1B  829   7.990   7.131   9.445 -0.0096  0.1673 -0.0771
   52loPI   C2B  830   7.885   7.251   8.976  0.0442 -0.1687  0.0971
   52loPI   C3B  831   7.938   7.280   8.595  0.1709 -0.0303  0.2417
   52loPI   C4B  832   7.900   7.266   8.158 -0.1320  0.2019  0.3000
   53loPI    C1  833   0.518   7.461  11.171  0.2511  0.3322  0.0333
   53loPI    C2  834   0.798   7.322  10.922  0.0156  0.3052 -0.2207
   53loPI    C3  835   0.806   7.219  11.308  0.2680  0.1845 -0.2557
   53loPI   PO4  836   0.503   7.725  11.102 -0.1709 -0.0137  0.0475
   53loPI   GL1  837   0.417   7.760  10.706 -0.1938 -0.3039  0.0661
   53loPI   GL2  838   0.217   7.876  10.500 -0.3827 -0.3318  0.1215
   53loPI   C1A  839   0.786   7.488  10.389 -0.0265  0.0414  0.0753
   53loPI   C2A  840   0.722   7.340   9.958  0.2887  0.2644  0.1812
   53loPI   C3A  841   0.679   7.407   9.519 -0.2224  0.4200  0.0435
   53loPI   C4A  842   0.796   7.451   8.999 -0.1702  0.0527  0.3934
   53loPI   C5A  843   0.933   7.417   8.545  0.2625  0.0370 -0.2048
   53loPI   C6A  844   0.664   7.215   8.319  0.0391  0.0225 -0.0712
   53loPI   C1B  845   0.324   7.712  10.217  0.0651  0.1933  0.0293
   53loPI   C2B  846   0.421   7.710   9.782 -0.3700  0.0333 -0.0449
   53loPI   C3B  847   0.396   7.727   9.290  0.1041 -0.3509  0.2197
   53loPI   C4B  848   0.275   7.663   8.889 -0.3470  0.1182  0.0678
   54loPI    C1  849   5.633   3.775  10.450  0.2481 -0.1008 -0.0264
   54loPI    C2  850   5.455   4.109  10.320 -0.2225 -0.2191  0.2890
   54loPI    C3  851   5.330   3.752  10.189  0.3770 -0.2790 -0.1631
   54loPI   PO4  852   5.874   3.753  10.407 -0.0836 -0.2185 -0.1509
   54loPI   GL1  853   6.102   4.001  10.061 -0.1124  0.4016 -0.1076
   54loPI   GL2  854   5.844   4.062   9.897  0.0741  0.0521 -0.2308
   54loPI   C1A  855   6.367   3.987   9.784  0.1779 -0.2119  0.3812
   54loPI   C2A  856   6.436   4.217   9.472  0.1151  0.1726 -0.1551
   54loPI   C3A  857   6.375   4.422   9.118 -0.2974  0.0458  0.2479
   54loPI   C4A  858   6.577   4.349   8.687 -0.0086 -0.2963  0.1606
   54loPI   C5A  859   6.691   4.192   8.181  0.2580  0.1197  0.0664
   54loPI   C6A  860   6.675   3.874   7.821  0.0432 -0.0068  0.1762
   54loPI   C1B  861   5.959   4.015   9.535  0.3792  0.2221 -0.0042
   54loPI   C2B  862   5.944   4.187   9.107 -0.1865  0.2892  0.0355
   54loPI   C3B  863   6.036   4.144   8.746  0.1624  0.0312 -0.4678
   54loPI   C4B  864   6.213   4.127   8.424 -0.1381 -0.1247 -0.1239
   55loPI    C1  865   3.180  17.920  10.341 -0.1970 -0.0546 -0.1294
   55loPI    C2  866   3.494  17.899  10.094  0.0698  0.2122  0.1775
   55loPI    C3  867   3.549  17.876  10.490 -0.3397 -0.0928  0.2232
   55loPI   PO4  868   2.986  17.899  10.209  0.1049  0.0356  0.1378
   55loPI   GL1  869   2.934  17.860   9.783 -0.0851 -0.1993  0.3295
   55loPI   GL2  870   3.207  17.744   9.759  0.0326  0.0497 -0.3770
   55loPI   C1A  871   3.014  18.169   9.456 -0.0211  0.2172 -0.1353
   55loPI   C2A  872   3.114  18.109   9.076 -0.1992 -0.1602 -0.2314
   55loPI   C3A  873   3.154  18.199   8.693  0.0441 -0.2099 -0.2358
   55loPI   C4A  874   3.237  18.380   8.400 -0.0505 -0.1373 -0.1527
   55loPI   C5A  875   3.526  18.518   8.044 -0.0316 -0.0307  0.2753
   55loPI   C6A  876   3.918  18.733   7.989 -0.2299  0.3050 -0.1992
   55loPI   C1B  877   3.257  17.699   9.336  0.1289 -0.0352 -0.0483
   55loPI   C2B  878   3.378  17.710   8.857 -0.2389  0.1830 -0.1505
   55loPI   C3B  879   3.278  17.696   8.485  0.1179  0.0123 -0.0113
   55loPI   C4B  880   3.217  17.882   8.126 -0.2336 -0.4480 -0.1448
   56loPI    C1  881  13.105   5.137  10.617  0.1246  0.1633 -0.0107
   56loPI    C2  882  13.176   4.793  10.809  0.1806  0.0790 -0.1816
   56loPI    C3  883  13.113   5.128  11.017  0.0781 -0.0435 -0.0131
   56loPI   PO4  884  12.972   5.089  10.423  0.1243  0.2786 -0.0893
   56loPI   GL1  885  12.960   5.108   9.979  0.4092 -0.0858 -0.1014
   56loPI   GL2  886  13.168   4.928   9.917  0.2770  0.1135  0.1200
   56loPI   C1A  887  12.818   5.345   9.585 -0.0140  0.3563 -0.0047
   56loPI   C2A  888  13.012   5.389   9.235  0.0153  0.0166  0.0617
   56loPI   C3A  889  12.964   5.373   8.800 -0.0988 -0.0169 -0.1484
   56loPI   C4A  890  12.914   5.415   8.259 -0.0687  0.1830 -0.1992
   56loPI   C5A  891  12.845   5.461   7.850  0.0401 -0.0411  0.0674
   56loPI   C6A  892  12.980   5.602   7.493  0.0927 -0.1667 -0.1325
   56loPI   C1B  893  13.356   4.630   9.604 -0.0932  0.0681  0.0585
   56loPI   C2B  894  13.269   4.565   9.137 -0.0088  0.0976  0.0664
   56loPI   C3B  895  13.320   4.635   8.734 -0.1177 -0.1898  0.0387
   56loPI   C4B  896  13.195   4.640   8.292  0.0279 -0.1575  0.3055
   57loPI    C1  897   6.676   0.971  10.258  0.0943 -0.0126  0.0992
   57loPI    C2  898   6.575   0.805  10.607 -0.2086  0.1372  0.0856
   57loPI    C3  899   6.783   1.146  10.601  0.0176  0.0014  0.1161
   57loPI   PO4  900   6.376   1.100  10.089  0.1141  0.1469 -0.2430
   57loPI   GL1  901   6.254   0.721   9.800  0.1118  0.0257 -0.1230
   57loPI   GL2  902   6.482   0.392   9.746  0.0877 -0.1346 -0.1588
   57loPI   C1A  903   5.988   0.802   9.408 -0.1261 -0.3759 -0.4699
   57loPI   C2A  904   5.796   0.721   9.119 -0.1796  0.5292 -0.2607
   57loPI   C3A  905   5.919   0.571   8.625 -0.5435  0.0650 -0.1371
   57loPI   C4A  906   6.017   0.635   8.211 -0.2407  0.0508 -0.1771
   57loPI   C5A  907   6.081   0.698   7.717  0.0996  0.0211 -0.1373
   57loPI   C6A  908   6.226   0.816   7.325  0.0436 -0.2664  0.2686
   57loPI   C1B  909   6.331   0.397   9.334  0.1989 -0.1256 -0.1097
   57loPI   C2B  910   6.323   0.104   8.947 -0.0568  0.1636 -0.1507
   57loPI   C3B  911   6.280  -0.191   8.586  0.0586 -0.0001 -0.1066
   57loPI   C4B  912   6.288  -0.476   8.149  0.0150  0.2522  0.1559
   58loPI    C1  913   7.402   0.701   9.936 -0.0186  0.1870  0.0145
   58loPI    C2  914   7.754   0.812   9.779  0.0085 -0.1047 -0.1372
   58loPI    C3  915   7.744   0.590  10.112 -0.0317 -0.1145 -0.1448
   58loPI   PO4  916   7.134   0.757   9.808 -0.0411  0.0678 -0.0091
   58loPI   GL1  917   6.776   0.914   9.765 -0.0184  0.0465  0.1662
   58loPI   GL2  918   6.839   1.206   9.783 -0.1240 -0.2266  0.2405
   58loPI   C1A  919   6.433   0.884   9.297  0.0647  0.2056 -0.0451
   58loPI   C2A  920   6.290   0.736   8.869  0.1116  0.2558 -0.0095
   58loPI   C3A  921   6.277   0.918   8.518  0.0087 -0.2802  0.2452
   58loPI   C4A  922   6.417   0.912   8.125 -0.2784  0.1643 -0.0928
   58loPI   C5A  923   6.212   1.165   7.757 -0.0267 -0.1294  0.2644
   58loPI   C6A  924   5.902   1.618   7.664 -0.0081 -0.1568  0.1056
   58loPI   C1B  925   6.604   1.381   9.397 -0.1072  0.1491  0.2268
   58loPI   C2B  926   6.606   1.333   8.968  0.0864 -0.1595 -0.0279
   58loPI   C3B  927   6.751   1.489   8.623  0.0198  0.0355 -0.0274
   58loPI   C4B  928   6.728   1.430   8.185 -0.2143  0.1540 -0.1733
   59loPI    C1  929   3.777  15.454  10.675 -0.0315 -0.1464 -0.0780
   59loPI    C2  930   3.649  15.745  10.918 -0.0214 -0.0527 -0.1835
   59loPI    C3  931   3.548  15.364  10.990  0.0689 -0.0381  0.0265
   59loPI   PO4  932   3.737  15.476  10.441  0.0417  0.1899 -0.0348
   59loPI   GL1  933   3.509  15.452  10.058 -0.0666  0.2152 -0.0524
   59loPI   GL2  934   3.372  15.092  10.096 -0.2874 -0.1371 -0.3671
   59loPI   C1A  935   3.709  15.191   9.671  0.1765  0.0328  0.1151
   59loPI   C2A  936   3.757  15.086   9.194  0.2090  0.1855  0.0938
   59loPI   C3A  937   3.738  15.193   8.807 -0.1693  0.1759  0.0587
   59loPI   C4A  938   3.620  15.039   8.429  0.0423  0.2986  0.1057
   59loPI   C5A  939   3.586  15.225   7.973 -0.0110  0.3492  0.3646
   59loPI   C6A  940   3.761  15.557   7.887  0.2767  0.5533  0.0754
   59loPI   C1B  941   3.319  14.955   9.745 -0.0879 -0.2652 -0.3315
   59loPI   C2B  942   3.284  15.009   9.399 -0.1684  0.0810 -0.0915
   59loPI   C3B  943   3.303  14.944   8.940 -0.1978  0.0595 -0.0781
   59loPI   C4B  944   3.234  14.796   8.597  0.0128 -0.1007 -0.1878
   60loPI    C1  945   4.829  10.614  10.769 -0.0253 -0.1139 -0.1514
   60loPI    C2  946   4.827  10.914  11.033 -0.2757 -0.0456 -0.2289
   60loPI    C3  947   4.908  10.542  11.155  0.2034  0.0751 -0.1609
   60loPI   PO4  948   4.820  10.747  10.538  0.0291  0.4162 -0.0335
   60loPI   GL1  949   5.241  10.858  10.259  0.2128  0.0275 -0.2848
   60loPI   GL2  950   5.383  11.136  10.186  0.0987  0.2156  0.2796
   60loPI   C1A  951   4.979  10.799   9.873  0.0780  0.1666 -0.4573
   60loPI   C2A  952   4.872  10.820   9.494  0.1627  0.0799  0.2459
   60loPI   C3A  953   4.901  10.721   9.114 -0.5112  0.1468 -0.2362
   60loPI   C4A  954   4.933  10.645   8.611 -0.3317 -0.2808  0.1554
   60loPI   C5A  955   5.023  10.301   8.278  0.1273 -0.1465  0.3047
   60loPI   C6A  956   4.814   9.940   8.206  0.1008  0.0207  0.1839
   60loPI   C1B  957   5.494  10.889   9.836  0.5598  0.0205 -0.1931
   60loPI   C2B  958   5.320  10.926   9.329 -0.0435  0.0609  0.1243
   60loPI   C3B  959   5.342  10.825   8.884  0.1626 -0.1376 -0.1218
   60loPI   C4B  960   5.453  11.053   8.505 -0.1851 -0.1835  0.0907
   61loPI    C1  961  15.394   4.845  10.170  0.0617  0.0010  0.0506
   61loPI    C2  962  15.222   4.882  10.529  0.2751 -0.0850  0.1633
   61loPI    C3  963  15.509   5.137  10.417  0.0604  0.0738 -0.0343
   61loPI   PO4  964  15.227   4.883   9.940 -0.4016  0.0061 -0.0618
   61loPI   GL1  965  15.100   5.079   9.639 -0.0531  0.0992  0.2911
   61loPI   GL2  966  15.310   4.846   9.453 -0.0040  0.1734 -0.3787
   61loPI   C1A  967  14.640   5.016   9.465  0.2455 -0.0176  0.0366
   61loPI   C2A  968  14.312   4.656   9.264 -0.0348  0.1823  0.3075
   61loPI   C3A  969  14.152   4.579   8.881  0.2492  0.1539 -0.2045
   61loPI   C4A  970  14.258   4.673   8.497  0.0234  0.1176 -0.2031
   61loPI   C5A  971  14.266   4.558   8.002  0.3543 -0.0052  0.2732
   61loPI   C6A  972  14.556   4.756   7.754 -0.0898 -0.0417 -0.2129
   61loPI   C1B  973  14.929   4.742   9.165  0.2214  0.1174 -0.1494
   61loPI   C2B  974  14.666   4.815   8.783 -0.0750  0.3118  0.2887
   61loPI   C3B  975  14.777   4.828   8.292 -0.3849 -0.4036 -0.1961
   61loPI   C4B  976  14.956   5.016   7.968  0.1686 -0.1424 -0.2091
   62loPI    C1  977  15.117   6.436  10.631 -0.0990 -0.1976 -0.0796
   62loPI    C2  978  14.786   6.487  10.849 -0.0195  0.0946 -0.0230
   62loPI    C3  979  15.142   6.465  11.030  0.0444  0.3179 -0.1181
   62loPI   PO4  980  15.036   6.506  10.437 -0.2928  0.0217  0.1160
   62loPI   GL1  981  15.106   6.552  10.141 -0.0186 -0.2372  0.0799
   62loPI   GL2  982  15.298   6.774   9.931  0.1764 -0.0705  0.0390
   62loPI   C1A  983  14.896   6.534   9.753  0.0616 -0.2281  0.3438
   62loPI   C2A  984  14.688   6.347   9.266 -0.0376 -0.2257 -0.1875
   62loPI   C3A  985  14.687   6.442   8.848 -0.0617  0.2442  0.3512
   62loPI   C4A  986  14.777   6.115   8.505  0.2118  0.2389 -0.0937
   62loPI   C5A  987  14.711   5.864   8.191  0.2426  0.0172 -0.0854
   62loPI   C6A  988  15.005   5.788   7.904  0.1017  0.1221  0.0834
   62loPI   C1B  989  15.204   6.776   9.470  0.3051 -0.4223  0.0501
   62loPI   C2B  990  15.230   6.760   8.996 -0.1075 -0.1625 -0.0008
   62loPI   C3B  991  15.074   6.538   8.575 -0.0965  0.1947  0.0262
   62loPI   C4B  992  14.798   6.553   8.315  0.1495 -0.1299  0.0279
   63loPI    C1  993  10.152   0.166  10.333  0.1114  0.0889  0.0947
   63loPI    C2  994  10.015  -0.190  10.453  0.2512 -0.0531 -0.1607
   63loPI    C3  995  10.075   0.101  10.720 -0.1950 -0.1060  0.0052
   63loPI   PO4  996  10.409   0.157  10.139  0.5140  0.1743  0.0673
   63loPI   GL1  997  10.675   0.350   9.876  0.2758  0.0320  0.0350
   63loPI   GL2  998  10.711   0.066   9.733 -0.0610  0.1539 -0.1646
   63loPI   C1A  999  10.544   0.367   9.435  0.2674  0.2863  0.0607
   63loPI   C2A 1000  10.741   0.361   9.008  0.1741 -0.2651 -0.2109
   63loPI   C3A 1001  10.661   0.330   8.584  0.3098  0.2217  0.3439
   63loPI   C4A 1002  10.326   0.321   8.269  0.3858 -0.3801  0.0905
   63loPI   C5A 1003   9.927   0.248   8.193 -0.1462 -0.0782  0.2121
   63loPI   C6A 1004   9.647   0.058   7.843  0.1529 -0.1012  0.2931
   63loPI   C1B 1005  10.884  -0.129   9.357 -0.2355 -0.2763  0.2525
   63loPI   C2B 1006  10.791  -0.147   8.858  0.2660 -0.0161  0.2830
   63loPI   C3B 1007  10.434  -0.166   8.501  0.2084 -0.0533 -0.2541
   63loPI   C4B 1008   9.976  -0.066   8.521  0.1922 -0.1649 -0.2480
   64loPI    C1 1009   8.487  11.152  10.361 -0.0232  0.1894  0.0074
   64loPI    C2 1010   8.265  11.056  10.680  0.0235 -0.0121 -0.0192
   64loPI    C3 1011   8.575  10.825  10.575  0.2608  0.2775  0.0296
   64loPI   PO4 1012   8.329  11.228  10.201  0.1417  0.1220  0.0963
   64loPI   GL1 1013   8.086  11.342   9.860  0.1844  0.0636 -0.0387
   64loPI   GL2 1014   8.273  11.457   9.769  0.3500 -0.0951  0.2618
   64loPI   C1A 1015   7.777  11.226   9.541  0.0818 -0.1225 -0.1204
   64loPI   C2A 1016   7.744  11.132   9.264 -0.1247  0.0879  0.0397
   64loPI   C3A 1017   7.694  11.071   8.782 -0.1271 -0.0712 -0.0663
   64loPI   C4A 1018   7.698  11.193   8.409 -0.1371  0.1176  0.1540
   64loPI   C5A 1019   7.535  11.039   8.034  0.1749  0.1573 -0.0281
   64loPI   C6A 1020   7.505  10.730   7.741 -0.1125 -0.0930 -0.0467
   64loPI   C1B 1021   8.187  11.400   9.318  0.2424  0.0869  0.0650
   64loPI   C2B 1022   8.170  11.351   8.912 -0.1313  0.1314 -0.1388
   64loPI   C3B 1023   8.250  11.457   8.384  0.1438 -0.3644 -0.1264
   64loPI   C4B 1024   7.972  11.379   7.999 -0.0991  0.3482  0.3003
   65loPI    C1 1025   4.571  16.122  10.644  0.0300  0.0175  0.0592
   65loPI    C2 1026   4.606  16.416  10.913 -0.1732  0.0078  0.0980
   65loPI    C3 1027   4.391  16.090  11.000 -0.2876  0.0299 -0.0971
   65loPI   PO4 1028   4.440  16.236  10.377 -0.0060  0.0466 -0.0579
   65loPI   GL1 1029   4.484  16.037   9.936  0.0540 -0.0822 -0.0914
   65loPI   GL2 1030   4.152  16.172   9.893  0.2012  0.1085 -0.1323
   65loPI   C1A 1031   4.319  15.883   9.579  0.1634  0.4694  0.2710
   65loPI   C2A 1032   4.082  15.842   9.248 -0.1616 -0.0654 -0.0680
   65loPI   C3A 1033   3.867  16.056   9.017 -0.2178  0.2760  0.0266
   65loPI   C4A 1034   3.698  16.129   8.660  0.0381  0.1643 -0.4253
   65loPI   C5A 1035   3.725  16.354   8.223 -0.0920  0.0450  0.0000
   65loPI   C6A 1036   3.557  16.560   7.851 -0.0027  0.0506  0.0163
   65loPI   C1B 1037   3.827  16.151   9.562 -0.4679 -0.3305 -0.1152
   65loPI   C2B 1038   3.334  16.064   9.402 -0.2622  0.1582 -0.0209
   65loPI   C3B 1039   3.301  15.994   9.100 -0.3421 -0.2685 -0.5129
   65loPI   C4B 1040   3.187  15.948   8.673 -0.2605 -0.0686 -0.0759
   66loPI    C1 1041   7.629   1.807  10.643 -0.1185  0.1940 -0.2137
   66loPI    C2 1042   7.760   1.941  10.996  0.0532 -0.0595 -0.1786
   66loPI    C3 1043   7.475   1.660  10.982 -0.1827  0.1790 -0.2491
   66loPI   PO4 1044   7.604   2.038  10.477  0.1427  0.1412 -0.0208
   66loPI   GL1 1045   7.870   2.400  10.307 -0.2952 -0.2077 -0.0413
   66loPI   GL2 1046   7.647   2.515  10.286  0.1279 -0.0317 -0.0130
   66loPI   C1A 1047   7.952   2.516   9.867  0.0021  0.1374 -0.3254
   66loPI   C2A 1048   7.907   2.363   9.573  0.1924 -0.4861 -0.0515
   66loPI   C3A 1049   7.823   2.425   9.211  0.0813 -0.0773 -0.1043
   66loPI   C4A 1050   7.876   2.553   8.771  0.1542  0.2039  0.0873
   66loPI   C5A 1051   7.957   2.327   8.346 -0.0799  0.0786 -0.1030
   66loPI   C6A 1052   7.953   2.041   7.982  0.0288 -0.2560 -0.0508
   66loPI   C1B 1053   7.407   2.559   9.919 -0.3221  0.1207 -0.0703
   66loPI   C2B 1054   7.459   2.668   9.462  0.0096  0.0510  0.2533
   66loPI   C3B 1055   7.358   2.771   9.097 -0.0317  0.1233 -0.0807
   66loPI   C4B 1056   7.456   2.852   8.650  0.2737 -0.3650 -0.0337
   67loPI    C1 1057  15.405   0.075  10.490 -0.2743  0.4300  0.0251
   67loPI    C2 1058  15.147  -0.128  10.719  0.0870 -0.2378 -0.1325
   67loPI    C3 1059  15.444   0.079  10.889 -0.1624 -0.0018  0.0243
   67loPI   PO4 1060  15.328  -0.021  10.266  0.1035  0.0597  0.0851
   67loPI   GL1 1061  15.322   0.192   9.808 -0.2173  0.0127  0.1698
   67loPI   GL2 1062  15.478  -0.066   9.678  0.0560 -0.0580  0.2333
   67loPI   C1A 1063  15.106   0.134   9.275  0.0011  0.3122 -0.5594
   67loPI   C2A 1064  15.084   0.169   8.913 -0.1293  0.1133 -0.2003
   67loPI   C3A 1065  14.787   0.298   8.567 -0.0549  0.0595 -0.1305
   67loPI   C4A 1066  14.904   0.384   8.217 -0.2544  0.0587 -0.1240
   67loPI   C5A 1067  15.024   0.366   7.720  0.0144  0.0782 -0.2270
   67loPI   C6A 1068  15.010   0.169   7.359 -0.3101  0.0723  0.0707
   67loPI   C1B 1069  15.755   0.054   9.326  0.2008 -0.2244  0.1429
   67loPI   C2B 1070  15.894   0.049   8.884  0.0474 -0.0352 -0.1599
   67loPI   C3B 1071  15.811   0.250   8.483  0.0498 -0.0817 -0.0070
   67loPI   C4B 1072  16.021   0.387   8.121  0.0307 -0.0271  0.2043
   68loPI    C1 1073   0.936   5.769  10.997 -0.1468 -0.0032  0.1919
   68loPI    C2 1074   1.091   5.869  11.352  0.0856  0.1600  0.0468
   68loPI    C3 1075   1.203   5.529  11.174 -0.0045  0.0954  0.1131
   68loPI   PO4 1076   1.005   6.011  10.772 -0.0343  0.0148  0.2267
   68loPI   GL1 1077   0.996   6.285  10.375  0.4134 -0.1625  0.1945
   68loPI   GL2 1078   1.166   6.092  10.066  0.4751  0.1519 -0.0967
   68loPI   C1A 1079   1.234   6.587  10.145  0.1335 -0.0784  0.2280
   68loPI   C2A 1080   1.104   6.612   9.725  0.1538 -0.0956  0.0149
   68loPI   C3A 1081   1.224   6.649   9.359  0.3076 -0.1488 -0.4295
   68loPI   C4A 1082   1.223   6.709   8.927  0.1144  0.1778 -0.4217
   68loPI   C5A 1083   1.170   6.805   8.458  0.1168 -0.0161 -0.2896
   68loPI   C6A 1084   1.281   7.137   8.100  0.1717  0.0579 -0.0748
   68loPI   C1B 1085   1.160   6.116   9.657 -0.1288  0.0416  0.0393
   68loPI   C2B 1086   1.136   6.120   9.164 -0.3501  0.2880  0.0089
   68loPI   C3B 1087   1.261   6.182   8.754 -0.1056 -0.1536 -0.1325
   68loPI   C4B 1088   1.022   5.921   8.421 -0.2296 -0.2785 -0.0754
   69loPI    C1 1089   5.020   1.588  10.052  0.1808  0.2163 -0.0091
   69loPI    C2 1090   4.769   1.647  10.358  0.0399 -0.0222 -0.0765
   69loPI    C3 1091   5.163   1.620  10.425  0.0242  0.0833  0.0634
   69loPI   PO4 1092   4.847   1.598   9.865 -0.0531 -0.1809 -0.3435
   69loPI   GL1 1093   4.783   1.832   9.536 -0.2317 -0.0241  0.2031
   69loPI   GL2 1094   4.795   2.112   9.484 -0.4013  0.2522  0.2537
   69loPI   C1A 1095   5.190   1.792   9.231 -0.1609 -0.0908  0.4011
   69loPI   C2A 1096   5.400   2.020   8.961  0.1861 -0.1677  0.0325
   69loPI   C3A 1097   5.505   2.287   8.585 -0.1037  0.0601 -0.0996
   69loPI   C4A 1098   5.671   2.276   8.208  0.1451 -0.4855  0.3136
   69loPI   C5A 1099   5.669   2.302   7.811  0.2012 -0.0357 -0.1820
   69loPI   C6A 1100   5.794   2.128   7.434  0.1896 -0.4024 -0.1420
   69loPI   C1B 1101   4.926   2.147   9.014 -0.1425 -0.0227 -0.3907
   69loPI   C2B 1102   4.984   2.199   8.523  0.0904 -0.2379 -0.2487
   69loPI   C3B 1103   5.221   2.054   8.070  0.1331  0.1695  0.1111
   69loPI   C4B 1104   5.509   1.847   7.833 -0.2999  0.1711 -0.0898
   70loPI    C1 1105   1.536  12.446  10.697  0.1092 -0.2029  0.1535
   70loPI    C2 1106   1.318  12.148  10.541  0.2653 -0.2925  0.1051
   70loPI    C3 1107   1.367  12.173  10.937 -0.2712  0.0313  0.1605
   70loPI   PO4 1108   1.744  12.450  10.567 -0.1776 -0.2039  0.0934
   70loPI   GL1 1109   1.944  12.461  10.183  0.0851  0.2657 -0.2501
   70loPI   GL2 1110   2.210  12.343   9.997 -0.3298  0.1451 -0.2656
   70loPI   C1A 1111   1.829  12.675   9.753 -0.2571  0.1537 -0.2972
   70loPI   C2A 1112   1.813  12.686   9.329 -0.1671 -0.1733  0.1614
   70loPI   C3A 1113   1.882  12.551   9.077  0.1460 -0.0926 -0.2124
   70loPI   C4A 1114   1.846  12.550   8.692  0.0486  0.0807 -0.0631
   70loPI   C5A 1115   1.852  12.663   8.198  0.3020  0.1523 -0.1567
   70loPI   C6A 1116   2.153  12.498   7.862  0.0488  0.0758  0.3046
   70loPI   C1B 1117   2.191  12.295   9.591 -0.0847  0.1688  0.1364
   70loPI   C2B 1118   2.297  12.342   9.118 -0.2867 -0.1204 -0.0283
   70loPI   C3B 1119   2.313  12.394   8.766  0.1869 -0.1373  0.0408
   70loPI   C4B 1120   2.307  12.328   8.285  0.1914 -0.2382 -0.0353
   71loPI    C1 1121  16.694  14.559  10.782  0.0540 -0.1877 -0.1395
   71loPI    C2 1122  16.763  14.372  11.129 -0.2117  0.4004  0.2463
   71loPI    C3 1123  16.388  14.422  11.000 -0.1013 -0.2055 -0.3656
   71loPI   PO4 1124  16.797  14.406  10.608  0.0974 -0.0449 -0.0212
   71loPI   GL1 1125  16.630  14.302  10.295  0.1306  0.0268 -0.1115
   71loPI   GL2 1126  16.448  14.458  10.110  0.1935  0.1006 -0.3942
   71loPI   C1A 1127  16.822  13.982   9.990  0.0289 -0.1952 -0.0566
   71loPI   C2A 1128  16.743  13.903   9.551  0.1700 -0.1338 -0.3599
   71loPI   C3A 1129  16.757  13.992   9.244  0.1662  0.0602  0.1362
   71loPI   C4A 1130  16.917  13.947   8.782 -0.3382 -0.1654 -0.2890
   71loPI   C5A 1131  17.164  13.730   8.480  0.1002  0.0709 -0.1399
   71loPI   C6A 1132  17.340  13.800   8.107  0.1845  0.1420 -0.1506
   71loPI   C1B 1133  16.555  14.636   9.757 -0.3956  0.2518 -0.6488
   71loPI   C2B 1134  16.642  14.497   9.340 -0.2162 -0.0795 -0.1381
   71loPI   C3B 1135  16.709  14.434   8.999  0.2343  0.1726 -0.0725
   71loPI   C4B 1136  16.866  14.476   8.608  0.1015  0.1374 -0.1155
   72loPI    C1 1137  12.404   8.180  10.533 -0.2975  0.2012 -0.1828
   72loPI    C2 1138  12.333   8.540  10.692  0.1024  0.2310 -0.0597
   72loPI    C3 1139  12.324   8.214  10.924 -0.2615  0.1568 -0.1714
   72loPI   PO4 1140  12.324   8.090  10.246 -0.1511  0.2773 -0.2761
   72loPI   GL1 1141  12.296   8.301   9.799  0.2131 -0.2277  0.0586
   72loPI   GL2 1142  12.614   8.253   9.823  0.1390  0.0437  0.1040
   72loPI   C1A 1143  12.157   8.311   9.355  0.0365 -0.2353  0.1892
   72loPI   C2A 1144  12.115   8.554   8.917  0.1328  0.2575 -0.0102
   72loPI   C3A 1145  12.185   8.639   8.509  0.0385  0.0489  0.2638
   72loPI   C4A 1146  12.035   8.673   8.097 -0.0677  0.1015  0.1105
   72loPI   C5A 1147  11.898   8.878   7.709  0.0359  0.0945 -0.2352
   72loPI   C6A 1148  11.651   9.211   7.575  0.0868 -0.1272 -0.0973
   72loPI   C1B 1149  12.610   8.288   9.388 -0.1589 -0.1310  0.0174
   72loPI   C2B 1150  12.555   8.333   8.934  0.0509 -0.2057 -0.0704
   72loPI   C3B 1151  12.642   8.493   8.524  0.1987 -0.0446 -0.2674
   72loPI   C4B 1152  12.563   8.592   8.168  0.2368 -0.0830  0.0445
   73loPI    C1 1153   7.413  15.057  10.419  0.0001  0.1990 -0.1030
   73loPI    C2 1154   7.361  15.427  10.563 -0.3262  0.1623 -0.1187
   73loPI    C3 1155   7.375  15.115  10.813  0.1586  0.2007 -0.0870
   73loPI   PO4 1156   7.639  15.089  10.170 -0.0741 -0.0631  0.0220
   73loPI   GL1 1157   7.845  14.900   9.888  0.0697  0.1904 -0.0391
   73loPI   GL2 1158   8.088  14.996   9.728  0.1586  0.1801 -0.1814
   73loPI   C1A 1159   7.720  15.021   9.431  0.1641  0.1018 -0.0053
   73loPI   C2A 1160   7.699  14.841   9.001 -0.0326 -0.0096 -0.1097
   73loPI   C3A 1161   7.660  14.818   8.584 -0.0107  0.1437  0.0777
   73loPI   C4A 1162   7.764  14.805   8.170  0.2816 -0.0376 -0.2595
   73loPI   C5A 1163   8.004  14.910   7.824  0.1987  0.0447  0.2004
   73loPI   C6A 1164   8.323  15.290   7.728  0.0428 -0.1014 -0.3038
   73loPI   C1B 1165   8.241  14.709   9.473  0.0412 -0.2101  0.0944
   73loPI   C2B 1166   8.177  14.642   9.068 -0.0441  0.2178  0.0454
   73loPI   C3B 1167   8.146  14.612   8.565 -0.0620 -0.3499  0.1951
   73loPI   C4B 1168   8.293  14.803   8.211  0.1120 -0.1438 -0.2209
   74loPI    C1 1169   1.414  12.886  10.877  0.2445 -0.0400  0.1111
   74loPI    C2 1170   1.104  12.902  11.129  0.1192 -0.0764 -0.0399
   74loPI    C3 1171   1.383  12.620  11.174  0.2203  0.0593  0.1981
   74loPI   PO4 1172   1.312  12.985  10.603 -0.0132 -0.2508  0.0852
   74loPI   GL1 1173   1.319  12.829  10.250  0.0231  0.3305  0.1516
   74loPI   GL2 1174   1.395  12.573  10.281 -0.0326  0.3651 -0.0654
   74loPI   C1A 1175   1.505  13.007   9.927 -0.4300  0.0775 -0.1298
   74loPI   C2A 1176   1.328  12.968   9.490 -0.0662  0.3381  0.1600
   74loPI   C3A 1177   1.463  12.873   9.038 -0.1527 -0.3433  0.3632
   74loPI   C4A 1178   1.419  12.832   8.540 -0.1535  0.3362  0.2528
   74loPI   C5A 1179   1.317  12.766   8.170  0.2082  0.2641  0.3177
   74loPI   C6A 1180   0.934  12.486   8.113 -0.0104 -0.0984 -0.0345
   74loPI   C1B 1181   1.338  12.502   9.816 -0.2637 -0.1587 -0.0058
   74loPI   C2B 1182   1.293  12.389   9.433 -0.2219 -0.1693  0.0806
   74loPI   C3B 1183   1.387  12.406   9.078  0.1277  0.1147 -0.0548
   74loPI   C4B 1184   1.416  12.284   8.650 -0.3655 -0.0428 -0.2829
   75loPI    C1 1185   5.146   5.320  11.119 -0.1438  0.0377  0.1291
   75loPI    C2 1186   5.316   5.006  11.299 -0.0916 -0.0208 -0.0206
   75loPI    C3 1187   5.187   5.316  11.517 -0.0967 -0.1229  0.1233
   75loPI   PO4 1188   5.158   5.275  10.866  0.0599  0.1994 -0.0334
   75loPI   GL1 1189   5.218   5.421  10.390 -0.2489  0.0299  0.1951
   75loPI   GL2 1190   5.082   5.197  10.117  0.4734 -0.1493 -0.1203
   75loPI   C1A 1191   5.172   5.643   9.947  0.0596 -0.2461 -0.1148
   75loPI   C2A 1192   5.175   5.763   9.542 -0.0327  0.0858  0.0635
   75loPI   C3A 1193   5.318   5.812   9.090  0.0947 -0.1632  0.2837
   75loPI   C4A 1194   5.247   5.709   8.694 -0.1450 -0.1812  0.1562
   75loPI   C5A 1195   5.217   5.795   8.244  0.1428 -0.1855  0.3466
   75loPI   C6A 1196   5.125   5.633   7.830 -0.0400 -0.1198 -0.0186
   75loPI   C1B 1197   5.112   5.248   9.625  0.3704  0.1043  0.4114
   75loPI   C2B 1198   5.185   5.332   9.245  0.2313  0.0768  0.1641
   75loPI   C3B 1199   5.264   5.265   8.838  0.1222 -0.1696 -0.1047
   75loPI   C4B 1200   5.239   5.166   8.450 -0.2974  0.1066  0.2763
   76loPI    C1 1201  11.641   6.033  10.580  0.1984  0.0175 -0.1361
   76loPI    C2 1202  11.514   5.753  10.836 -0.2149  0.1001 -0.2441
   76loPI    C3 1203  11.824   5.987  10.933 -0.1999 -0.0438  0.0680
   76loPI   PO4 1204  11.616   5.907  10.319 -0.1343  0.1626 -0.1213
   76loPI   GL1 1205  11.744   5.961   9.873  0.0804  0.1957  0.0347
   76loPI   GL2 1206  12.090   5.842   9.849  0.2434  0.1670  0.2826
   76loPI   C1A 1207  11.566   6.118   9.507  0.3723  0.1003 -0.1608
   76loPI   C2A 1208  11.615   6.183   9.093  0.0322 -0.3829  0.3361
   76loPI   C3A 1209  11.577   6.090   8.630 -0.2709 -0.0799 -0.3036
   76loPI   C4A 1210  11.559   6.152   8.174  0.2402 -0.2067  0.0608
   76loPI   C5A 1211  11.292   6.493   8.000  0.2152  0.1942 -0.1284
   76loPI   C6A 1212  11.197   6.545   7.606 -0.2114 -0.1004 -0.1627
   76loPI   C1B 1213  12.015   5.855   9.415  0.1063  0.2728  0.0432
   76loPI   C2B 1214  12.070   5.907   8.834  0.1183 -0.0148 -0.1119
   76loPI   C3B 1215  11.982   5.889   8.420  0.1219  0.1475 -0.1569
   76loPI   C4B 1216  12.029   5.975   7.977 -0.0649 -0.0099  0.1772
   77loPI    C1 1217   3.553  17.281  10.409 -0.1951  0.1136 -0.0251
   77loPI    C2 1218   3.264  17.427  10.644 -0.1887 -0.1087  0.1241
   77loPI    C3 1219   3.647  17.454  10.757 -0.1689 -0.0285  0.0393
   77loPI   PO4 1220   3.519  17.393  10.168  0.2052  0.2353 -0.1114
   77loPI   GL1 1221   3.331  17.241   9.817 -0.2365  0.2408  0.0306
   77loPI   GL2 1222   3.505  16.998   9.788 -0.0929 -0.0177 -0.1625
   77loPI   C1A 1223   2.952  17.295   9.621 -0.1817  0.0070 -0.1297
   77loPI   C2A 1224   2.944  17.266   9.103 -0.0990  0.3369 -0.2802
   77loPI   C3A 1225   2.804  17.150   8.726  0.1880 -0.1954  0.1279
   77loPI   C4A 1226   2.803  16.676   8.473 -0.2144 -0.1000 -0.0887
   77loPI   C5A 1227   2.773  16.769   8.057 -0.0117 -0.0779  0.3754
   77loPI   C6A 1228   3.125  16.660   7.666 -0.1050 -0.0556 -0.3651
   77loPI   C1B 1229   3.671  17.014   9.353  0.1164  0.0678  0.0516
   77loPI   C2B 1230   3.506  17.226   8.945 -0.0296 -0.1465  0.0992
   77loPI   C3B 1231   3.342  17.186   8.641  0.1057 -0.0866  0.3332
   77loPI   C4B 1232   3.207  16.959   8.274  0.1141 -0.1408 -0.1139
   78loPI    C1 1233   5.318  12.351  10.627  0.0946  0.0574 -0.3023
   78loPI    C2 1234   5.186  12.450  10.992  0.0464 -0.1694 -0.2567
   78loPI    C3 1235   5.570  12.507  10.896 -0.0125  0.2039 -0.2855
   78loPI   PO4 1236   5.192  12.160  10.576  0.2459 -0.0287  0.1975
   78loPI   GL1 1237   5.164  12.088  10.183 -0.2192  0.3329  0.2956
   78loPI   GL2 1238   5.322  12.358  10.021 -0.1636  0.1089  0.0738
   78loPI   C1A 1239   4.949  12.200   9.794  0.2110  0.0158  0.0142
   78loPI   C2A 1240   4.944  12.288   9.318  0.1077  0.0763  0.0458
   78loPI   C3A 1241   4.903  12.257   8.906 -0.2608  0.1096 -0.2377
   78loPI   C4A 1242   4.936  12.328   8.472  0.0598  0.3825  0.0353
   78loPI   C5A 1243   5.026  12.076   8.134  0.2986 -0.1272 -0.2341
   78loPI   C6A 1244   5.370  11.885   7.946  0.3717 -0.1607 -0.1420
   78loPI   C1B 1245   5.305  12.550   9.654  0.1782 -0.0334 -0.0491
   78loPI   C2B 1246   5.448  12.532   9.259 -0.2155 -0.2532 -0.1595
   78loPI   C3B 1247   5.432  12.549   8.792  0.2153  0.1480  0.0221
   78loPI   C4B 1248   5.350  12.583   8.398 -0.2644  0.1054  0.1604
   79loPI    C1 1249  10.368  14.774  10.391  0.2392  0.3253 -0.1065
   79loPI    C2 1250  10.565  14.686  10.727  0.1233 -0.1456 -0.1546
   79loPI    C3 1251  10.238  14.916  10.741  0.3873  0.2304 -0.0123
   79loPI   PO4 1252  10.550  14.860  10.250 -0.1781 -0.2467  0.0427
   79loPI   GL1 1253  10.636  14.653   9.945 -0.0833 -0.0276  0.4838
   79loPI   GL2 1254  10.528  14.411   9.830  0.0219 -0.4661  0.1291
   79loPI   C1A 1255  10.841  14.748   9.552 -0.0612  0.0882  0.1178
   79loPI   C2A 1256  10.935  14.598   9.133  0.0864 -0.2606  0.1853
   79loPI   C3A 1257  10.932  14.768   8.799 -0.0691  0.1796  0.2084
   79loPI   C4A 1258  10.944  14.720   8.364  0.1205 -0.4375 -0.0142
   79loPI   C5A 1259  10.862  14.957   7.951 -0.0654  0.0219  0.0872
   79loPI   C6A 1260  10.967  15.053   7.551  0.0913 -0.0369 -0.0191
   79loPI   C1B 1261  10.320  14.445   9.388 -0.0048  0.0723  0.0277
   79loPI   C2B 1262  10.445  14.392   8.952  0.2670 -0.3313  0.0773
   79loPI   C3B 1263  10.576  14.375   8.536  0.0616  0.0601 -0.4592
   79loPI   C4B 1264  10.435  14.536   8.271 -0.0513  0.1384  0.0325
   80loPI    C1 1265  18.444   4.353  10.476  0.0411  0.1811  0.0029
   80loPI    C2 1266  18.526   4.558  10.809  0.1887  0.0864  0.0262
   80loPI    C3 1267  18.587   4.163  10.798  0.1236  0.0793 -0.0925
   80loPI   PO4 1268  18.467   4.600  10.276  0.2546  0.2104 -0.2842
   80loPI   GL1 1269  18.755   4.907  10.205 -0.3639  0.2350  0.1143
   80loPI   GL2 1270  18.429   5.002   9.973  0.3344  0.2172 -0.3836
   80loPI   C1A 1271  18.815   5.087   9.720  0.0950 -0.0180  0.1604
   80loPI   C2A 1272  18.822   4.984   9.293 -0.1676  0.1305  0.0464
   80loPI   C3A 1273  18.811   5.086   8.912  0.0821 -0.1366  0.3764
   80loPI   C4A 1274  18.775   4.914   8.605  0.1835 -0.1252 -0.2291
   80loPI   C5A 1275  18.903   4.956   8.234 -0.3866 -0.1019  0.3532
   80loPI   C6A 1276  19.228   5.012   8.017 -0.0996  0.2356  0.0445
   80loPI   C1B 1277  18.289   5.391   9.660 -0.1253  0.0325  0.0707
   80loPI   C2B 1278  18.331   5.371   9.220  0.1502  0.0332  0.0793
   80loPI   C3B 1279  18.325   5.244   8.767 -0.2214 -0.1047  0.2867
   80loPI   C4B 1280  18.389   5.437   8.463 -0.0070 -0.1131  0.0008
   81loPI    C1 1281   0.717  18.153  10.087 -0.1186  0.0908 -0.0344
   81loPI    C2 1282   0.786  17.790   9.935  0.2906  0.1110  0.0931
   81loPI    C3 1283   0.661  17.828  10.313 -0.0206  0.0937 -0.0056
   81loPI   PO4 1284   0.841  18.266   9.957 -0.1171  0.1165  0.2891
   81loPI   GL1 1285   0.800  18.431   9.557 -0.1497 -0.1175  0.1167
   81loPI   GL2 1286   1.048  18.667   9.629  0.0566  0.3366  0.1264
   81loPI   C1A 1287   0.573  18.504   9.196 -0.0642 -0.3506  0.1519
   81loPI   C2A 1288   0.555  18.469   8.793  0.1279 -0.1837  0.0155
   81loPI   C3A 1289   0.806  18.261   8.414 -0.4422 -0.4721 -0.2591
   81loPI   C4A 1290   0.814  18.059   7.991 -0.0449 -0.2800 -0.0942
   81loPI   C5A 1291   1.054  18.170   7.703 -0.1625 -0.2362  0.3127
   81loPI   C6A 1292   1.505  18.137   7.704 -0.1076 -0.0512  0.1254
   81loPI   C1B 1293   1.227  18.605   9.223  0.0773  0.0690 -0.1952
   81loPI   C2B 1294   1.376  18.610   8.844 -0.0427  0.0300  0.0069
   81loPI   C3B 1295   1.353  18.600   8.382  0.0041  0.0589  0.0724
   81loPI   C4B 1296   1.468  18.735   8.045 -0.1921  0.1123  0.2863
   82loPI    C1 1297  10.525   9.925  10.818  0.1506  0.1444  0.2089
   82loPI    C2 1298  10.195   9.847  11.030  0.0193  0.4986  0.1421
   82loPI    C3 1299  10.525   9.978  11.214  0.1750  0.0078  0.2277
   82loPI   PO4 1300  10.351  10.089  10.623  0.1335  0.1676  0.3980
   82loPI   GL1 1301  10.491  10.130  10.128  0.1931  0.1149  0.0756
   82loPI   GL2 1302  10.700  10.299  10.035 -0.3207  0.3466  0.1966
   82loPI   C1A 1303  10.429   9.853   9.816  0.1530 -0.0683 -0.3122
   82loPI   C2A 1304  10.375   9.577   9.452 -0.1486 -0.0230  0.0051
   82loPI   C3A 1305  10.389   9.560   8.981 -0.0610 -0.0650 -0.2964
   82loPI   C4A 1306  10.231   9.602   8.551 -0.0043  0.3553 -0.0008
   82loPI   C5A 1307  10.325   9.634   8.006  0.1705  0.1234 -0.0410
   82loPI   C6A 1308  10.573   9.737   7.691  0.0553 -0.1490 -0.2518
   82loPI   C1B 1309  10.680  10.441   9.613  0.0481 -0.1752 -0.1148
   82loPI   C2B 1310  10.567  10.770   9.311 -0.0294 -0.1890 -0.0679
   82loPI   C3B 1311  10.460  10.747   8.858 -0.0484  0.2068  0.2869
   82loPI   C4B 1312  10.373  10.720   8.503  0.3353 -0.2792 -0.0187
   83loPI    C1 1313   2.650   3.168  10.535  0.1793  0.1077  0.2197
   83loPI    C2 1314   2.738   2.803  10.398 -0.1861  0.0365  0.1637
   83loPI    C3 1315   2.913   2.939  10.730  0.0904 -0.1145  0.0831
   83loPI   PO4 1316   2.657   3.283  10.298 -0.2333 -0.2035 -0.2735
   83loPI   GL1 1317   2.903   3.359   9.868  0.0510  0.0774 -0.4197
   83loPI   GL2 1318   3.054   3.204   9.624 -0.0034  0.1019 -0.1298
   83loPI   C1A 1319   2.551   3.231   9.484 -0.0608  0.0160  0.1603
   83loPI   C2A 1320   2.467   3.314   9.055 -0.0729  0.2752 -0.0364
   83loPI   C3A 1321   2.491   3.175   8.644 -0.2507  0.1772  0.0826
   83loPI   C4A 1322   2.604   3.148   8.220  0.1931  0.3526 -0.0396
   83loPI   C5A 1323   2.978   3.230   8.098  0.0031  0.2379  0.1877
   83loPI   C6A 1324   3.211   3.054   7.701 -0.1739  0.2325  0.0027
   83loPI   C1B 1325   3.351   3.370   9.318 -0.1300  0.0965  0.0885
   83loPI   C2B 1326   3.389   3.242   8.923 -0.3337  0.3282  0.0484
   83loPI   C3B 1327   3.515   3.112   8.461  0.0334  0.0339  0.0486
   83loPI   C4B 1328   3.696   2.957   8.097  0.2439 -0.0306 -0.0571
   84loPI    C1 1329  15.484  12.345  10.653  0.0719 -0.1208  0.1251
   84loPI    C2 1330  15.135  12.395  10.841  0.1026 -0.3028  0.2328
   84loPI    C3 1331  15.476  12.513  11.016  0.0750  0.1157  0.0177
   84loPI   PO4 1332  15.349  12.086  10.491  0.1042 -0.0192 -0.1885
   84loPI   GL1 1333  15.316  11.941  10.100  0.0760  0.0781 -0.1992
   84loPI   GL2 1334  15.614  11.919  10.095  0.2223  0.1166 -0.0053
   84loPI   C1A 1335  15.149  12.142   9.798 -0.0970 -0.2947  0.0935
   84loPI   C2A 1336  15.226  12.190   9.332  0.0765  0.4418 -0.1493
   84loPI   C3A 1337  15.283  12.321   8.851 -0.2211  0.3266  0.0001
   84loPI   C4A 1338  15.472  12.247   8.460  0.0130  0.1892  0.3006
   84loPI   C5A 1339  15.737  12.448   8.020  0.3305  0.0114 -0.0172
   84loPI   C6A 1340  16.024  12.234   7.781 -0.1851 -0.2161  0.1055
   84loPI   C1B 1341  15.596  12.027   9.635 -0.2066 -0.2344 -0.0821
   84loPI   C2B 1342  15.673  11.900   9.251 -0.1643 -0.1481  0.1092
   84loPI   C3B 1343  15.705  11.955   8.856  0.3055 -0.0174  0.0618
   84loPI   C4B 1344  15.763  11.858   8.481  0.0712 -0.0356  0.0104
   85loPI    C1 1345   2.221  13.567  10.751 -0.0443 -0.0014  0.2056
   85loPI    C2 1346   2.202  13.171  10.697  0.1600 -0.0082  0.1766
   85loPI    C3 1347   2.516  13.332  10.885  0.0900  0.1427  0.1655
   85loPI   PO4 1348   2.179  13.622  10.448 -0.3483 -0.0981  0.2723
   85loPI   GL1 1349   1.976  13.580  10.061 -0.0966 -0.2585 -0.3655
   85loPI   GL2 1350   1.794  13.359   9.979 -0.1339  0.1963  0.3559
   85loPI   C1A 1351   1.866  13.783   9.674 -0.1342 -0.4371  0.1566
   85loPI   C2A 1352   1.877  13.663   9.203  0.1195  0.1390 -0.2105
   85loPI   C3A 1353   1.818  13.595   8.787  0.0041  0.1569 -0.2502
   85loPI   C4A 1354   1.729  13.586   8.393 -0.2698  0.0337 -0.2610
   85loPI   C5A 1355   1.636  13.738   7.993 -0.1497  0.0707 -0.1928
   85loPI   C6A 1356   1.842  13.768   7.630  0.1391  0.0350 -0.3707
   85loPI   C1B 1357   1.830  13.241   9.479  0.0143  0.1202  0.1470
   85loPI   C2B 1358   1.845  13.194   9.058  0.1008  0.3387  0.1618
   85loPI   C3B 1359   1.833  13.098   8.642 -0.1824 -0.2846  0.2017
   85loPI   C4B 1360   1.755  13.126   8.175 -0.0795  0.1199  0.4433
   86loPI    C1 1361  12.325   2.271  10.621  0.2537  0.1511 -0.0892
   86loPI    C2 1362  12.491   2.632  10.664  0.0354  0.2295  0.1196
   86loPI    C3 1363  12.540   2.354  10.947  0.0553  0.1536  0.0424
   86loPI   PO4 1364  12.443   2.272  10.327 -0.1225 -0.4031 -0.0535
   86loPI   GL1 1365  12.427   2.068   9.974  0.0559  0.1365 -0.1228
   86loPI   GL2 1366  12.223   2.452   9.917  0.3992  0.1764  0.0231
   86loPI   C1A 1367  12.521   1.879   9.589 -0.0899  0.1246  0.2430
   86loPI   C2A 1368  12.440   1.944   9.220 -0.2642  0.0103 -0.3677
   86loPI   C3A 1369  12.303   1.794   8.770  0.0494 -0.0657  0.2442
   86loPI   C4A 1370  12.303   1.813   8.248  0.0575 -0.3926 -0.0603
   86loPI   C5A 1371  12.270   1.565   7.817  0.1400  0.0696  0.2390
   86loPI   C6A 1372  12.141   1.667   7.500 -0.1568 -0.0565  0.0101
   86loPI   C1B 1373  12.172   2.260   9.544 -0.1402 -0.1987 -0.3019
   86loPI   C2B 1374  12.083   2.344   9.152  0.2068 -0.0264  0.0870
   86loPI   C3B 1375  12.126   2.335   8.744 -0.0541  0.3785 -0.0298
   86loPI   C4B 1376  12.200   2.280   8.233 -0.3062 -0.0498  0.0026
   87loPI    C1 1377  16.821   3.343  10.302 -0.0207  0.0689 -0.1305
   87loPI    C2 1378  16.971   3.084  10.567 -0.2166  0.0214 -0.0640
   87loPI    C3 1379  16.983   3.477  10.642  0.2394  0.0482 -0.2438
   87loPI   PO4 1380  16.841   3.181  10.053 -0.1205  0.2966 -0.1602
   87loPI   GL1 1381  16.903   3.122   9.638  0.0751 -0.2796 -0.0866
   87loPI   GL2 1382  17.035   2.792   9.731  0.1159 -0.0151  0.3225
   87loPI   C1A 1383  16.832   3.061   9.135 -0.1577  0.0082 -0.0561
   87loPI   C2A 1384  16.933   3.005   8.755 -0.0470  0.0607 -0.1531
   87loPI   C3A 1385  17.040   2.779   8.474 -0.1976 -0.1254  0.0466
   87loPI   C4A 1386  17.177   2.757   8.126 -0.1449 -0.4070  0.0497
   87loPI   C5A 1387  17.373   2.614   7.774 -0.0535  0.0388 -0.4000
   87loPI   C6A 1388  17.619   2.610   7.399  0.1100  0.2984  0.3070
   87loPI   C1B 1389  17.276   2.827   9.292 -0.0657 -0.1360  0.1594
   87loPI   C2B 1390  17.649   2.905   8.878  0.0280 -0.0247 -0.2715
   87loPI   C3B 1391  17.560   2.858   8.451  0.0598  0.2647  0.1167
   87loPI   C4B 1392  17.794   2.815   7.987 -0.2468 -0.0423 -0.4350
   88loPI    C1 1393   8.614  10.132  10.805 -0.1407 -0.0118 -0.2127
   88loPI    C2 1394   8.724  10.433  11.044 -0.0304 -0.0255 -0.2455
   88loPI    C3 1395   8.904  10.077  11.074 -0.3058 -0.1535 -0.0611
   88loPI   PO4 1396   8.558  10.293  10.579 -0.0476 -0.2584  0.3451
   88loPI   GL1 1397   8.590  10.551  10.126  0.1154 -0.3779 -0.2107
   88loPI   GL2 1398   8.366  10.802   9.918 -0.2194  0.1317 -0.0024
   88loPI   C1A 1399   8.699  10.193   9.755  0.4145 -0.1543 -0.1493
   88loPI   C2A 1400   8.671  10.150   9.347 -0.1158 -0.4606 -0.0572
   88loPI   C3A 1401   8.623  10.120   8.875 -0.1188 -0.1912  0.1245
   88loPI   C4A 1402   8.579  10.148   8.398  0.0316  0.1618 -0.0522
   88loPI   C5A 1403   8.803   9.960   8.120  0.1194  0.0196 -0.0303
   88loPI   C6A 1404   8.712   9.660   7.767  0.2367 -0.1619  0.2468
   88loPI   C1B 1405   8.158  10.883   9.436  0.1727 -0.0005 -0.6007
   88loPI   C2B 1406   8.144  10.889   8.989 -0.0854 -0.0400 -0.1651
   88loPI   C3B 1407   8.099  10.908   8.543  0.0535 -0.0225 -0.1761
   88loPI   C4B 1408   8.268  10.899   8.154  0.2030  0.0728 -0.0150
   89loPI    C1 1409   1.831  15.875  10.471  0.0793 -0.1281  0.2661
   89loPI    C2 1410   1.859  15.934  10.866  0.0832  0.1900  0.2212
   89loPI    C3 1411   1.698  16.216  10.633  0.1714  0.0461 -0.0179
   89loPI   PO4 1412   2.075  15.839  10.400  0.0631 -0.1813  0.2513
   89loPI   GL1 1413   2.306  16.009  10.005  0.0624 -0.0086 -0.1714
   89loPI   GL2 1414   2.438  16.283   9.972 -0.0856  0.0086 -0.0440
   89loPI   C1A 1415   2.418  15.677   9.700  0.0858  0.1608  0.2413
   89loPI   C2A 1416   2.464  15.603   9.302  0.0886  0.3258  0.0408
   89loPI   C3A 1417   2.348  15.508   8.835 -0.1518 -0.0744  0.2969
   89loPI   C4A 1418   2.214  15.320   8.386 -0.2571  0.1374 -0.2424
   89loPI   C5A 1419   2.274  15.271   7.987  0.2686  0.0771  0.1031
   89loPI   C6A 1420   2.235  14.900   7.875 -0.3443  0.1957 -0.1703
   89loPI   C1B 1421   2.411  16.150   9.531 -0.0700  0.5513  0.0630
   89loPI   C2B 1422   2.430  16.086   9.104  0.2445 -0.1018 -0.0250
   89loPI   C3B 1423   2.349  15.987   8.699  0.2056 -0.3291  0.1876
   89loPI   C4B 1424   2.465  15.846   8.220 -0.0409  0.1529  0.1363
   90loPI    C1 1425  17.542  18.118  10.066  0.1259 -0.1451 -0.1547
   90loPI    C2 1426  17.369  18.395   9.834  0.0255 -0.0716  0.0066
   90loPI    C3 1427  17.287  18.382  10.226  0.4093 -0.0155  0.0925
   90loPI   PO4 1428  17.460  17.868   9.865 -0.3431 -0.0163 -0.2171
   90loPI   GL1 1429  17.734  17.568   9.523 -0.0729  0.2779  0.0297
   90loPI   GL2 1430  17.802  17.227   9.551 -0.0678  0.2445 -0.0688
   90loPI   C1A 1431  17.771  17.685   9.124 -0.1471 -0.0221  0.0486
   90loPI   C2A 1432  17.844  17.698   8.765 -0.0872  0.0578  0.0368
   90loPI   C3A 1433  17.812  17.652   8.323 -0.0115 -0.0178 -0.0948
   90loPI   C4A 1434  17.583  17.875   8.065 -0.2306  0.1667 -0.0352
   90loPI   C5A 1435  17.601  18.306   7.878 -0.0724  0.1474  0.3784
   90loPI   C6A 1436  17.510  18.676   7.798 -0.0608 -0.2622  0.0747
   90loPI   C1B 1437  17.904  17.132   9.115  0.0875  0.0010  0.1043
   90loPI   C2B 1438  17.871  17.202   8.713  0.4127 -0.1087 -0.3515
   90loPI   C3B 1439  17.899  17.077   8.192 -0.3302  0.0136 -0.2629
   90loPI   C4B 1440  17.769  17.002   7.737  0.1791  0.0579 -0.2361
   91loPI    C1 1441  16.084  10.107  10.463 -0.2204  0.0915 -0.0240
   91loPI    C2 1442  16.016   9.849  10.761 -0.0151  0.1022  0.0336
   91loPI    C3 1443  16.094  10.232  10.843 -0.0494  0.1249 -0.0388
   91loPI   PO4 1444  16.186  10.031  10.239  0.0378 -0.0582 -0.2017
   91loPI   GL1 1445  16.429   9.826   9.977  0.0479  0.0274  0.2056
   91loPI   GL2 1446  16.817   9.792  10.157 -0.0466  0.2114 -0.3075
   91loPI   C1A 1447  16.501   9.674   9.514 -0.3560  0.0122  0.1108
   91loPI   C2A 1448  16.578   9.695   9.120  0.2211  0.0411  0.0913
   91loPI   C3A 1449  16.604   9.731   8.714  0.2141  0.4104 -0.1470
   91loPI   C4A 1450  16.471   9.745   8.314  0.0324 -0.2904 -0.0250
   91loPI   C5A 1451  16.034   9.898   8.154  0.0526 -0.0156  0.0328
   91loPI   C6A 1452  15.740  10.184   8.023  0.1458  0.1552  0.0381
   91loPI   C1B 1453  16.874   9.801   9.777  0.1022 -0.4122 -0.2265
   91loPI   C2B 1454  16.887   9.998   9.363 -0.1060  0.2123 -0.3327
   91loPI   C3B 1455  17.084   9.931   9.076 -0.1563 -0.0729  0.2496
   91loPI   C4B 1456  17.149   9.854   8.605 -0.0044 -0.1457  0.0431
   92loPI    C1 1457  13.357  12.573  10.428 -0.1250  0.2954  0.1030
   92loPI    C2 1458  13.368  12.836  10.729 -0.1183  0.1563  0.2254
   92loPI    C3 1459  13.138  12.510  10.757 -0.1920  0.1911  0.0388
   92loPI   PO4 1460  13.359  12.696  10.231  0.1217  0.5965 -0.3828
   92loPI   GL1 1461  13.409  12.682   9.773  0.1524 -0.0027  0.0420
   92loPI   GL2 1462  13.456  12.989   9.805 -0.0828  0.2169  0.2202
   92loPI   C1A 1463  13.102  12.599   9.390 -0.2227  0.1386  0.0749
   92loPI   C2A 1464  13.057  12.548   8.894 -0.1416  0.1096  0.1864
   92loPI   C3A 1465  13.354  12.317   8.771 -0.2176 -0.1077 -0.2521
   92loPI   C4A 1466  13.470  12.100   8.496  0.0183 -0.0787 -0.1620
   92loPI   C5A 1467  13.747  11.776   8.448 -0.3290 -0.0996 -0.3252
   92loPI   C6A 1468  13.734  11.487   8.159 -0.0113  0.0953  0.1494
   92loPI   C1B 1469  13.379  13.015   9.274  0.2644 -0.0561  0.0069
   92loPI   C2B 1470  13.401  13.087   8.941 -0.1171  0.2259  0.2174
   92loPI   C3B 1471  13.536  13.119   8.561  0.1212  0.0761 -0.1207
   92loPI   C4B 1472  13.743  13.168   8.295  0.1339  0.1012 -0.1310
   93loPI    C1 1473  17.251   9.608  10.574 -0.0243 -0.1266 -0.0314
   93loPI    C2 1474  16.968   9.854  10.712  0.0684  0.1295 -0.2869
   93loPI    C3 1475  17.240   9.702  10.963 -0.1834  0.0251 -0.0715
   93loPI   PO4 1476  17.275   9.697  10.363 -0.1265 -0.0915 -0.0403
   93loPI   GL1 1477  17.479  10.124  10.227 -0.2195  0.0640  0.2871
   93loPI   GL2 1478  17.131  10.173  10.373 -0.1068 -0.0859  0.0341
   93loPI   C1A 1479  17.518  10.173   9.696 -0.0174 -0.3177  0.0625
   93loPI   C2A 1480  17.472  10.222   9.230  0.3248  0.0260 -0.1906
   93loPI   C3A 1481  17.532  10.049   8.881 -0.1585 -0.2171  0.0397
   93loPI   C4A 1482  17.610  10.257   8.525 -0.2546  0.0040  0.1722
   93loPI   C5A 1483  17.677  10.342   8.068  0.0221  0.1640 -0.3302
   93loPI   C6A 1484  17.697  10.717   7.933 -0.1412 -0.4109 -0.0025
   93loPI   C1B 1485  17.069  10.276   9.873  0.2156  0.0595 -0.0764
   93loPI   C2B 1486  16.985  10.485   9.433  0.1942  0.2176 -0.2535
   93loPI   C3B 1487  17.035  10.481   9.086  0.0713  0.2828 -0.3281
   93loPI   C4B 1488  17.119  10.342   8.758  0.0013 -0.0974 -0.2067
   94loPI    C1 1489   7.587  10.738  10.485  0.4859 -0.0579  0.2035
   94loPI    C2 1490   7.451  10.424  10.691  0.1119 -0.2159 -0.2662
   94loPI    C3 1491   7.484  10.781  10.869 -0.3437 -0.3119  0.0299
   94loPI   PO4 1492   7.526  10.732  10.229  0.1660 -0.3353 -0.1257
   94loPI   GL1 1493   7.192  10.574   9.975  0.2047  0.2219 -0.0553
   94loPI   GL2 1494   7.397  10.903   9.732 -0.0454  0.2844  0.2169
   94loPI   C1A 1495   7.283  10.436   9.538  0.1048  0.1457 -0.1555
   94loPI   C2A 1496   7.267  10.410   9.138 -0.3050 -0.0860  0.2114
   94loPI   C3A 1497   7.254  10.396   8.730  0.2433 -0.0438  0.3385
   94loPI   C4A 1498   7.174  10.351   8.417 -0.0165  0.0526  0.0235
   94loPI   C5A 1499   6.900  10.202   8.109  0.0659  0.3035 -0.0970
   94loPI   C6A 1500   6.836   9.825   7.864 -0.0721 -0.1157 -0.3030
   94loPI   C1B 1501   7.229  10.924   9.357 -0.2123  0.2779  0.0424
   94loPI   C2B 1502   7.290  10.867   8.906 -0.2804  0.2357 -0.0567
   94loPI   C3B 1503   7.237  10.901   8.435  0.0781  0.0324 -0.0319
   94loPI   C4B 1504   7.124  10.729   8.037 -0.0471  0.1921 -0.0118
   95loPI    C1 1505   5.065  13.647  11.017  0.3640 -0.1153 -0.0023
   95loPI    C2 1506   5.025  13.251  10.973  0.0964 -0.1100  0.1727
   95loPI    C3 1507   5.027  13.413  11.339 -0.1728  0.0861  0.0910
   95loPI   PO4 1508   5.216  13.696  10.801  0.0066 -0.2081  0.0836
   95loPI   GL1 1509   5.249  13.724  10.323  0.0338  0.1125 -0.0924
   95loPI   GL2 1510   5.516  13.816  10.407 -0.2014 -0.0329 -0.0622
   95loPI   C1A 1511   4.984  13.420   9.998  0.0056  0.1449  0.2335
   95loPI   C2A 1512   4.911  13.294   9.553 -0.0228  0.0054 -0.3150
   95loPI   C3A 1513   5.142  13.336   9.129  0.2578  0.0006 -0.1873
   95loPI   C4A 1514   4.938  13.275   8.702 -0.0926  0.0584  0.0497
   95loPI   C5A 1515   4.869  13.242   8.251 -0.1665 -0.0516  0.2082
   95loPI   C6A 1516   4.488  13.325   7.991  0.0588  0.0204  0.4188
   95loPI   C1B 1517   5.576  13.968   9.945  0.0761  0.2187  0.0486
   95loPI   C2B 1518   5.557  14.096   9.490 -0.3806 -0.2188 -0.1691
   95loPI   C3B 1519   5.458  14.141   9.065 -0.0946  0.0481  0.0795
   95loPI   C4B 1520   5.407  14.106   8.693 -0.0653  0.0120  0.0619
   96loPI    C1 1521   6.263   4.208  10.610 -0.1191  0.2348 -0.0174
   96loPI    C2 1522   6.205   4.467  10.909 -0.1238  0.0193  0.1705
   96loPI    C3 1523   6.200   4.073  10.981 -0.3440 -0.0401 -0.1517
   96loPI   PO4 1524   6.453   4.272  10.433  0.1245  0.0408  0.3841
   96loPI   GL1 1525   6.690   4.238  10.136  0.0427 -0.0247 -0.0932
   96loPI   GL2 1526   7.049   4.130  10.181  0.1686  0.2480  0.0438
   96loPI   C1A 1527   6.901   4.429   9.665  0.0085 -0.0968 -0.1251
   96loPI   C2A 1528   6.886   4.538   9.399  0.1160  0.1201 -0.2628
   96loPI   C3A 1529   7.029   4.550   8.964  0.1358  0.1420  0.1962
   96loPI   C4A 1530   7.165   4.629   8.535 -0.1229 -0.1339 -0.2109
   96loPI   C5A 1531   7.185   4.594   8.047 -0.0400  0.3552  0.0993
   96loPI   C6A 1532   7.368   4.299   7.795  0.3596  0.2467 -0.4133
   96loPI   C1B 1533   7.260   3.755   9.942  0.1826  0.0132 -0.1918
   96loPI   C2B 1534   7.382   3.732   9.616  0.1445 -0.2611  0.2982
   96loPI   C3B 1535   7.380   3.740   9.099  0.0138  0.3673  0.0985
   96loPI   C4B 1536   7.409   3.868   8.668 -0.1779  0.2838  0.1591
   97loPI    C1 1537   4.941  18.054  10.307  0.1998  0.0669 -0.0581
   97loPI    C2 1538   5.122  17.708  10.220 -0.1700 -0.1694  0.0945
   97loPI    C3 1539   5.233  17.916  10.543 -0.0031 -0.1866  0.0488
   97loPI   PO4 1540   4.916  18.175  10.125  0.2665 -0.2840  0.2576
   97loPI   GL1 1541   4.942  17.925   9.814 -0.1372 -0.2536 -0.1618
   97loPI   GL2 1542   4.893  17.698   9.810  0.0549  0.1411  0.0102
   97loPI   C1A 1543   5.007  18.164   9.412 -0.1734  0.1510 -0.0199
   97loPI   C2A 1544   5.022  18.103   9.047  0.1230  0.2877 -0.5486
   97loPI   C3A 1545   4.963  18.061   8.618 -0.2466 -0.0190 -0.0359
   97loPI   C4A 1546   5.077  17.789   8.154 -0.0678  0.0838  0.0010
   97loPI   C5A 1547   4.895  17.918   7.857 -0.0553 -0.1700  0.2225
   97loPI   C6A 1548   4.461  17.984   7.807 -0.0560  0.3059  0.1753
   97loPI   C1B 1549   4.985  17.609   9.357  0.3259 -0.0267 -0.0657
   97loPI   C2B 1550   4.883  17.666   8.940  0.0765  0.0915  0.2819
   97loPI   C3B 1551   5.057  17.495   8.515  0.3851 -0.1118 -0.0088
   97loPI   C4B 1552   5.274  17.304   8.187  0.0753  0.0305 -0.3012
   98loPI    C1 1553   9.759  11.754  10.132 -0.2741  0.0994 -0.0211
   98loPI    C2 1554   9.844  11.772  10.523 -0.0539 -0.0294 -0.0612
   98loPI    C3 1555   9.806  11.417  10.342 -0.0221  0.0298 -0.1850
   98loPI   PO4 1556   9.684  12.075  10.145  0.3500  0.1561  0.3788
   98loPI   GL1 1557   9.510  12.450   9.865 -0.2476  0.4650  0.0303
   98loPI   GL2 1558   9.172  12.376  10.075 -0.0736 -0.1821  0.1297
   98loPI   C1A 1559   9.554  12.342   9.356 -0.2464  0.0448  0.1231
   98loPI   C2A 1560   9.581  12.319   8.891  0.0015 -0.2198  0.1315
   98loPI   C3A 1561   9.555  12.267   8.447 -0.0738  0.0942 -0.0178
   98loPI   C4A 1562   9.467  12.366   8.049 -0.0064 -0.3717  0.1619
   98loPI   C5A 1563   9.091  12.274   7.836  0.0069  0.2167 -0.3338
   98loPI   C6A 1564   8.858  12.643   7.619 -0.0093  0.0387 -0.2786
   98loPI   C1B 1565   9.039  12.556   9.657  0.0865 -0.1020  0.0961
   98loPI   C2B 1566   9.061  12.508   9.307 -0.1664  0.0031  0.2714
   98loPI   C3B 1567   9.086  12.608   8.788 -0.0663 -0.0965  0.0866
   98loPI   C4B 1568   9.083  12.592   8.263  0.4662 -0.3779 -0.0044
   99loPI    C1 1569   3.339  11.120  10.587 -0.2922  0.2349  0.0071
   99loPI    C2 1570   3.141  11.161  10.932  0.1714 -0.0490  0.3191
   99loPI    C3 1571   3.518  11.290  10.902  0.1006  0.0708 -0.1218
   99loPI   PO4 1572   3.072  11.024  10.357 -0.1064  0.3511 -0.0045
   99loPI   GL1 1573   3.220  11.211  10.030  0.5315  0.2723 -0.1211
   99loPI   GL2 1574   3.068  11.341   9.793 -0.0477 -0.1786 -0.0544
   99loPI   C1A 1575   3.484  11.176   9.656  0.0386 -0.0215  0.0101
   99loPI   C2A 1576   3.519  11.071   9.222  0.0061 -0.0589 -0.1576
   99loPI   C3A 1577   3.620  10.968   8.828  0.2758  0.1031  0.1873
   99loPI   C4A 1578   3.726  11.031   8.364 -0.0293  0.2733 -0.0084
   99loPI   C5A 1579   3.953  10.762   8.133  0.1439 -0.1429 -0.3388
   99loPI   C6A 1580   4.296  10.727   8.061  0.4454 -0.0530  0.1532
   99loPI   C1B 1581   3.070  11.300   9.337 -0.1039  0.1162 -0.0076
   99loPI   C2B 1582   3.245  11.348   8.959  0.2483 -0.0856  0.0804
   99loPI   C3B 1583   3.266  11.211   8.517  0.0611 -0.1527  0.3275
   99loPI   C4B 1584   3.185  11.344   8.058  0.0020  0.2028 -0.0042
  100loPI    C1 1585   6.136  13.425  10.906 -0.0516  0.1973  0.1696
  100loPI    C2 1586   6.345  13.251  11.199 -0.0704 -0.0694  0.0280
  100loPI    C3 1587   5.954  13.178  11.162 -0.1285  0.1891  0.1072
  100loPI   PO4 1588   6.229  13.297  10.625  0.0108  0.2470  0.1537
  100loPI   GL1 1589   5.958  13.077  10.207  0.1260  0.1762  0.2921
  100loPI   GL2 1590   6.068  12.726   9.976 -0.0390  0.0218 -0.0764
  100loPI   C1A 1591   5.945  13.210   9.797  0.1452  0.1435 -0.2563
  100loPI   C2A 1592   5.881  13.272   9.336 -0.0287  0.0397  0.1644
  100loPI   C3A 1593   5.899  13.280   8.923  0.2393 -0.2689  0.1278
  100loPI   C4A 1594   5.845  13.267   8.447 -0.1382  0.0746  0.1217
  100loPI   C5A 1595   5.742  13.252   7.968  0.1295 -0.1759  0.1240
  100loPI   C6A 1596   5.925  13.415   7.614 -0.0728  0.2579  0.3361
  100loPI   C1B 1597   5.941  12.818   9.487 -0.0210  0.2112  0.3134
  100loPI   C2B 1598   5.965  12.800   9.153  0.5926  0.0721 -0.0391
  100loPI   C3B 1599   5.879  12.857   8.656 -0.1486  0.2662 -0.0043
  100loPI   C4B 1600   5.871  12.744   8.235  0.1622 -0.1987 -0.0445
  101loPI    C1 1601  12.607  10.609  10.180  0.0578 -0.0729 -0.0290
  101loPI    C2 1602  12.710  10.545  10.561  0.2126 -0.1263 -0.0789
  101loPI    C3 1603  12.356  10.418  10.425 -0.0557  0.3236  0.1727
  101loPI   PO4 1604  12.763  10.495  10.081 -0.2923 -0.1925 -0.0077
  101loPI   GL1 1605  12.802  10.436   9.702 -0.3759  0.0876 -0.0409
  101loPI   GL2 1606  13.044  10.186   9.579  0.0498 -0.0121  0.1895
  101loPI   C1A 1607  12.542  10.293   9.255 -0.0509 -0.1951 -0.3433
  101loPI   C2A 1608  12.529  10.335   8.791  0.0237 -0.0771  0.1201
  101loPI   C3A 1609  12.649  10.041   8.388 -0.1687  0.0396  0.0132
  101loPI   C4A 1610  12.559  10.086   8.037  0.4025 -0.0424 -0.0382
  101loPI   C5A 1611  12.429  10.245   7.727 -0.3803 -0.1017 -0.0158
  101loPI   C6A 1612  12.461  10.628   7.529 -0.0848  0.0274  0.1195
  101loPI   C1B 1613  12.962  10.134   9.120  0.0630 -0.2358  0.0147
  101loPI   C2B 1614  13.019  10.105   8.713 -0.1055 -0.0997  0.2271
  101loPI   C3B 1615  13.162  10.205   8.250 -0.4102  0.2590 -0.4290
  101loPI   C4B 1616  13.519  10.037   7.933 -0.1289 -0.5193 -0.3020
  102loPI    C1 1617  14.397   9.720  10.300  0.0069 -0.0137  0.0273
  102loPI    C2 1618  14.171  10.022  10.166  0.2715  0.2039  0.0611
  102loPI    C3 1619  14.114   9.877  10.535 -0.1483 -0.0860 -0.1102
  102loPI   PO4 1620  14.394   9.609  10.113 -0.2657  0.2756  0.3866
  102loPI   GL1 1621  14.634   9.453   9.783 -0.2662 -0.2977  0.0690
  102loPI   GL2 1622  14.996   9.288   9.821  0.0493 -0.1297 -0.0840
  102loPI   C1A 1623  14.683   9.261   9.435  0.0145  0.0510 -0.1776
  102loPI   C2A 1624  14.817   9.127   9.124  0.0001  0.2620 -0.3218
  102loPI   C3A 1625  14.922   9.181   8.629  0.0304  0.0548 -0.2717
  102loPI   C4A 1626  15.024   9.250   8.166 -0.3223 -0.3060  0.1690
  102loPI   C5A 1627  15.087   9.518   7.877 -0.1017  0.0533  0.2085
  102loPI   C6A 1628  14.886   9.671   7.568 -0.0327  0.1425 -0.0219
  102loPI   C1B 1629  15.203   9.018   9.593  0.1453 -0.1933  0.0904
  102loPI   C2B 1630  15.581   9.053   9.369  0.1708  0.1743  0.2802
  102loPI   C3B 1631  15.734   9.055   8.967 -0.1347  0.1033  0.1160
  102loPI   C4B 1632  15.783   9.133   8.567  0.1171 -0.2335  0.2586
  103loPI    C1 1633   5.866   7.210  11.238  0.1267  0.0601  0.0034
  103loPI    C2 1634   5.479   7.204  11.135  0.0988 -0.1300  0.1122
  103loPI    C3 1635   5.583   7.258  11.517  0.1761 -0.1894  0.0998
  103loPI   PO4 1636   5.938   7.318  10.945  0.0666 -0.1802 -0.1671
  103loPI   GL1 1637   5.949   7.121  10.498 -0.0770  0.0432  0.1259
  103loPI   GL2 1638   5.887   7.464  10.461 -0.0154 -0.3316  0.0366
  103loPI   C1A 1639   6.225   7.136  10.138  0.2093  0.1517 -0.3321
  103loPI   C2A 1640   6.227   7.192   9.745  0.1675  0.2473 -0.0223
  103loPI   C3A 1641   6.160   7.331   9.224 -0.2588 -0.0844  0.3285
  103loPI   C4A 1642   6.226   7.171   8.772  0.3557  0.1755  0.2266
  103loPI   C5A 1643   6.284   7.208   8.314  0.3353  0.0570 -0.0582
  103loPI   C6A 1644   6.352   6.961   7.976  0.1038  0.1576 -0.2649
  103loPI   C1B 1645   5.790   7.393  10.042  0.0981  0.4697  0.3040
  103loPI   C2B 1646   5.820   7.538   9.543  0.2095 -0.2125 -0.0660
  103loPI   C3B 1647   5.718   7.611   9.040  0.0415 -0.1338  0.0499
  103loPI   C4B 1648   5.814   7.534   8.578 -0.1864 -0.0510  0.1986
  104loPI    C1 1649   8.808  14.153  10.611  0.0127  0.1360  0.0402
  104loPI    C2 1650   9.179  14.127  10.465 -0.0941 -0.0221 -0.2114
  104loPI    C3 1651   9.121  14.165  10.859  0.1774 -0.4643 -0.1215
  104loPI   PO4 1652   8.693  13.948  10.510 -0.3770  0.0244  0.0759
  104loPI   GL1 1653   8.693  13.852  10.036  0.3640  0.0282  0.3525
  104loPI   GL2 1654   8.738  13.607  10.029  0.0532 -0.1272 -0.1192
  104loPI   C1A 1655   8.641  13.848   9.624 -0.1667  0.1375  0.0134
  104loPI   C2A 1656   8.640  13.892   9.176 -0.1312  0.0992  0.0300
  104loPI   C3A 1657   8.676  13.892   8.664  0.3148 -0.1255  0.0600
  104loPI   C4A 1658   8.630  13.961   8.260  0.0530  0.0220  0.0463
  104loPI   C5A 1659   8.354  13.954   7.872 -0.2435  0.1430 -0.0953
  104loPI   C6A 1660   8.028  14.032   7.683 -0.2987  0.1287  0.0619
  104loPI   C1B 1661   8.636  13.350   9.692 -0.0140 -0.2362 -0.3749
  104loPI   C2B 1662   8.617  13.372   9.255  0.1389 -0.0823 -0.0167
  104loPI   C3B 1663   8.611  13.327   8.834  0.2374 -0.4471  0.1327
  104loPI   C4B 1664   8.782  13.448   8.378 -0.0964  0.1864  0.0689
  105loPI    C1 1665  12.531  12.448  10.034  0.0510  0.0728 -0.0742
  105loPI    C2 1666  12.897  12.498  10.187  0.0342 -0.0113 -0.0059
  105loPI    C3 1667  12.596  12.379  10.422 -0.0543  0.1303 -0.0459
  105loPI   PO4 1668  12.410  12.627   9.922  0.3469 -0.0122 -0.0619
  105loPI   GL1 1669  12.314  12.738   9.501 -0.1346  0.0176  0.0597
  105loPI   GL2 1670  12.591  12.467   9.512 -0.0372  0.0051 -0.0445
  105loPI   C1A 1671  12.458  12.755   9.040 -0.1935 -0.0993  0.0205
  105loPI   C2A 1672  12.648  12.711   8.622 -0.0161 -0.3684 -0.0020
  105loPI   C3A 1673  12.650  12.747   8.098  0.3172  0.0443  0.1541
  105loPI   C4A 1674  12.723  12.334   7.826  0.5422 -0.0841 -0.0646
  105loPI   C5A 1675  12.816  11.908   7.718 -0.0394 -0.0876 -0.0484
  105loPI   C6A 1676  13.167  11.622   7.623 -0.0520 -0.0822 -0.1126
  105loPI   C1B 1677  12.550  12.220   9.136 -0.1723  0.1994  0.2352
  105loPI   C2B 1678  12.643  12.178   8.827 -0.0378 -0.1999 -0.0819
  105loPI   C3B 1679  12.719  12.292   8.361 -0.1552  0.1016  0.1122
  105loPI   C4B 1680  13.099  12.351   8.162  0.1824 -0.0397 -0.3388
  106loPI    C1 1681  11.812   3.541  10.039  0.0449  0.0875 -0.0115
  106loPI    C2 1682  11.635   3.207  10.168  0.0169  0.1891  0.2181
  106loPI    C3 1683  11.825   3.445  10.427  0.0743  0.3291  0.0492
  106loPI   PO4 1684  12.013   3.408   9.914 -0.0247 -0.1380 -0.2180
  106loPI   GL1 1685  11.917   3.332   9.499 -0.1373 -0.2568  0.1525
  106loPI   GL2 1686  11.678   3.541   9.398 -0.0833  0.0814  0.3963
  106loPI   C1A 1687  11.957   3.284   9.067 -0.1413 -0.0798 -0.0283
  106loPI   C2A 1688  11.985   3.273   8.602  0.1241  0.1353  0.1983
  106loPI   C3A 1689  12.154   3.316   8.261  0.0801 -0.2665 -0.2199
  106loPI   C4A 1690  12.160   3.158   7.903  0.1093  0.1289  0.1444
  106loPI   C5A 1691  12.157   3.048   7.362  0.0882  0.5521  0.0036
  106loPI   C6A 1692  11.913   2.995   6.986 -0.0754  0.1783 -0.1737
  106loPI   C1B 1693  11.593   3.539   8.913 -0.0217 -0.2120 -0.3262
  106loPI   C2B 1694  11.609   3.521   8.533  0.0315 -0.0744 -0.0034
  106loPI   C3B 1695  11.570   3.627   8.131  0.3864  0.0141 -0.0568
  106loPI   C4B 1696  11.601   3.575   7.759  0.0850  0.0534 -0.0427
  107loPI    C1 1697   2.353  15.080  10.736  0.2989  0.1118 -0.2457
  107loPI    C2 1698   2.383  14.683  10.699  0.4707  0.0955  0.0360
  107loPI    C3 1699   2.634  14.880  10.939  0.1030  0.3206  0.2446
  107loPI   PO4 1700   2.240  15.114  10.465  0.1778 -0.0101 -0.2207
  107loPI   GL1 1701   2.362  14.999  10.033 -0.0578 -0.2456 -0.0803
  107loPI   GL2 1702   2.371  14.583   9.986  0.0427 -0.0793 -0.1762
  107loPI   C1A 1703   2.443  15.096   9.671 -0.0374  0.1919  0.2890
  107loPI   C2A 1704   2.354  14.994   9.210  0.0822 -0.0226  0.0217
  107loPI   C3A 1705   2.202  14.864   8.780 -0.0039  0.1699 -0.0595
  107loPI   C4A 1706   2.318  14.804   8.350 -0.1075 -0.0779 -0.1639
  107loPI   C5A 1707   2.449  14.438   8.042  0.1675 -0.0230  0.1150
  107loPI   C6A 1708   2.527  14.451   7.577  0.1409 -0.0237  0.1326
  107loPI   C1B 1709   2.386  14.487   9.558 -0.7093 -0.0683  0.0468
  107loPI   C2B 1710   2.310  14.499   9.236 -0.1316 -0.2465  0.3253
  107loPI   C3B 1711   2.350  14.407   8.861 -0.0345  0.1253 -0.1754
  107loPI   C4B 1712   2.281  14.304   8.504 -0.0955 -0.1638  0.1012
  108loPI    C1 1713  13.420  18.360  10.013  0.1917 -0.0446  0.3894
  108loPI    C2 1714  13.650  18.687  10.021  0.3439 -0.1378  0.0435
  108loPI    C3 1715  13.556  18.500  10.362  0.2460  0.2687  0.2455
  108loPI   PO4 1716  13.538  18.201   9.871  0.1175 -0.0736 -0.2612
  108loPI   GL1 1717  13.420  18.171   9.507  0.1405 -0.2058 -0.0368
  108loPI   GL2 1718  13.681  18.457   9.474  0.1031 -0.2991  0.0226
  108loPI   C1A 1719  13.648  18.087   9.105  0.2400 -0.0407 -0.0281
  108loPI   C2A 1720  13.678  18.150   8.719  0.1257 -0.0370 -0.0631
  108loPI   C3A 1721  13.801  18.175   8.263 -0.1868  0.1422  0.0672
  108loPI   C4A 1722  13.703  18.179   7.902  0.0578 -0.0037  0.2996
  108loPI   C5A 1723  13.634  18.146   7.413  0.0148  0.2074  0.0382
  108loPI   C6A 1724  13.453  17.852   7.139 -0.2445  0.2921 -0.0188
  108loPI   C1B 1725  13.796  18.564   9.027 -0.2176 -0.0139 -0.0294
  108loPI   C2B 1726  13.800  18.620   8.609 -0.0332  0.0969  0.0450
  108loPI   C3B 1727  14.088  18.554   8.154 -0.0305 -0.1301 -0.4945
  108loPI   C4B 1728  14.288  18.288   7.836  0.1796  0.1946 -0.1953
  109loPI    C1 1729   0.880  12.074  10.862 -0.0179 -0.1151  0.0497
  109loPI    C2 1730   0.982  12.345  11.137  0.1663 -0.0874 -0.0448
  109loPI    C3 1731   0.840  11.989  11.251  0.0284  0.0067  0.0813
  109loPI   PO4 1732   0.700  12.157  10.706  0.0705 -0.0714  0.2250
  109loPI   GL1 1733   0.710  12.224  10.298 -0.2398 -0.0637  0.1850
  109loPI   GL2 1734   0.937  12.372  10.269 -0.1550  0.1555 -0.2032
  109loPI   C1A 1735   0.767  12.206   9.778 -0.0688 -0.2447  0.0753
  109loPI   C2A 1736   0.767  12.180   9.334 -0.2449  0.0436 -0.3197
  109loPI   C3A 1737   0.860  12.133   8.823 -0.0041  0.0015 -0.1104
  109loPI   C4A 1738   0.988  11.983   8.374 -0.2254  0.0064 -0.2974
  109loPI   C5A 1739   1.309  12.171   8.113  0.0460  0.0455  0.1533
  109loPI   C6A 1740   1.644  12.449   7.816  0.1355 -0.1820  0.2080
  109loPI   C1B 1741   0.896  12.677   9.990  0.1875  0.0010 -0.0054
  109loPI   C2B 1742   0.895  12.697   9.485 -0.0395 -0.0733 -0.1642
  109loPI   C3B 1743   0.972  12.658   9.030  0.2698  0.0709 -0.1084
  109loPI   C4B 1744   0.972  12.565   8.600 -0.1518 -0.0898  0.2511
  110loPI    C1 1745  12.850  14.816  10.389 -0.1492 -0.1147  0.1062
  110loPI    C2 1746  13.016  14.685  10.729 -0.1729 -0.0513  0.1424
  110loPI    C3 1747  13.203  14.961  10.508 -0.1832 -0.0528  0.1319
  110loPI   PO4 1748  12.726  14.468  10.315 -0.1772  0.0757 -0.1596
  110loPI   GL1 1749  12.804  14.527   9.932 -0.2037  0.2313 -0.3125
  110loPI   GL2 1750  12.753  14.803   9.705  0.2337  0.0754  0.0400
  110loPI   C1A 1751  12.806  14.233   9.512 -0.2212 -0.2166 -0.1845
  110loPI   C2A 1752  12.827  14.162   9.088  0.1213  0.0256 -0.3607
  110loPI   C3A 1753  12.818  14.246   8.627 -0.1354 -0.0156 -0.3117
  110loPI   C4A 1754  12.739  14.302   8.225 -0.1217 -0.0031  0.2584
  110loPI   C5A 1755  12.819  14.150   7.749  0.1035  0.2025  0.0729
  110loPI   C6A 1756  13.200  14.106   7.456 -0.0446 -0.1194  0.1709
  110loPI   C1B 1757  12.815  14.686   9.319 -0.0384  0.0360  0.0551
  110loPI   C2B 1758  12.834  14.711   8.906 -0.1357  0.0533 -0.0808
  110loPI   C3B 1759  12.972  14.749   8.462  0.1346  0.2028  0.0412
  110loPI   C4B 1760  13.172  14.781   8.116  0.2576  0.0106  0.4312
  111loPI    C1 1761   7.367   4.650  10.828  0.1542  0.0473 -0.0499
  111loPI    C2 1762   7.365   5.025  10.965 -0.0163  0.0268  0.0066
  111loPI    C3 1763   7.526   4.732  11.185  0.1040  0.0637 -0.0313
  111loPI   PO4 1764   7.400   4.696  10.530 -0.2706 -0.2752  0.3381
  111loPI   GL1 1765   7.173   4.816  10.154 -0.0859 -0.4918  0.1441
  111loPI   GL2 1766   7.432   4.966  10.082  0.0743  0.0209 -0.0559
  111loPI   C1A 1767   6.914   4.953   9.738 -0.0423 -0.0796 -0.1208
  111loPI   C2A 1768   6.874   5.087   9.333 -0.1700 -0.4310  0.3655
  111loPI   C3A 1769   7.029   5.098   8.940 -0.2164 -0.1475 -0.1052
  111loPI   C4A 1770   6.930   5.197   8.431 -0.2866 -0.1532 -0.1401
  111loPI   C5A 1771   6.873   5.259   8.045  0.1987  0.2633 -0.0978
  111loPI   C6A 1772   6.951   5.514   7.753  0.1067 -0.3259  0.3881
  111loPI   C1B 1773   7.406   4.710   9.711 -0.2190 -0.3570 -0.1329
  111loPI   C2B 1774   7.389   4.781   9.268  0.1734  0.1001 -0.2943
  111loPI   C3B 1775   7.486   4.950   8.879 -0.0878 -0.3094 -0.0288
  111loPI   C4B 1776   7.602   4.752   8.450 -0.1193 -0.0044  0.0870
  112loPI    C1 1777   8.079  14.826  10.501 -0.0615  0.0170  0.0872
  112loPI    C2 1778   7.877  15.150  10.623  0.0375  0.0591  0.1413
  112loPI    C3 1779   8.111  14.952  10.880  0.0436 -0.0060  0.0861
  112loPI   PO4 1780   8.156  14.908  10.315 -0.0587  0.1866  0.2465
  112loPI   GL1 1781   8.457  14.808   9.988  0.4060  0.2734  0.0302
  112loPI   GL2 1782   8.127  14.529   9.945 -0.3898 -0.2712 -0.0205
  112loPI   C1A 1783   8.645  14.951   9.618 -0.2658  0.0649  0.0278
  112loPI   C2A 1784   8.639  15.004   9.280  0.1710  0.4657 -0.0554
  112loPI   C3A 1785   8.623  14.812   8.891 -0.0216 -0.2615 -0.0475
  112loPI   C4A 1786   8.708  14.860   8.573  0.1669  0.1420  0.0368
  112loPI   C5A 1787   8.797  14.805   8.191 -0.0291 -0.1294 -0.2010
  112loPI   C6A 1788   8.645  14.865   7.876 -0.0224 -0.1048 -0.0093
  112loPI   C1B 1789   7.809  14.483   9.582  0.0107  0.2390  0.1635
  112loPI   C2B 1790   7.763  14.407   9.245 -0.0770 -0.0388  0.0726
  112loPI   C3B 1791   7.701  14.299   8.792 -0.1454 -0.0252 -0.1125
  112loPI   C4B 1792   7.649  14.325   8.440 -0.0111 -0.2033 -0.4885
  113loPI    C1 1793   0.375   3.898  10.233  0.0878  0.0025  0.0253
  113loPI    C2 1794   0.586   3.650  10.465  0.0405  0.0888  0.1618
  113loPI    C3 1795   0.195   3.701  10.531  0.0285  0.1205  0.0680
  113loPI   PO4 1796   0.460   3.816  10.002 -0.2939 -0.1559  0.0404
  113loPI   GL1 1797   0.687   4.122   9.734  0.0364 -0.1098  0.0313
  113loPI   GL2 1798   0.857   4.341   9.536 -0.1599  0.1518  0.0373
  113loPI   C1A 1799   0.844   3.840   9.325  0.0771  0.2215 -0.0624
  113loPI   C2A 1800   0.963   3.812   8.936 -0.0465  0.0460  0.0342
  113loPI   C3A 1801   1.021   3.862   8.424  0.1255  0.0842 -0.4377
  113loPI   C4A 1802   1.320   3.916   8.145 -0.1350  0.0388  0.4832
  113loPI   C5A 1803   1.696   3.857   8.332  0.1212  0.1584 -0.0006
  113loPI   C6A 1804   2.090   3.869   8.247  0.4897 -0.0516  0.0253
  113loPI   C1B 1805   0.541   4.347   9.240  0.3075 -0.0103 -0.0288
  113loPI   C2B 1806   0.336   4.557   9.015  0.0876 -0.0729 -0.3132
  113loPI   C3B 1807  -0.075   4.657   9.049  0.3620  0.2589  0.0181
  113loPI   C4B 1808  -0.230   4.901   9.430  0.0295  0.0791 -0.3867
  114loPI    C1 1809  17.401   7.200  10.825 -0.0739 -0.0722  0.0498
  114loPI    C2 1810  17.563   7.002  11.132 -0.1246  0.0208  0.1372
  114loPI    C3 1811  17.264   7.260  11.196 -0.2104 -0.0425 -0.0047
  114loPI   PO4 1812  17.615   7.285  10.683 -0.1123 -0.1818  0.1225
  114loPI   GL1 1813  17.625   7.362  10.264 -0.1053 -0.1468  0.1933
  114loPI   GL2 1814  17.799   7.722  10.246  0.0231  0.1683  0.0699
  114loPI   C1A 1815  17.367   7.139   9.979 -0.1194 -0.0252 -0.3906
  114loPI   C2A 1816  17.436   6.938   9.624 -0.0822  0.2664 -0.1312
  114loPI   C3A 1817  17.515   6.943   9.215 -0.0790  0.0832 -0.2940
  114loPI   C4A 1818  17.400   6.978   8.814 -0.2311 -0.1152  0.3856
  114loPI   C5A 1819  17.280   7.120   8.449 -0.1991  0.2531  0.1331
  114loPI   C6A 1820  17.268   6.987   8.007 -0.0345  0.1371 -0.0503
  114loPI   C1B 1821  18.003   7.663   9.838  0.1717 -0.5869  0.3222
  114loPI   C2B 1822  17.900   7.704   9.456 -0.0685  0.3235 -0.3178
  114loPI   C3B 1823  18.012   7.706   9.091  0.0211 -0.0527 -0.5207
  114loPI   C4B 1824  17.894   7.869   8.695 -0.1195  0.1528 -0.0402
  115loPI    C1 1825  11.422   8.457  10.593  0.0418 -0.0003 -0.0576
  115loPI    C2 1826  11.340   8.190  10.878 -0.0153  0.0599 -0.0174
  115loPI    C3 1827  11.475   8.553  10.978  0.0354  0.0555 -0.0704
  115loPI   PO4 1828  11.257   8.467  10.449 -0.1259  0.0059  0.1169
  115loPI   GL1 1829  11.082   8.664  10.036 -0.0091  0.0577 -0.0162
  115loPI   GL2 1830  10.759   8.886  10.006  0.2048 -0.2333 -0.1643
  115loPI   C1A 1831  11.218   8.582   9.627 -0.0220 -0.1739 -0.1312
  115loPI   C2A 1832  11.248   8.474   9.187  0.0473  0.3658  0.1359
  115loPI   C3A 1833  11.221   8.577   8.709 -0.3831 -0.1828  0.0220
  115loPI   C4A 1834  11.077   8.722   8.279  0.1426  0.1377 -0.0244
  115loPI   C5A 1835  10.742   8.783   8.023  0.2176 -0.0945 -0.1243
  115loPI   C6A 1836  10.458   8.628   7.690 -0.0225  0.2380  0.0011
  115loPI   C1B 1837  10.868   8.927   9.595 -0.0032  0.0860 -0.1108
  115loPI   C2B 1838  10.830   8.758   9.113 -0.0504 -0.4624  0.0295
  115loPI   C3B 1839  10.819   8.863   8.663 -0.0308  0.0196  0.2673
  115loPI   C4B 1840  10.872   9.136   8.487  0.1212 -0.1455  0.2885
  116loPI    C1 1841   3.109   9.675  10.963  0.0700  0.0296 -0.0464
  116loPI    C2 1842   2.754   9.767  11.125  0.0038 -0.1501 -0.0864
  116loPI    C3 1843   3.070  10.005  11.186 -0.0945 -0.0531  0.0500
  116loPI   PO4 1844   3.075   9.608  10.736  0.1613 -0.2144 -0.0365
  116loPI   GL1 1845   3.209   9.674  10.421 -0.4702  0.2534 -0.0973
  116loPI   GL2 1846   3.531   9.593  10.303 -0.1597  0.1062  0.3049
  116loPI   C1A 1847   3.107   9.681  10.045  0.1039 -0.0748 -0.2159
  116loPI   C2A 1848   3.052   9.712   9.533  0.1691 -0.0364  0.1579
  116loPI   C3A 1849   3.087   9.621   9.084  0.0206 -0.4083 -0.0823
  116loPI   C4A 1850   3.201   9.742   8.603  0.2434 -0.0144  0.0014
  116loPI   C5A 1851   3.542   9.820   8.271 -0.1723 -0.4115 -0.0650
  116loPI   C6A 1852   3.569   9.913   7.997 -0.0969  0.0508  0.3527
  116loPI   C1B 1853   3.515   9.439   9.852  0.0657  0.0974  0.0255
  116loPI   C2B 1854   3.514   9.457   9.489  0.0283  0.0318 -0.3104
  116loPI   C3B 1855   3.589   9.357   9.011  0.3179 -0.1836 -0.2056
  116loPI   C4B 1856   3.549   9.411   8.587 -0.0293  0.1925 -0.2392
  117loPI    C1 1857  11.759  15.659  10.133 -0.0651 -0.0007 -0.1538
  117loPI    C2 1858  11.793  15.914  10.439 -0.0522  0.0851 -0.2264
  117loPI    C3 1859  12.079  15.642  10.373 -0.0831  0.0279 -0.1276
  117loPI   PO4 1860  11.464  15.765  10.049 -0.2926 -0.3955 -0.2131
  117loPI   GL1 1861  11.348  15.876   9.647  0.2241  0.1597  0.0300
  117loPI   GL2 1862  11.248  16.112   9.834 -0.2543  0.1337 -0.0783
  117loPI   C1A 1863  11.364  15.969   9.289 -0.1213 -0.2659 -0.2193
  117loPI   C2A 1864  11.448  16.077   8.927  0.1241  0.0799 -0.0131
  117loPI   C3A 1865  11.653  15.936   8.491  0.0530  0.0957  0.0102
  117loPI   C4A 1866  11.545  16.152   8.086 -0.0823  0.2175 -0.1432
  117loPI   C5A 1867  11.496  16.488   7.850 -0.0922  0.0780 -0.2013
  117loPI   C6A 1868  11.208  16.619   7.610  0.1731  0.0946  0.0577
  117loPI   C1B 1869  11.084  16.352   9.466 -0.4541 -0.3448 -0.0032
  117loPI   C2B 1870  10.932  16.326   9.123 -0.2213 -0.0037 -0.1986
  117loPI   C3B 1871  10.871  16.586   8.810  0.1789  0.0885 -0.0544
  117loPI   C4B 1872  10.750  16.763   8.417 -0.3727  0.1456 -0.0433
  118loPI    C1 1873  11.856  14.407  10.217 -0.0515 -0.0849 -0.0428
  118loPI    C2 1874  11.473  14.358  10.320 -0.0106 -0.2671  0.0270
  118loPI    C3 1875  11.747  14.429  10.602 -0.0493  0.2632 -0.0595
  118loPI   PO4 1876  11.855  14.577  10.054 -0.0804 -0.1541 -0.0608
  118loPI   GL1 1877  12.083  14.472   9.756 -0.1755  0.8008  0.0179
  118loPI   GL2 1878  12.381  14.444   9.741  0.0232  0.0650  0.1520
  118loPI   C1A 1879  12.042  14.538   9.368  0.0106 -0.0771 -0.2176
  118loPI   C2A 1880  12.319  14.439   9.031 -0.1383  0.2925 -0.0333
  118loPI   C3A 1881  12.476  14.600   8.623  0.0171  0.3105  0.0709
  118loPI   C4A 1882  12.330  14.638   8.144  0.1699  0.2136 -0.2376
  118loPI   C5A 1883  12.361  14.254   7.853  0.0822 -0.2909 -0.4348
  118loPI   C6A 1884  12.099  14.196   7.474 -0.2480 -0.0477  0.0952
  118loPI   C1B 1885  12.372  14.109   9.421 -0.2381 -0.0258  0.0125
  118loPI   C2B 1886  12.308  13.801   9.000 -0.0256 -0.0125 -0.1185
  118loPI   C3B 1887  12.201  13.895   8.732  0.1973 -0.0119  0.0782
  118loPI   C4B 1888  12.156  14.081   8.295  0.2664  0.2904 -0.3427
  119loPI    C1 1889  14.529  10.176  10.474  0.1400  0.1532  0.2151
  119loPI    C2 1890  14.715  10.323  10.797  0.0661  0.2184  0.2283
  119loPI    C3 1891  14.329  10.220  10.818  0.1182  0.0163  0.2205
  119loPI   PO4 1892  14.776  10.079  10.336 -0.0241 -0.1229  0.2706
  119loPI   GL1 1893  14.730  10.035   9.905  0.3560  0.0112  0.1453
  119loPI   GL2 1894  14.433  10.020   9.718  0.0022  0.0877  0.0176
  119loPI   C1A 1895  14.789  10.215   9.475  0.0857  0.0295 -0.1956
  119loPI   C2A 1896  14.869  10.281   8.972  0.4042 -0.2215 -0.1074
  119loPI   C3A 1897  14.797  10.323   8.565 -0.0887 -0.2218  0.0601
  119loPI   C4A 1898  14.845  10.379   8.217 -0.3033 -0.0439 -0.0802
  119loPI   C5A 1899  14.578  10.315   7.797  0.0602  0.1455  0.1228
  119loPI   C6A 1900  14.488   9.992   7.425 -0.0706 -0.0546 -0.0945
  119loPI   C1B 1901  14.588   9.749   9.389 -0.1627  0.0812 -0.2841
  119loPI   C2B 1902  14.868   9.783   9.016  0.0370  0.2276 -0.0585
  119loPI   C3B 1903  14.821   9.810   8.638 -0.1840  0.1790 -0.0928
  119loPI   C4B 1904  14.813   9.841   8.135 -0.0589  0.1166  0.1825
  120loPI    C1 1905   5.695   0.192  10.348  0.0876 -0.1774  0.0482
  120loPI    C2 1906   5.672  -0.000  10.698  0.0580  0.0939  0.1977
  120loPI    C3 1907   5.495   0.356  10.653  0.0557  0.0581 -0.0970
  120loPI   PO4 1908   5.656   0.014  10.183  0.1475  0.4858  0.1299
  120loPI   GL1 1909   5.742  -0.175   9.801  0.0043 -0.1485  0.2014
  120loPI   GL2 1910   6.154  -0.241   9.851  0.1739  0.1005  0.0126
  120loPI   C1A 1911   5.500  -0.274   9.345  0.1323  0.5417  0.3171
  120loPI   C2A 1912   5.396  -0.222   8.862 -0.0293 -0.0057 -0.0667
  120loPI   C3A 1913   5.396  -0.271   8.381 -0.0993 -0.1508 -0.4159
  120loPI   C4A 1914   5.077  -0.235   8.164 -0.1228 -0.2065 -0.0172
  120loPI   C5A 1915   4.832   0.021   7.905 -0.0925  0.2051  0.1962
  120loPI   C6A 1916   4.699   0.406   7.624 -0.2176 -0.0046 -0.0302
  120loPI   C1B 1917   6.050  -0.112   9.406  0.0836 -0.2658  0.0186
  120loPI   C2B 1918   6.342  -0.356   9.063  0.0481 -0.4092 -0.1737
  120loPI   C3B 1919   6.546  -0.543   8.731  0.6926  0.0144 -0.0729
  120loPI   C4B 1920   6.900  -0.626   8.515 -0.4483 -0.2304  0.0311
  121loPI    C1 1921   4.858   0.823  10.251 -0.2715  0.0583  0.3748
  121loPI    C2 1922   4.691   1.177  10.167 -0.1174  0.0313 -0.0732
  121loPI    C3 1923   4.983   1.152  10.440 -0.0083  0.2803 -0.1647
  121loPI   PO4 1924   4.762   0.611  10.040  0.2699  0.0277 -0.0762
  121loPI   GL1 1925   4.761   0.831   9.622  0.1805  0.1066 -0.1846
  121loPI   GL2 1926   4.429   0.861   9.667  0.0859  0.1999  0.0617
  121loPI   C1A 1927   4.667   1.064   9.269 -0.2553 -0.0453 -0.1919
  121loPI   C2A 1928   4.461   1.152   8.965 -0.3147  0.2838  0.2121
  121loPI   C3A 1929   4.417   1.374   8.600 -0.2780 -0.1018 -0.1042
  121loPI   C4A 1930   4.351   1.646   8.190  0.4598  0.2008  0.3567
  121loPI   C5A 1931   4.338   1.543   7.839 -0.3104 -0.2252  0.0380
  121loPI   C6A 1932   4.365   1.493   7.317 -0.1788  0.0237  0.1775
  121loPI   C1B 1933   4.342   0.646   9.387 -0.1799  0.3010  0.2187
  121loPI   C2B 1934   4.230   0.643   8.961  0.0231 -0.1365  0.1278
  121loPI   C3B 1935   4.443   0.357   8.514 -0.0321  0.2088 -0.1753
  121loPI   C4B 1936   4.391   0.280   8.037  0.0570 -0.1514  0.2538
  122loPI    C1 1937  17.064   6.867  10.636 -0.1551  0.0691 -0.0010
  122loPI    C2 1938  17.353   6.642  10.798 -0.2612 -0.2598 -0.2589
  122loPI    C3 1939  17.070   6.802  11.031  0.0817  0.0051 -0.0133
  122loPI   PO4 1940  16.995   6.783  10.346 -0.0590  0.2664  0.0816
  122loPI   GL1 1941  16.879   6.872   9.899 -0.2305  0.0282 -0.0083
  122loPI   GL2 1942  16.721   7.106   9.883  0.2559  0.3228 -0.0951
  122loPI   C1A 1943  17.041   6.624   9.557 -0.3011  0.0875  0.0768
  122loPI   C2A 1944  17.068   6.650   9.107  0.0934  0.1323  0.1749
  122loPI   C3A 1945  17.038   6.668   8.613  0.0880  0.2478  0.2125
  122loPI   C4A 1946  16.797   6.718   8.207  0.0532 -0.2422 -0.3342
  122loPI   C5A 1947  16.514   6.975   8.136 -0.0352  0.2463 -0.0918
  122loPI   C6A 1948  16.258   7.299   7.986 -0.0501  0.1360  0.0029
  122loPI   C1B 1949  16.664   6.932   9.491 -0.2101  0.1219  0.0537
  122loPI   C2B 1950  16.529   6.897   9.128 -0.0870  0.0236 -0.0190
  122loPI   C3B 1951  16.610   6.911   8.757  0.0698 -0.2341  0.0286
  122loPI   C4B 1952  16.772   7.102   8.573 -0.0295  0.1257 -0.0220
  123loPI    C1 1953   3.944   6.006  10.819  0.3910 -0.0849 -0.1171
  123loPI    C2 1954   3.956   6.403  10.867  0.0946 -0.0851 -0.0224
  123loPI    C3 1955   3.991   6.162  11.185  0.0474 -0.1296 -0.0509
  123loPI   PO4 1956   3.825   5.972  10.730 -0.1253  0.3721 -0.1112
  123loPI   GL1 1957   3.909   5.981  10.289 -0.2426 -0.2208 -0.0690
  123loPI   GL2 1958   4.152   6.224  10.354 -0.1036 -0.0489 -0.2475
  123loPI   C1A 1959   3.770   6.122   9.812 -0.3450 -0.0111 -0.4031
  123loPI   C2A 1960   3.799   6.151   9.301 -0.0808  0.1321 -0.1400
  123loPI   C3A 1961   3.787   6.096   8.887  0.1762  0.2134 -0.0073
  123loPI   C4A 1962   3.876   6.071   8.480  0.0628  0.1593 -0.3088
  123loPI   C5A 1963   3.982   6.126   8.129  0.1898  0.2958 -0.0414
  123loPI   C6A 1964   3.773   6.538   7.836 -0.1740  0.0993 -0.2227
  123loPI   C1B 1965   4.251   6.413  10.048 -0.0345 -0.0139  0.0062
  123loPI   C2B 1966   4.161   6.321   9.608  0.1669  0.0198 -0.3275
  123loPI   C3B 1967   4.316   6.324   9.136  0.1529 -0.1292 -0.0977
  123loPI   C4B 1968   4.271   6.355   8.597  0.4671  0.7199 -0.1612
  124loPI    C1 1969   7.052   9.867  10.755 -0.3023 -0.1835 -0.0410
  124loPI    C2 1970   7.222   9.505  10.764 -0.1399 -0.1084 -0.0392
  124loPI    C3 1971   7.177   9.714  11.103 -0.0189 -0.0288 -0.0717
  124loPI   PO4 1972   7.015   9.864  10.432  0.1167  0.0760 -0.2008
  124loPI   GL1 1973   7.263   9.715  10.105 -0.0943 -0.2894 -0.0763
  124loPI   GL2 1974   7.229   9.897   9.865 -0.3747 -0.0743 -0.0390
  124loPI   C1A 1975   7.154   9.373   9.858  0.2752  0.0155 -0.0780
  124loPI   C2A 1976   7.118   9.288   9.443 -0.3399 -0.1596 -0.2535
  124loPI   C3A 1977   7.190   9.411   9.086  0.3063  0.0046 -0.0705
  124loPI   C4A 1978   7.146   9.359   8.633  0.1144  0.1357  0.1439
  124loPI   C5A 1979   7.220   9.390   8.250 -0.0757  0.1172  0.1012
  124loPI   C6A 1980   7.362   9.498   7.907 -0.1957 -0.3455 -0.0570
  124loPI   C1B 1981   7.227   9.874   9.452 -0.1274  0.0754 -0.0203
  124loPI   C2B 1982   7.199   9.963   9.075 -0.1440 -0.0365 -0.2558
  124loPI   C3B 1983   7.218   9.909   8.629 -0.1139  0.1448  0.0189
  124loPI   C4B 1984   7.281   9.881   8.180 -0.2025  0.2996 -0.0741
  125loPI    C1 1985  12.824  16.067  10.166 -0.0991  0.0412 -0.0141
  125loPI    C2 1986  12.641  15.733  10.289  0.0542  0.0079  0.1275
  125loPI    C3 1987  12.970  15.862  10.477  0.1988  0.0468 -0.1468
  125loPI   PO4 1988  12.624  16.131   9.893  0.4058 -0.0013 -0.1242
  125loPI   GL1 1989  12.472  15.917   9.526 -0.0129 -0.0031  0.1827
  125loPI   GL2 1990  12.646  15.771   9.353  0.1020  0.1081  0.0986
  125loPI   C1A 1991  12.201  15.883   9.158 -0.2321 -0.1376  0.1456
  125loPI   C2A 1992  12.119  15.898   8.713 -0.0542 -0.1766 -0.1016
  125loPI   C3A 1993  12.143  16.087   8.440  0.0754  0.1584 -0.3416
  125loPI   C4A 1994  12.077  16.181   7.956  0.0844 -0.1009  0.0975
  125loPI   C5A 1995  12.195  16.356   7.564  0.2322 -0.0538  0.4545
  125loPI   C6A 1996  12.360  16.203   7.192  0.1506 -0.0487  0.2452
  125loPI   C1B 1997  12.633  15.973   8.952  0.0534  0.1595 -0.0645
  125loPI   C2B 1998  12.607  16.131   8.626 -0.0356 -0.0786 -0.0649
  125loPI   C3B 1999  12.650  16.084   8.231  0.3302 -0.1246  0.1637
  125loPI   C4B 2000  12.627  16.366   7.888 -0.2714  0.1931  0.1570
  126loPI    C1 2001  18.004  15.450  10.648 -0.1198  0.3079  0.2568
  126loPI    C2 2002  17.996  15.260  11.000 -0.0382  0.0046  0.0980
  126loPI    C3 2003  18.291  15.517  10.918  0.0307 -0.0446  0.1900
  126loPI   PO4 2004  17.971  15.293  10.497 -0.0082 -0.2275 -0.0324
  126loPI   GL1 2005  18.248  15.365  10.028 -0.0783 -0.1699 -0.0584
  126loPI   GL2 2006  17.958  15.316  10.034 -0.1014  0.2484 -0.0606
  126loPI   C1A 2007  18.031  15.331   9.558  0.0942  0.0307 -0.1566
  126loPI   C2A 2008  18.051  15.333   9.129 -0.0232  0.2655 -0.0537
  126loPI   C3A 2009  18.081  15.178   8.654  0.1138  0.2647 -0.1580
  126loPI   C4A 2010  18.184  14.826   8.288 -0.2106 -0.2969 -0.1560
  126loPI   C5A 2011  18.115  14.601   8.001  0.1160  0.2157 -0.0260
  126loPI   C6A 2012  17.891  14.325   7.760 -0.0451 -0.0424  0.1397
  126loPI   C1B 2013  17.766  15.679   9.772 -0.1588  0.0656 -0.2494
  126loPI   C2B 2014  17.661  15.648   9.261  0.0944  0.1298 -0.0981
  126loPI   C3B 2015  17.745  15.508   8.812  0.3980 -0.1750  0.1776
  126loPI   C4B 2016  17.676  15.516   8.321  0.1922 -0.0389  0.2653
  127loPI    C1 2017   5.730   2.321  10.032 -0.2454 -0.1056  0.1140
  127loPI    C2 2018   6.006   2.376  10.315  0.0513  0.0730 -0.2024
  127loPI    C3 2019   5.661   2.194  10.405  0.2469 -0.1086  0.2098
  127loPI   PO4 2020   5.801   2.151   9.873 -0.1155  0.2508  0.1212
  127loPI   GL1 2021   5.921   2.036   9.537  0.0978 -0.1489  0.0134
  127loPI   GL2 2022   5.596   2.138   9.368 -0.0250  0.2017 -0.1575
  127loPI   C1A 2023   6.100   2.155   9.266  0.0115  0.0383  0.0155
  127loPI   C2A 2024   6.059   2.417   8.917 -0.1858 -0.0909 -0.3265
  127loPI   C3A 2025   5.834   2.690   8.525  0.1604 -0.1219 -0.0112
  127loPI   C4A 2026   5.480   2.756   8.230 -0.2061  0.1757 -0.0967
  127loPI   C5A 2027   5.252   2.524   7.839  0.0233  0.1826  0.0540
  127loPI   C6A 2028   5.021   2.202   7.559  0.0811  0.1561  0.0983
  127loPI   C1B 2029   5.263   2.457   9.179 -0.0350 -0.0740  0.1846
  127loPI   C2B 2030   5.176   2.644   8.720  0.2738 -0.3106  0.0129
  127loPI   C3B 2031   4.839   2.696   8.416  0.0047  0.0300  0.4477
  127loPI   C4B 2032   4.384   2.576   8.278  0.0756  0.0718 -0.0064
  128loPI    C1 2033  15.925   0.579  10.133 -0.0796 -0.1274 -0.2579
  128loPI    C2 2034  15.578   0.622   9.939 -0.2492  0.0502  0.0772
  128loPI    C3 2035  15.580   0.498  10.319  0.0576  0.0263  0.0695
  128loPI   PO4 2036  16.080   0.503   9.878  0.1345 -0.2092 -0.3857
  128loPI   GL1 2037  15.933   0.497   9.507  0.1648 -0.4157  0.1942
  128loPI   GL2 2038  15.571   0.532   9.398 -0.1172  0.0960  0.0905
  128loPI   C1A 2039  15.961   0.481   9.052  0.0827 -0.3337  0.0763
  128loPI   C2A 2040  16.215   0.492   8.660 -0.1984 -0.0167  0.2332
  128loPI   C3A 2041  16.511   0.373   8.346  0.0423  0.2502 -0.3413
  128loPI   C4A 2042  16.744   0.453   7.966 -0.1084  0.0908  0.3582
  128loPI   C5A 2043  16.998   0.521   7.608  0.0067  0.2642  0.0640
  128loPI   C6A 2044  17.238   0.244   7.265 -0.1888  0.0582  0.2354
  128loPI   C1B 2045  15.535   0.356   8.938  0.0589  0.0567  0.0144
  128loPI   C2B 2046  15.347   0.385   8.505 -0.1279 -0.0758  0.2327
  128loPI   C3B 2047  15.483   0.393   8.146  0.0109  0.0297  0.0447
  128loPI   C4B 2048  15.597   0.703   7.755 -0.0805 -0.0560 -0.1399
  129loPI    C1 2049   2.071  10.373  10.885  0.1460 -0.1427 -0.0858
  129loPI    C2 2050   2.173  10.747  10.983  0.2228 -0.1940  0.0331
  129loPI    C3 2051   1.934  10.536  11.224 -0.1623 -0.0791 -0.2379
  129loPI   PO4 2052   2.014  10.439  10.637 -0.1015 -0.0136 -0.2674
  129loPI   GL1 2053   1.630  10.419  10.358 -0.0767  0.0206  0.1506
  129loPI   GL2 2054   1.700  10.706  10.258 -0.2221 -0.0887  0.1270
  129loPI   C1A 2055   1.655  10.094  10.035 -0.1884 -0.2059  0.0783
  129loPI   C2A 2056   1.625  10.017   9.664 -0.1471 -0.0377 -0.0870
  129loPI   C3A 2057   1.719   9.954   9.228  0.1020 -0.0211 -0.0008
  129loPI   C4A 2058   1.676  10.090   8.823 -0.0096  0.3968 -0.0021
  129loPI   C5A 2059   1.654  10.027   8.280 -0.2348 -0.2123 -0.1337
  129loPI   C6A 2060   1.539   9.775   8.023  0.3744  0.0805  0.1006
  129loPI   C1B 2061   1.735  10.518   9.867 -0.1880 -0.3501  0.0070
  129loPI   C2B 2062   1.770  10.445   9.376  0.2359 -0.1560 -0.5281
  129loPI   C3B 2063   1.825  10.490   8.971 -0.3309  0.0069  0.3131
  129loPI   C4B 2064   1.878  10.537   8.534 -0.0398  0.1679 -0.2531
  130loPI    C1 2065   8.149  13.225  10.766 -0.0257  0.0889 -0.1245
  130loPI    C2 2066   8.137  13.459  11.090 -0.0553 -0.0544 -0.0210
  130loPI    C3 2067   8.446  13.211  11.034 -0.1415 -0.1659 -0.0061
  130loPI   PO4 2068   8.066  13.370  10.530 -0.1073  0.0294  0.0659
  130loPI   GL1 2069   8.063  13.729  10.192  0.0313 -0.2398  0.1135
  130loPI   GL2 2070   8.244  13.599  10.062 -0.0405  0.1522  0.3292
  130loPI   C1A 2071   8.186  14.050   9.806 -0.1155  0.4012 -0.2231
  130loPI   C2A 2072   8.187  14.127   9.360 -0.1256 -0.2698 -0.0314
  130loPI   C3A 2073   8.148  14.064   8.929  0.3359 -0.2353  0.2808
  130loPI   C4A 2074   8.146  14.125   8.517  0.4803 -0.3539 -0.3682
  130loPI   C5A 2075   8.007  14.312   8.107  0.1167  0.1058 -0.2388
  130loPI   C6A 2076   7.699  14.464   7.730 -0.2572  0.0174  0.2571
  130loPI   C1B 2077   8.192  13.596   9.593  0.4629  0.1438 -0.0231
  130loPI   C2B 2078   8.143  13.612   9.175  0.0982  0.0917  0.1909
  130loPI   C3B 2079   8.151  13.669   8.695  0.2888  0.0997  0.0352
  130loPI   C4B 2080   8.062  13.780   8.224  0.1962 -0.1808 -0.3006
  131loPI    C1 2081  15.955   5.447  10.463 -0.1349 -0.0108  0.0077
  131loPI    C2 2082  16.137   5.750  10.650  0.0664 -0.0140 -0.1806
  131loPI    C3 2083  15.872   5.525  10.847  0.0711  0.1534  0.0204
  131loPI   PO4 2084  16.026   5.542  10.148 -0.0679 -0.1426 -0.1937
  131loPI   GL1 2085  16.230   5.677   9.886  0.1018 -0.0047  0.4771
  131loPI   GL2 2086  16.566   5.978   9.929 -0.0636 -0.1933 -0.0329
  131loPI   C1A 2087  16.055   5.668   9.503  0.0861  0.1722 -0.0659
  131loPI   C2A 2088  15.965   5.593   9.035 -0.0936 -0.0606 -0.1790
  131loPI   C3A 2089  16.060   5.378   8.659  0.0126 -0.1298 -0.1209
  131loPI   C4A 2090  16.038   5.197   8.328  0.2316 -0.1918  0.0630
  131loPI   C5A 2091  16.244   4.887   8.029  0.1680  0.3110  0.2134
  131loPI   C6A 2092  16.567   4.644   7.925  0.1467 -0.4313 -0.2737
  131loPI   C1B 2093  16.519   5.883   9.460 -0.0046 -0.4370  0.0207
  131loPI   C2B 2094  16.557   5.913   8.945 -0.1048 -0.1697 -0.0103
  131loPI   C3B 2095  16.425   5.888   8.536 -0.3043 -0.0729 -0.1582
  131loPI   C4B 2096  16.182   5.821   8.128  0.1297 -0.1491  0.2019
  132loPI    C1 2097   3.839   9.294  11.157 -0.1084  0.1976 -0.0055
  132loPI    C2 2098   4.025   9.155  11.483 -0.1689  0.0360 -0.0391
  132loPI    C3 2099   3.989   9.549  11.425 -0.2621  0.0657  0.2092
  132loPI   PO4 2100   3.980   9.194  10.962  0.0370 -0.0457  0.1094
  132loPI   GL1 2101   3.961   9.293  10.485 -0.3474 -0.2404 -0.0704
  132loPI   GL2 2102   3.945   8.841  10.486 -0.0105 -0.3533  0.1948
  132loPI   C1A 2103   3.958   9.205  10.066  0.2417  0.1878  0.1181
  132loPI   C2A 2104   3.938   9.161   9.626 -0.0954  0.0118  0.0630
  132loPI   C3A 2105   4.027   9.208   9.150 -0.0828 -0.3381 -0.3273
  132loPI   C4A 2106   3.940   9.068   8.725 -0.0048  0.0383 -0.0270
  132loPI   C5A 2107   3.806   9.067   8.309  0.1391  0.0913 -0.0409
  132loPI   C6A 2108   3.458   9.085   7.952 -0.0956 -0.0811 -0.0529
  132loPI   C1B 2109   3.893   8.645  10.095 -0.4128 -0.2473  0.4806
  132loPI   C2B 2110   3.926   8.666   9.650 -0.0116  0.0071 -0.1954
  132loPI   C3B 2111   3.871   8.560   9.150 -0.0479  0.2357  0.0090
  132loPI   C4B 2112   4.007   8.538   8.746  0.0005 -0.0779  0.3694
  133loPI    C1 2113   2.388  16.752  10.512  0.0304 -0.2023  0.0299
  133loPI    C2 2114   2.211  16.471  10.734  0.0305 -0.1708  0.0699
  133loPI    C3 2115   2.529  16.667  10.877 -0.1237  0.0283  0.1463
  133loPI   PO4 2116   2.329  16.743  10.254  0.1372  0.2570  0.2151
  133loPI   GL1 2117   2.016  16.844   9.945  0.0445 -0.1766 -0.2049
  133loPI   GL2 2118   2.299  16.948   9.770  0.1731  0.0836  0.0548
  133loPI   C1A 2119   2.037  16.541   9.557  0.0414  0.1980  0.0095
  133loPI   C2A 2120   2.132  16.462   9.120 -0.1363 -0.2639  0.0558
  133loPI   C3A 2121   1.827  16.319   8.796  0.1870  0.0539 -0.1113
  133loPI   C4A 2122   1.919  16.191   8.418 -0.1734  0.1570  0.2592
  133loPI   C5A 2123   1.981  15.724   8.244 -0.0504 -0.0925  0.2251
  133loPI   C6A 2124   1.833  15.532   7.840  0.1590 -0.1897  0.0898
  133loPI   C1B 2125   2.501  16.789   9.410 -0.2291  0.0517  0.1070
  133loPI   C2B 2126   2.607  16.773   8.998 -0.0519  0.0055  0.1252
  133loPI   C3B 2127   2.369  16.551   8.665  0.1946  0.0678  0.0481
  133loPI   C4B 2128   2.381  16.362   8.235 -0.1803 -0.3242  0.2207
  134loPI    C1 2129   7.156   1.854  10.570 -0.1331  0.1587  0.1946
  134loPI    C2 2130   6.815   1.673  10.675  0.0119 -0.0367  0.3345
  134loPI    C3 2131   7.144   1.456  10.606  0.0261  0.1212 -0.1294
  134loPI   PO4 2132   7.101   1.981  10.322  0.0128  0.1214  0.2447
  134loPI   GL1 2133   7.333   2.003   9.933 -0.0529 -0.0819  0.0995
  134loPI   GL2 2134   7.649   2.113   9.951 -0.0881  0.0330  0.1561
  134loPI   C1A 2135   7.553   1.659   9.534  0.1474  0.1763 -0.0349
  134loPI   C2A 2136   7.522   1.661   9.099  0.0370 -0.3234 -0.1602
  134loPI   C3A 2137   7.343   1.686   8.718 -0.4855  0.1290 -0.0854
  134loPI   C4A 2138   7.223   1.469   8.358  0.0551  0.2822  0.0258
  134loPI   C5A 2139   7.392   1.039   8.324 -0.1039  0.2329  0.1125
  134loPI   C6A 2140   7.806   0.913   8.435 -0.2131  0.2924 -0.0915
  134loPI   C1B 2141   7.495   2.181   9.457  0.1740  0.1569  0.3238
  134loPI   C2B 2142   7.295   2.195   9.022 -0.3073  0.4577 -0.0326
  134loPI   C3B 2143   7.323   2.365   8.611 -0.2290  0.0214  0.2189
  134loPI   C4B 2144   7.495   2.529   8.240 -0.1193 -0.0960 -0.0173
  135loPI    C1 2145   9.088   3.355  10.572  0.1870 -0.2119 -0.0230
  135loPI    C2 2146   8.882   3.202  10.879 -0.1041 -0.1319 -0.1751
  135loPI    C3 2147   9.201   3.434  10.948 -0.2671  0.0243  0.0709
  135loPI   PO4 2148   8.923   3.423  10.436 -0.0064  0.1098 -0.3933
  135loPI   GL1 2149   8.883   3.375  10.052 -0.0363  0.1443 -0.0540
  135loPI   GL2 2150   8.617   3.560   9.951  0.1921  0.1243  0.1040
  135loPI   C1A 2151   8.850   3.402   9.590  0.2132 -0.1744  0.2670
  135loPI   C2A 2152   8.754   3.522   9.267  0.0784  0.4364  0.2669
  135loPI   C3A 2153   8.796   3.582   8.889 -0.0265  0.4068 -0.0396
  135loPI   C4A 2154   8.906   3.535   8.522 -0.1125  0.1188  0.2712
  135loPI   C5A 2155   8.827   3.649   8.108 -0.0724  0.1138 -0.1891
  135loPI   C6A 2156   8.995   3.517   7.748  0.0420 -0.0739 -0.0461
  135loPI   C1B 2157   8.751   3.877   9.636  0.2548 -0.0820  0.1555
  135loPI   C2B 2158   8.679   3.985   9.210  0.1250 -0.1841  0.2463
  135loPI   C3B 2159   8.734   4.042   8.688  0.0556  0.3076  0.3356
  135loPI   C4B 2160   8.872   4.128   8.231 -0.0266  0.0325 -0.0736
  136loPI    C1 2161  12.701  13.452  10.459 -0.0225 -0.2881  0.1319
  136loPI    C2 2162  12.954  13.721  10.613  0.0489 -0.1514 -0.2151
  136loPI    C3 2163  12.595  13.666  10.780  0.0659  0.1000 -0.0906
  136loPI   PO4 2164  12.732  13.511  10.107 -0.0183  0.1881  0.0887
  136loPI   GL1 2165  12.919  13.525   9.765 -0.0594 -0.1309  0.1334
  136loPI   GL2 2166  13.109  13.286   9.633  0.1843  0.2807  0.3356
  136loPI   C1A 2167  12.766  13.753   9.423 -0.0976 -0.1563 -0.1754
  136loPI   C2A 2168  12.750  13.571   8.987  0.2889 -0.0001  0.4168
  136loPI   C3A 2169  12.704  13.748   8.523  0.3292 -0.2828  0.1710
  136loPI   C4A 2170  12.566  13.871   8.144 -0.2741 -0.3631 -0.1261
  136loPI   C5A 2171  12.028  13.851   7.892 -0.2690  0.2068 -0.3220
  136loPI   C6A 2172  11.665  13.704   7.738 -0.2133  0.0665 -0.2985
  136loPI   C1B 2173  13.135  13.457   9.224 -0.1335  0.1295  0.0265
  136loPI   C2B 2174  13.142  13.452   8.699 -0.0828  0.1114 -0.1775
  136loPI   C3B 2175  13.143  13.423   8.264  0.0872 -0.2108 -0.1406
  136loPI   C4B 2176  13.314  13.379   7.894  0.1344  0.1029 -0.1096
  137loPI    C1 2177  18.234  11.879  10.676 -0.0006 -0.1340 -0.0112
  137loPI    C2 2178  18.110  11.802  11.049  0.3297 -0.0876  0.1119
  137loPI    C3 2179  18.169  11.501  10.792 -0.2175 -0.0987 -0.0132
  137loPI   PO4 2180  18.168  12.132  10.594 -0.0507  0.0434 -0.1121
  137loPI   GL1 2181  18.377  12.510  10.397  0.0279 -0.0253 -0.4624
  137loPI   GL2 2182  18.557  12.657  10.262  0.0951  0.0306  0.0952
  137loPI   C1A 2183  18.426  12.353   9.938  0.0233  0.1515  0.1437
  137loPI   C2A 2184  18.526  12.233   9.473  0.1422 -0.2128 -0.0162
  137loPI   C3A 2185  18.461  12.245   8.992  0.1958 -0.2835  0.0834
  137loPI   C4A 2186  18.650  11.998   8.624 -0.1753 -0.2026 -0.2724
  137loPI   C5A 2187  18.630  11.738   8.266  0.2174 -0.1304 -0.2693
  137loPI   C6A 2188  18.776  11.449   7.865 -0.2099  0.1144 -0.2141
  137loPI   C1B 2189  18.117  12.708  10.034 -0.2256  0.0120 -0.0013
  137loPI   C2B 2190  17.982  12.681   9.602 -0.1037  0.2619 -0.3802
  137loPI   C3B 2191  17.990  12.614   9.171 -0.0524 -0.0023  0.1689
  137loPI   C4B 2192  18.165  12.543   8.682  0.5219  0.1287  0.0102
  138loPI    C1 2193  15.642  11.569  10.664 -0.1247  0.0311  0.0297
  138loPI    C2 2194  15.392  11.426  10.942 -0.1357 -0.0836 -0.0386
  138loPI    C3 2195  15.686  11.675  11.047 -0.1313 -0.1372  0.0781
  138loPI   PO4 2196  15.579  11.585  10.468 -0.0406  0.0566 -0.2688
  138loPI   GL1 2197  15.320  11.418  10.130  0.1540 -0.1324 -0.0358
  138loPI   GL2 2198  15.488  11.234  10.087  0.0086  0.2091 -0.3289
  138loPI   C1A 2199  15.238  11.542   9.702 -0.3438 -0.1063  0.0794
  138loPI   C2A 2200  15.186  11.744   9.288  0.0182  0.1074 -0.0698
  138loPI   C3A 2201  15.201  11.846   8.902 -0.0700 -0.0162  0.0296
  138loPI   C4A 2202  15.290  11.814   8.473 -0.1825  0.4594  0.0753
  138loPI   C5A 2203  15.188  11.768   8.098  0.1310  0.1288 -0.1388
  138loPI   C6A 2204  15.348  11.403   7.769 -0.4717  0.0622 -0.1458
  138loPI   C1B 2205  15.613  11.028   9.735 -0.0423 -0.0445 -0.0030
  138loPI   C2B 2206  16.001  10.943   9.568  0.2624 -0.6749  0.3705
  138loPI   C3B 2207  16.110  10.948   9.149 -0.1582 -0.3482 -0.0043
  138loPI   C4B 2208  16.203  10.510   8.984  0.1079 -0.1477 -0.0248
  139loPI    C1 2209   1.541  14.351  10.735 -0.1058 -0.1415  0.0689
  139loPI    C2 2210   1.217  14.260  10.951 -0.0814 -0.1836  0.0878
  139loPI    C3 2211   1.578  14.142  11.074 -0.0878 -0.3863 -0.0817
  139loPI   PO4 2212   1.545  14.339  10.456  0.0536 -0.0195 -0.0611
  139loPI   GL1 2213   1.638  14.532  10.040  0.2604 -0.3434 -0.1047
  139loPI   GL2 2214   1.294  14.414  10.009 -0.3029 -0.0722  0.0143
  139loPI   C1A 2215   1.537  14.562   9.588 -0.3015  0.2851 -0.0452
  139loPI   C2A 2216   1.324  14.507   9.169  0.0821  0.1520  0.1972
  139loPI   C3A 2217   1.417  14.365   8.789 -0.1874  0.0950  0.4267
  139loPI   C4A 2218   1.332  14.489   8.409  0.1404 -0.1804  0.5203
  139loPI   C5A 2219   0.964  14.449   8.038 -0.0394  0.0588  0.0588
  139loPI   C6A 2220   0.835  14.361   7.644  0.3304  0.1513 -0.0505
  139loPI   C1B 2221   1.054  14.340   9.620  0.0249 -0.4273 -0.2222
  139loPI   C2B 2222   0.902  14.091   9.267 -0.0794 -0.0206 -0.4209
  139loPI   C3B 2223   0.997  14.124   8.848 -0.2043 -0.1703  0.3464
  139loPI   C4B 2224   0.893  14.124   8.400 -0.1190  0.0563 -0.2493
  140loPI    C1 2225   3.482   3.183  10.272  0.0997 -0.0253  0.0380
  140loPI    C2 2226   3.142   3.298  10.448  0.0649 -0.1437  0.0487
  140loPI    C3 2227   3.479   3.270  10.662  0.0387 -0.2158  0.0808
  140loPI   PO4 2228   3.390   3.274  10.027  0.1311  0.1701 -0.2425
  140loPI   GL1 2229   3.454   2.937   9.726 -0.3883 -0.0553  0.0958
  140loPI   GL2 2230   3.843   2.853   9.588 -0.0956 -0.3052  0.1758
  140loPI   C1A 2231   3.225   2.857   9.261  0.0004 -0.0645 -0.1707
  140loPI   C2A 2232   3.412   2.740   8.921 -0.2418 -0.1875  0.3291
  140loPI   C3A 2233   3.589   2.650   8.644  0.0166 -0.4368  0.0099
  140loPI   C4A 2234   3.678   2.496   8.229  0.4187 -0.2684 -0.1963
  140loPI   C5A 2235   4.039   2.625   7.894 -0.2393 -0.0566 -0.2405
  140loPI   C6A 2236   4.340   2.386   7.783  0.1734  0.2601  0.0950
  140loPI   C1B 2237   3.759   2.998   9.241 -0.1522 -0.0049 -0.2152
  140loPI   C2B 2238   3.898   3.071   8.832 -0.1141  0.1754 -0.3521
  140loPI   C3B 2239   4.023   2.826   8.476  0.4559 -0.1437  0.1770
  140loPI   C4B 2240   4.263   3.046   8.121 -0.2043 -0.1910 -0.1409
  141loPI    C1 2241   9.873  17.242  10.338 -0.2793 -0.0738 -0.0148
  141loPI    C2 2242   9.751  17.622  10.333  0.0787  0.0452  0.0045
  141loPI    C3 2243  10.096  17.525  10.511 -0.0078 -0.2894 -0.0035
  141loPI   PO4 2244   9.819  17.111  10.050  0.0638 -0.2838  0.1674
  141loPI   GL1 2245   9.572  17.032   9.664 -0.0183 -0.1607  0.1526
  141loPI   GL2 2246   9.398  16.705   9.557  0.3876 -0.2475  0.0491
  141loPI   C1A 2247   9.629  17.116   9.260 -0.2471 -0.0657 -0.1547
  141loPI   C2A 2248   9.774  16.948   8.943 -0.5051  0.1656  0.0863
  141loPI   C3A 2249   9.512  16.976   8.565  0.0989  0.1559 -0.1182
  141loPI   C4A 2250   9.308  17.323   8.367 -0.1932  0.0282  0.1446
  141loPI   C5A 2251   9.137  17.458   7.925  0.1286 -0.2296 -0.1561
  141loPI   C6A 2252   8.985  17.434   7.594 -0.0603 -0.0437 -0.0201
  141loPI   C1B 2253   9.468  16.552   9.075 -0.0024 -0.0859 -0.3367
  141loPI   C2B 2254   9.229  16.506   8.656  0.2560 -0.1708  0.0813
  141loPI   C3B 2255   9.221  16.604   8.257 -0.3187 -0.1823 -0.1138
  141loPI   C4B 2256   9.272  16.945   7.964 -0.1998  0.0795 -0.0374
  142loPI    C1 2257  12.375   7.583  10.415 -0.2692 -0.1413  0.0257
  142loPI    C2 2258  12.414   7.291  10.685  0.0634 -0.0038  0.1305
  142loPI    C3 2259  12.353   7.668  10.805 -0.1532  0.0035  0.0018
  142loPI   PO4 2260  12.406   7.512  10.211  0.1680 -0.1972  0.1002
  142loPI   GL1 2261  12.221   7.371   9.906  0.1878 -0.2290 -0.0066
  142loPI   GL2 2262  11.954   7.441   9.723  0.0098  0.1604 -0.1445
  142loPI   C1A 2263  12.505   7.185   9.456  0.2120 -0.0495  0.3004
  142loPI   C2A 2264  12.481   7.181   9.025  0.1639 -0.1192 -0.0468
  142loPI   C3A 2265  12.435   7.189   8.605 -0.0643 -0.0317  0.1312
  142loPI   C4A 2266  12.245   7.243   8.216 -0.0699  0.0726  0.0562
  142loPI   C5A 2267  11.931   7.036   7.886 -0.1351  0.1946  0.0249
  142loPI   C6A 2268  11.902   6.566   7.844 -0.0230 -0.1202  0.1215
  142loPI   C1B 2269  12.053   7.402   9.381 -0.2141 -0.0351  0.0807
  142loPI   C2B 2270  12.033   7.432   8.893  0.2394 -0.0569 -0.4748
  142loPI   C3B 2271  12.071   7.594   8.575 -0.1060 -0.2040 -0.1657
  142loPI   C4B 2272  12.183   7.717   8.162  0.1496 -0.0625  0.1995
  143loPI    C1 2273   4.892  12.655  10.625 -0.2483  0.0766 -0.1266
  143loPI    C2 2274   5.051  12.753  10.272 -0.1116  0.4040  0.0223
  143loPI    C3 2275   5.256  12.819  10.609 -0.2909  0.2070  0.1726
  143loPI   PO4 2276   4.689  12.450  10.552  0.0239  0.3375 -0.0562
  143loPI   GL1 2277   4.656  12.448  10.183 -0.0289 -0.1372  0.2871
  143loPI   GL2 2278   4.395  12.621   9.955  0.1844  0.0841  0.3391
  143loPI   C1A 2279   4.850  12.775   9.777 -0.1224 -0.0736  0.0307
  143loPI   C2A 2280   4.976  12.820   9.371  0.3321 -0.0810  0.1602
  143loPI   C3A 2281   4.915  12.827   8.925 -0.3297 -0.1061 -0.2292
  143loPI   C4A 2282   4.892  12.810   8.479 -0.5328 -0.1628  0.0113
  143loPI   C5A 2283   4.854  12.813   8.072 -0.0258 -0.0330  0.0576
  143loPI   C6A 2284   4.859  13.010   7.763 -0.0128 -0.0443  0.0515
  143loPI   C1B 2285   4.473  12.580   9.515 -0.1127 -0.1181 -0.0481
  143loPI   C2B 2286   4.428  12.523   9.097 -0.2002  0.3299 -0.3030
  143loPI   C3B 2287   4.546  12.564   8.758 -0.3100  0.2133  0.3951
  143loPI   C4B 2288   4.504  12.474   8.300 -0.2178 -0.0391  0.2375
  144loPI    C1 2289  13.101  17.362  10.348 -0.2912 -0.1479 -0.0384
  144loPI    C2 2290  12.905  17.329  10.695 -0.0860  0.0072  0.0944
  144loPI    C3 2291  13.243  17.543  10.675  0.0517 -0.2261 -0.1394
  144loPI   PO4 2292  12.927  17.426  10.122  0.0417 -0.4920 -0.3341
  144loPI   GL1 2293  12.901  17.433   9.628  0.0977 -0.0696  0.0707
  144loPI   GL2 2294  13.107  17.180   9.541  0.0034 -0.0192  0.1171
  144loPI   C1A 2295  12.759  17.343   9.225  0.0841 -0.4600  0.0878
  144loPI   C2A 2296  12.806  17.620   8.785  0.1649  0.0787  0.0488
  144loPI   C3A 2297  12.594  17.361   8.391  0.2925  0.0667 -0.1204
  144loPI   C4A 2298  12.737  17.282   8.001 -0.3137 -0.4230 -0.2484
  144loPI   C5A 2299  13.053  17.099   7.678 -0.0012  0.0757 -0.4349
  144loPI   C6A 2300  13.120  16.608   7.778  0.3385 -0.0915  0.1888
  144loPI   C1B 2301  13.214  17.127   9.100  0.3591 -0.3206  0.2316
  144loPI   C2B 2302  13.202  17.212   8.648 -0.3041  0.0505  0.1259
  144loPI   C3B 2303  13.324  17.330   8.115  0.1158  0.0687  0.0724
  144loPI   C4B 2304  13.438  17.490   7.661  0.0268 -0.0963  0.2800
  145loPI    C1 2305  11.989  10.553  10.142 -0.0274 -0.2514  0.0961
  145loPI    C2 2306  11.837  10.275   9.898 -0.0745  0.0345 -0.2086
  145loPI    C3 2307  11.594  10.535  10.079 -0.0298 -0.1120  0.0667
  145loPI   PO4 2308  12.182  10.654   9.988 -0.1858  0.1232 -0.0423
  145loPI   GL1 2309  12.188  10.800   9.521 -0.0146 -0.0409 -0.1245
  145loPI   GL2 2310  12.106  10.436   9.509 -0.0628  0.0668  0.0767
  145loPI   C1A 2311  11.995  10.859   9.040 -0.4050 -0.0624  0.1031
  145loPI   C2A 2312  12.019  11.024   8.692  0.0609 -0.1292  0.1514
  145loPI   C3A 2313  11.897  11.050   8.193 -0.2361 -0.2751 -0.3206
  145loPI   C4A 2314  11.548  11.114   7.949 -0.1064 -0.3284  0.3562
  145loPI   C5A 2315  11.129  10.929   7.809  0.2402 -0.0397  0.1201
  145loPI   C6A 2316  10.746  11.167   7.746  0.1106 -0.0072 -0.0325
  145loPI   C1B 2317  12.025  10.210   9.044  0.0717 -0.1030  0.2233
  145loPI   C2B 2318  11.902  10.501   8.658  0.2961 -0.0803  0.0657
  145loPI   C3B 2319  11.787  10.574   8.245  0.1117 -0.0915  0.0735
  145loPI   C4B 2320  12.058  10.604   7.869 -0.1336 -0.2089 -0.0556
  146loPI    C1 2321   0.555  12.736  10.919 -0.0694 -0.2137 -0.1519
  146loPI    C2 2322   0.472  12.390  11.102 -0.2953 -0.1153 -0.0644
  146loPI    C3 2323   0.631  12.693  11.310 -0.1311 -0.1536 -0.1329
  146loPI   PO4 2324   0.554  12.667  10.703  0.2294 -0.1214  0.0596
  146loPI   GL1 2325   0.495  12.639  10.290  0.1020 -0.1879  0.0899
  146loPI   GL2 2326   0.353  12.972  10.285  0.1185 -0.0893 -0.1760
  146loPI   C1A 2327   0.333  12.533   9.872  0.2006 -0.0173  0.0214
  146loPI   C2A 2328   0.419  12.496   9.438 -0.0943 -0.3881 -0.2965
  146loPI   C3A 2329   0.392  12.412   9.035  0.0840 -0.0015  0.3271
  146loPI   C4A 2330   0.477  12.362   8.604 -0.1891  0.0058 -0.2528
  146loPI   C5A 2331   0.438  12.133   8.207  0.2371 -0.4479 -0.3148
  146loPI   C6A 2332   0.246  11.936   7.827 -0.3859  0.2105  0.2401
  146loPI   C1B 2333   0.528  13.035   9.932  0.0210 -0.0587  0.1302
  146loPI   C2B 2334   0.410  13.001   9.556  0.1617  0.0132 -0.0994
  146loPI   C3B 2335   0.392  12.909   9.075 -0.3444 -0.0449  0.2106
  146loPI   C4B 2336   0.549  12.849   8.733 -0.1213  0.0369 -0.2498
  147loPI    C1 2337  14.179  13.391  10.615 -0.2584 -0.0112  0.0381
  147loPI    C2 2338  14.227  13.053  10.405  0.0202  0.1004 -0.0830
  147loPI    C3 2339  14.389  13.088  10.769 -0.1429  0.0463 -0.0045
  147loPI   PO4 2340  14.403  13.595  10.480  0.1122 -0.1320 -0.4707
  147loPI   GL1 2341  14.335  13.615  10.056  0.0921 -0.1803 -0.3094
  147loPI   GL2 2342  14.570  13.402  10.042 -0.1419 -0.1951  0.0279
  147loPI   C1A 2343  14.122  13.544   9.586  0.1351 -0.1388  0.0375
  147loPI   C2A 2344  14.124  13.671   9.181 -0.1095  0.2806 -0.0214
  147loPI   C3A 2345  14.164  13.772   8.891  0.0681  0.2936 -0.1297
  147loPI   C4A 2346  14.029  13.826   8.457  0.3710 -0.0662 -0.1664
  147loPI   C5A 2347  14.200  14.006   8.014 -0.0906 -0.0417 -0.3075
  147loPI   C6A 2348  14.298  14.279   7.635 -0.4360  0.1122  0.1043
  147loPI   C1B 2349  14.537  13.291   9.686  0.0925 -0.1700 -0.1419
  147loPI   C2B 2350  14.497  13.353   9.276  0.1054 -0.0836  0.2028
  147loPI   C3B 2351  14.597  13.370   8.839 -0.4050  0.0403 -0.1202
  147loPI   C4B 2352  14.771  13.336   8.461  0.2300 -0.2157 -0.0564
  148loPI    C1 2353  10.075  13.913  10.571 -0.0043 -0.0603  0.0112
  148loPI    C2 2354  10.127  14.302  10.646 -0.0188 -0.0767  0.1082
  148loPI    C3 2355  10.083  14.045  10.949  0.0479 -0.1619  0.0459
  148loPI   PO4 2356  10.268  14.013  10.261  0.1109  0.1640  0.0797
  148loPI   GL1 2357  10.119  14.018   9.816 -0.0249 -0.0154 -0.2555
  148loPI   GL2 2358   9.845  14.222   9.728  0.0210 -0.0225  0.0059
  148loPI   C1A 2359  10.383  13.963   9.527 -0.2515  0.0647  0.0613
  148loPI   C2A 2360  10.393  13.931   9.037 -0.2590  0.0284  0.3281
  148loPI   C3A 2361  10.578  13.922   8.742  0.0576  0.2850 -0.0419
  148loPI   C4A 2362  10.580  13.954   8.276  0.0268 -0.2040 -0.0722
  148loPI   C5A 2363  10.455  14.189   7.936  0.2255 -0.0666 -0.0713
  148loPI   C6A 2364  10.157  14.437   7.832  0.0954 -0.0669 -0.0210
  148loPI   C1B 2365   9.918  14.115   9.279 -0.0732  0.0357 -0.1027
  148loPI   C2B 2366   9.992  14.182   8.881  0.1114 -0.1568 -0.0597
  148loPI   C3B 2367  10.128  14.160   8.550  0.1969  0.2389  0.0848
  148loPI   C4B 2368  10.090  14.067   8.276 -0.1587  0.0014 -0.1220
  149loPI    C1 2369  13.676  14.887  10.261 -0.1036  0.1507 -0.3855
  149loPI    C2 2370  13.534  15.251  10.345  0.0084  0.1229 -0.0623
  149loPI    C3 2371  13.863  15.117  10.529 -0.1106 -0.1961 -0.0742
  149loPI   PO4 2372  13.674  14.885  10.018  0.1295  0.2419  0.0312
  149loPI   GL1 2373  13.975  14.804   9.633  0.0685 -0.2171  0.2211
  149loPI   GL2 2374  14.163  14.514   9.624  0.0589  0.2425 -0.0362
  149loPI   C1A 2375  14.187  14.920   9.245  0.0912  0.4438 -0.0483
  149loPI   C2A 2376  14.368  14.795   8.835 -0.2018  0.3239  0.0447
  149loPI   C3A 2377  14.329  14.879   8.469  0.1579  0.0564  0.1238
  149loPI   C4A 2378  14.225  15.070   8.062  0.2795  0.1211 -0.1110
  149loPI   C5A 2379  13.742  15.189   7.814  0.0115  0.2498 -0.1356
  149loPI   C6A 2380  13.443  15.488   7.605  0.0736  0.0277 -0.3117
  149loPI   C1B 2381  14.190  14.235   9.289  0.4489  0.0294  0.4389
  149loPI   C2B 2382  14.308  14.277   8.864  0.1304  0.1245  0.2090
  149loPI   C3B 2383  14.511  14.244   8.521  0.2561  0.1268 -0.1160
  149loPI   C4B 2384  14.627  14.219   8.054  0.0940  0.0682 -0.1273
  150loPI    C1 2385  17.118  14.844  10.583  0.0146 -0.1904  0.1954
  150loPI    C2 2386  16.938  14.954  10.923  0.1405  0.0258  0.1941
  150loPI    C3 2387  17.331  15.013  10.876  0.1042  0.0994 -0.0315
  150loPI   PO4 2388  17.039  14.862  10.437 -0.0332  0.0464  0.2973
  150loPI   GL1 2389  16.887  14.713  10.132  0.0007 -0.0206 -0.0430
  150loPI   GL2 2390  16.818  15.107   9.902  0.0877 -0.2428 -0.2615
  150loPI   C1A 2391  16.986  14.431   9.818  0.1603 -0.0129 -0.2779
  150loPI   C2A 2392  17.139  14.217   9.515  0.0463 -0.0617  0.0546
  150loPI   C3A 2393  17.284  14.193   9.007  0.0379 -0.0133 -0.2195
  150loPI   C4A 2394  17.299  14.264   8.696  0.3021 -0.0017 -0.1758
  150loPI   C5A 2395  17.254  14.212   8.347 -0.0735  0.1275  0.2161
  150loPI   C6A 2396  17.401  14.288   7.969 -0.0972 -0.0008 -0.1742
  150loPI   C1B 2397  17.097  14.925   9.620 -0.1457  0.2109 -0.0674
  150loPI   C2B 2398  17.165  14.680   9.302 -0.3803  0.0140 -0.3903
  150loPI   C3B 2399  17.167  14.817   8.917  0.0393  0.1585  0.2777
  150loPI   C4B 2400  17.211  14.843   8.454 -0.0114  0.1557  0.2469
  151loPI    C1 2401   7.467   6.377  11.001  0.0990  0.2794 -0.0427
  151loPI    C2 2402   7.769   6.623  11.093  0.1076  0.1728  0.2226
  151loPI    C3 2403   7.578   6.424  11.383 -0.0709  0.0669  0.0347
  151loPI   PO4 2404   7.567   6.229  10.845 -0.0760  0.1729  0.0070
  151loPI   GL1 2405   7.465   6.136  10.423  0.1741  0.2588 -0.0615
  151loPI   GL2 2406   7.168   5.893  10.249 -0.1342 -0.0165  0.2843
  151loPI   C1A 2407   7.568   6.274   9.985 -0.3765 -0.2501 -0.0046
  151loPI   C2A 2408   7.478   6.320   9.602  0.1771  0.2104 -0.0965
  151loPI   C3A 2409   7.408   6.458   9.252 -0.4795  0.1011 -0.1583
  151loPI   C4A 2410   7.428   6.498   8.799 -0.1246  0.2615 -0.2113
  151loPI   C5A 2411   7.481   6.541   8.441  0.4053  0.0213 -0.0949
  151loPI   C6A 2412   7.230   6.688   8.040 -0.1180 -0.2801  0.0196
  151loPI   C1B 2413   7.031   5.978   9.726 -0.0301 -0.3704 -0.3938
  151loPI   C2B 2414   7.004   6.084   9.327  0.0081  0.2309 -0.0715
  151loPI   C3B 2415   7.006   6.191   8.926  0.1474  0.0237  0.0479
  151loPI   C4B 2416   6.983   6.197   8.481  0.2214 -0.0028 -0.0643
  152loPI    C1 2417  16.247  12.915  10.685  0.0358  0.0261  0.1943
  152loPI    C2 2418  15.984  13.215  10.709 -0.0914 -0.0791  0.1294
  152loPI    C3 2419  16.255  13.163  10.998 -0.0507  0.1142  0.1273
  152loPI   PO4 2420  16.414  12.984  10.436 -0.1210 -0.3104  0.0462
  152loPI   GL1 2421  16.635  13.073  10.054 -0.0932  0.1686 -0.0424
  152loPI   GL2 2422  16.579  13.348  10.040  0.0889 -0.1207 -0.0710
  152loPI   C1A 2423  16.677  12.887   9.728  0.3908  0.0975 -0.3030
  152loPI   C2A 2424  16.725  12.911   9.383  0.3577  0.1524  0.0908
  152loPI   C3A 2425  16.810  12.961   8.924  0.1404  0.3273 -0.1182
  152loPI   C4A 2426  16.783  12.880   8.476  0.0475  0.1603 -0.2898
  152loPI   C5A 2427  16.977  12.977   8.145 -0.0991  0.2639 -0.2481
  152loPI   C6A 2428  17.047  13.428   7.951 -0.0515 -0.1314  0.0994
  152loPI   C1B 2429  16.563  13.342   9.598  0.1914  0.2411  0.1165
  152loPI   C2B 2430  16.731  13.431   9.307  0.0222  0.2483 -0.0594
  152loPI   C3B 2431  16.823  13.480   8.919  0.0694 -0.0725  0.2030
  152loPI   C4B 2432  16.779  13.440   8.419 -0.0402 -0.0582  0.1392
  153loPI    C1 2433  14.835   9.497  10.536  0.3511 -0.1318  0.2100
  153loPI    C2 2434  14.632   9.760  10.759 -0.1821 -0.4043  0.0641
  153loPI    C3 2435  14.904   9.522  10.929  0.0137 -0.0450  0.2675
  153loPI   PO4 2436  14.861   9.560  10.250 -0.0365  0.0704 -0.1339
  153loPI   GL1 2437  15.143   9.835  10.021 -0.1001  0.1591 -0.0379
  153loPI   GL2 2438  15.335   9.547  10.057  0.2191  0.1566  0.0176
  153loPI   C1A 2439  15.075   9.837   9.639 -0.0083 -0.1712 -0.3065
  153loPI   C2A 2440  15.080   9.555   9.388  0.4937  0.0681  0.0936
  153loPI   C3A 2441  15.234   9.431   8.982  0.0734  0.2898 -0.1901
  153loPI   C4A 2442  15.397   9.451   8.616  0.0509 -0.2483 -0.4510
  153loPI   C5A 2443  15.489   9.509   8.217 -0.4075 -0.2153 -0.1019
  153loPI   C6A 2444  15.588   9.694   7.859 -0.2044 -0.1861  0.1411
  153loPI   C1B 2445  15.512   9.526   9.588  0.0842  0.1445  0.0528
  153loPI   C2B 2446  15.683   9.500   9.221  0.0742  0.0655  0.1878
  153loPI   C3B 2447  15.704   9.718   8.946 -0.1129 -0.3013  0.3906
  153loPI   C4B 2448  15.714   9.889   8.515  0.1371  0.0159  0.2199
  154loPI    C1 2449   7.195  14.350  10.119  0.0587  0.2545 -0.1269
  154loPI    C2 2450   6.886  14.122  10.006  0.1096  0.0792  0.0826
  154loPI    C3 2451   7.243  13.955  10.079  0.1713  0.2379  0.1493
  154loPI   PO4 2452   7.236  14.593  10.107 -0.1684 -0.3399  0.0252
  154loPI   GL1 2453   7.427  14.711   9.784 -0.1531 -0.0398  0.0475
  154loPI   GL2 2454   7.346  15.108   9.691  0.1400 -0.0237  0.1237
  154loPI   C1A 2455   7.360  14.629   9.383 -0.2310  0.0234  0.0343
  154loPI   C2A 2456   7.238  14.592   9.044  0.0108 -0.4186 -0.3431
  154loPI   C3A 2457   7.218  14.555   8.663 -0.1042  0.0849  0.1516
  154loPI   C4A 2458   7.219  14.645   8.239  0.1933 -0.0833 -0.0141
  154loPI   C5A 2459   7.217  14.847   7.854  0.1173 -0.0557 -0.1191
  154loPI   C6A 2460   7.216  14.716   7.492  0.1189  0.2704 -0.0670
  154loPI   C1B 2461   7.281  15.122   9.217  0.1720 -0.3595  0.0989
  154loPI   C2B 2462   7.205  15.084   8.833 -0.0235  0.0005  0.0507
  154loPI   C3B 2463   6.934  15.258   8.556 -0.0280  0.0224 -0.0656
  154loPI   C4B 2464   7.106  15.371   8.091 -0.1404 -0.1743  0.1093
  155loPI    C1 2465   4.256   3.230  10.458  0.0526 -0.0397 -0.1697
  155loPI    C2 2466   3.926   3.453  10.419 -0.0241 -0.1459 -0.1303
  155loPI    C3 2467   3.896   3.059  10.486  0.1101 -0.1452 -0.0626
  155loPI   PO4 2468   4.422   3.389  10.277  0.4427  0.1446 -0.2561
  155loPI   GL1 2469   4.642   3.494   9.849  0.4672  0.0400 -0.5078
  155loPI   GL2 2470   4.916   3.768   9.867  0.0435 -0.1440 -0.0951
  155loPI   C1A 2471   4.367   3.396   9.527  0.3022  0.1439 -0.1580
  155loPI   C2A 2472   4.104   3.382   9.120  0.1849 -0.0256 -0.2349
  155loPI   C3A 2473   3.730   3.547   9.044  0.0245 -0.0755  0.3554
  155loPI   C4A 2474   3.660   3.602   8.669 -0.1918 -0.3193 -0.1054
  155loPI   C5A 2475   3.561   3.568   8.265  0.0017 -0.0467 -0.2010
  155loPI   C6A 2476   3.911   3.392   8.074  0.1046  0.0292  0.0909
  155loPI   C1B 2477   4.700   3.770   9.501 -0.3350 -0.1062 -0.0672
  155loPI   C2B 2478   4.639   3.567   9.118 -0.1298  0.3260 -0.1385
  155loPI   C3B 2479   4.606   3.496   8.686 -0.0529 -0.0083 -0.0932
  155loPI   C4B 2480   4.199   3.398   8.487  0.1390 -0.0292  0.1823
  156loPI    C1 2481   1.131  10.699  10.895  0.0293  0.0340  0.1257
  156loPI    C2 2482   1.456  10.791  11.109  0.0132  0.2934  0.0419
  156loPI    C3 2483   1.107  10.970  11.188 -0.0759  0.1245  0.0345
  156loPI   PO4 2484   1.247  10.692  10.646 -0.0970 -0.3983 -0.0345
  156loPI   GL1 2485   1.157  10.617  10.170  0.2744 -0.0782 -0.4338
  156loPI   GL2 2486   0.853  10.470  10.173  0.1805  0.0286 -0.3389
  156loPI   C1A 2487   1.287  10.752   9.734  0.0098 -0.3447 -0.1346
  156loPI   C2A 2488   1.297  10.744   9.319  0.1729 -0.2744  0.0437
  156loPI   C3A 2489   1.278  10.915   8.964  0.2043 -0.2087 -0.0322
  156loPI   C4A 2490   1.430  10.858   8.509 -0.0691  0.2722  0.0763
  156loPI   C5A 2491   1.609  10.871   8.091  0.0207 -0.4933  0.1559
  156loPI   C6A 2492   1.948  10.929   7.959 -0.0505 -0.0777 -0.0132
  156loPI   C1B 2493   0.778  10.444   9.753 -0.1039 -0.4349 -0.0226
  156loPI   C2B 2494   0.729  10.570   9.410  0.1235  0.0755  0.2529
  156loPI   C3B 2495   0.769  10.627   8.945  0.0145  0.3479 -0.2292
  156loPI   C4B 2496   0.893  10.678   8.470  0.0786  0.1668 -0.1497
  157loPI    C1 2497  11.461  11.830  10.174  0.1503 -0.0152 -0.1917
  157loPI    C2 2498  11.847  11.796  10.078  0.2042 -0.1249  0.0549
  157loPI    C3 2499  11.697  11.582  10.380 -0.0937 -0.2249 -0.1591
  157loPI   PO4 2500  11.347  11.795   9.900 -0.2788  0.2365  0.1865
  157loPI   GL1 2501  11.558  11.605   9.515 -0.1522 -0.3530  0.1024
  157loPI   GL2 2502  11.895  11.654   9.574  0.1114 -0.2181 -0.2562
  157loPI   C1A 2503  11.702  11.483   9.151 -0.0967 -0.1451 -0.0737
  157loPI   C2A 2504  11.631  11.350   8.778 -0.2335 -0.0267 -0.0014
  157loPI   C3A 2505  11.539  11.438   8.390  0.0752  0.2725 -0.2196
  157loPI   C4A 2506  11.292  11.747   8.314 -0.0428  0.1908  0.0273
  157loPI   C5A 2507  11.311  12.190   8.329 -0.1089  0.1099  0.2815
  157loPI   C6A 2508  11.682  12.481   8.232 -0.0388 -0.1134 -0.0338
  157loPI   C1B 2509  12.143  11.758   9.237 -0.0013  0.1605  0.0277
  157loPI   C2B 2510  12.155  12.036   8.892  0.2080 -0.0655  0.0113
  157loPI   C3B 2511  12.389  11.904   8.492 -0.2240 -0.3499  0.0166
  157loPI   C4B 2512  12.599  11.839   8.168 -0.1771 -0.0513 -0.1176
  158loPI    C1 2513   5.252  11.652  10.876  0.0453  0.2149 -0.5290
  158loPI    C2 2514   5.650  11.696  10.886  0.0800 -0.1185  0.0764
  158loPI    C3 2515   5.414  11.975  11.048  0.0877 -0.1148  0.0810
  158loPI   PO4 2516   5.164  11.649  10.556 -0.2250 -0.0524  0.0340
  158loPI   GL1 2517   4.718  11.464  10.367  0.0467  0.0050 -0.2235
  158loPI   GL2 2518   4.874  11.251  10.216  0.3066 -0.1114 -0.2873
  158loPI   C1A 2519   4.863  11.736   9.955 -0.1985  0.0144 -0.1212
  158loPI   C2A 2520   4.860  11.826   9.451 -0.5243  0.1411 -0.0873
  158loPI   C3A 2521   4.984  11.783   9.064 -0.1772 -0.0182  0.0065
  158loPI   C4A 2522   5.015  11.843   8.630 -0.3463 -0.1638  0.2856
  158loPI   C5A 2523   5.186  11.621   8.323  0.2309 -0.0777  0.0514
  158loPI   C6A 2524   5.578  11.391   8.138 -0.1140 -0.1623  0.3413
  158loPI   C1B 2525   4.974  11.292   9.766 -0.0856 -0.1958 -0.1085
  158loPI   C2B 2526   4.857  11.321   9.407  0.2884 -0.2536 -0.0264
  158loPI   C3B 2527   4.915  11.223   9.075 -0.1574 -0.0659 -0.0424
  158loPI   C4B 2528   4.998  11.164   8.615  0.0371  0.1420 -0.0061
  159loPI    C1 2529   3.911  14.993  11.025  0.1888 -0.2079 -0.1058
  159loPI    C2 2530   4.294  15.103  11.064  0.0860  0.0389  0.2598
  159loPI    C3 2531   4.002  15.372  11.117 -0.1435 -0.1762  0.1100
  159loPI   PO4 2532   3.887  14.925  10.698 -0.0914  0.0003  0.1026
  159loPI   GL1 2533   3.860  14.941  10.273 -0.1618  0.1461 -0.2385
  159loPI   GL2 2534   3.708  14.680  10.035 -0.0904 -0.1795  0.0440
  159loPI   C1A 2535   4.172  14.919   9.883  0.2347 -0.0637 -0.0259
  159loPI   C2A 2536   4.167  14.831   9.436  0.1509 -0.1908 -0.0169
  159loPI   C3A 2537   4.150  14.883   8.972 -0.2734  0.2085 -0.2385
  159loPI   C4A 2538   4.105  14.915   8.567  0.1150  0.2480  0.1382
  159loPI   C5A 2539   4.009  14.856   8.109  0.4152 -0.1557  0.0761
  159loPI   C6A 2540   4.129  14.784   7.589  0.5448  0.0071 -0.2682
  159loPI   C1B 2541   3.716  14.722   9.607  0.1336  0.2965  0.0697
  159loPI   C2B 2542   3.762  14.588   9.235  0.1225  0.0349  0.0963
  159loPI   C3B 2543   3.686  14.582   8.828  0.3002  0.2873  0.1013
  159loPI   C4B 2544   3.657  14.556   8.402 -0.1606  0.0194  0.1942
  160loPI    C1 2545  15.967  12.505  10.782 -0.3495  0.0860 -0.0818
  160loPI    C2 2546  15.848  12.153  10.930  0.1172 -0.0164  0.0674
  160loPI    C3 2547  15.939  12.454  11.178  0.0969  0.0836 -0.0455
  160loPI   PO4 2548  16.004  12.471  10.541  0.4216 -0.0382 -0.3543
  160loPI   GL1 2549  15.992  12.730  10.209 -0.0882  0.1375  0.1154
  160loPI   GL2 2550  16.249  12.674   9.920  0.0068 -0.0938 -0.2273
  160loPI   C1A 2551  15.789  12.947   9.862  0.1305 -0.1601 -0.1402
  160loPI   C2A 2552  15.637  12.926   9.486 -0.0294  0.1245 -0.3409
  160loPI   C3A 2553  15.812  12.946   9.032  0.2015 -0.0097 -0.2111
  160loPI   C4A 2554  15.879  12.938   8.609  0.0752 -0.1210  0.0889
  160loPI   C5A 2555  15.923  13.019   8.257 -0.0647  0.3114  0.0501
  160loPI   C6A 2556  15.938  12.939   7.864  0.0120  0.0273 -0.0536
  160loPI   C1B 2557  16.269  12.686   9.533 -0.2933  0.2573 -0.0660
  160loPI   C2B 2558  16.285  12.609   9.154 -0.1069  0.2634  0.1263
  160loPI   C3B 2559  16.334  12.702   8.764 -0.0143 -0.1053 -0.1626
  160loPI   C4B 2560  16.298  12.736   8.286  0.2243  0.0055 -0.0023
  161loPI    C1 2561   9.325  11.380  10.687  0.1119  0.0536 -0.0167
  161loPI    C2 2562   9.648  11.520  10.878  0.1518  0.0785 -0.1021
  161loPI    C3 2563   9.537  11.139  10.925  0.1250  0.1013  0.0200
  161loPI   PO4 2564   9.345  11.433  10.454 -0.0733  0.0698 -0.3056
  161loPI   GL1 2565   9.444  11.343   9.996 -0.0768  0.1445 -0.0662
  161loPI   GL2 2566   9.294  11.035   9.977  0.0741 -0.0015  0.3818
  161loPI   C1A 2567   9.538  11.554   9.621  0.0471  0.0923  0.0120
  161loPI   C2A 2568   9.593  11.653   9.168 -0.2011  0.0419 -0.0974
  161loPI   C3A 2569   9.558  11.726   8.624  0.0515  0.2131 -0.0446
  161loPI   C4A 2570   9.392  11.874   8.125  0.1893  0.0110 -0.2990
  161loPI   C5A 2571   9.536  11.952   7.713 -0.0262 -0.1852 -0.4900
  161loPI   C6A 2572   9.451  11.687   7.427 -0.0490 -0.0966 -0.0031
  161loPI   C1B 2573   9.275  11.053   9.609  0.0519  0.0755  0.3810
  161loPI   C2B 2574   8.990  10.895   9.205 -0.0291 -0.1363  0.1135
  161loPI   C3B 2575   9.104  10.979   8.792 -0.1789  0.0137  0.1147
  161loPI   C4B 2576   9.102  10.909   8.314  0.1622 -0.1904 -0.1926
  162loPI    C1 2577  10.672  16.261  10.385  0.1284  0.1150 -0.0371
  162loPI    C2 2578  10.615  15.923  10.591 -0.1884  0.1341 -0.0876
  162loPI    C3 2579  10.803  16.232  10.762  0.1763 -0.0922 -0.0687
  162loPI   PO4 2580  10.822  16.117  10.135  0.0777 -0.1614 -0.1722
  162loPI   GL1 2581  10.719  16.021   9.688  0.3233 -0.0115 -0.2148
  162loPI   GL2 2582  10.745  16.431   9.786  0.2995  0.1863  0.1512
  162loPI   C1A 2583  10.830  15.799   9.391 -0.0567 -0.2148  0.0245
  162loPI   C2A 2584  10.856  15.781   8.939  0.0520  0.1325 -0.0049
  162loPI   C3A 2585  11.047  15.992   8.669  0.0859  0.2808  0.0393
  162loPI   C4A 2586  11.026  15.961   8.198 -0.3045 -0.1003 -0.1025
  162loPI   C5A 2587  11.064  16.162   7.829 -0.1664  0.2154  0.1707
  162loPI   C6A 2588  11.169  16.105   7.453 -0.0493  0.2397  0.0612
  162loPI   C1B 2589  10.589  16.492   9.427 -0.2080  0.2786  0.0816
  162loPI   C2B 2590  10.383  16.662   9.098 -0.1824 -0.4381  0.4944
  162loPI   C3B 2591  10.252  16.637   8.701 -0.1946  0.2496  0.1664
  162loPI   C4B 2592  10.303  16.697   8.278 -0.1368  0.1027  0.0800
  163loPI    C1 2593  12.036   5.073  10.404  0.0148 -0.1468 -0.4044
  163loPI    C2 2594  12.397   5.243  10.408 -0.1572  0.2277 -0.0108
  163loPI    C3 2595  12.230   5.121  10.751 -0.2851 -0.2120 -0.2231
  163loPI   PO4 2596  11.984   4.956  10.169  0.2214 -0.0738 -0.2546
  163loPI   GL1 2597  11.842   5.151   9.837  0.1958 -0.0950  0.0369
  163loPI   GL2 2598  11.517   5.017   9.879 -0.3048 -0.2844  0.2119
  163loPI   C1A 2599  12.022   5.277   9.476 -0.2116 -0.0306  0.0975
  163loPI   C2A 2600  12.121   5.439   9.005 -0.3892  0.3039  0.0808
  163loPI   C3A 2601  11.999   5.396   8.499 -0.2250  0.1187 -0.0679
  163loPI   C4A 2602  11.841   5.509   8.037  0.3207  0.0953  0.3596
  163loPI   C5A 2603  11.668   5.563   7.678 -0.2183 -0.1161 -0.1918
  163loPI   C6A 2604  11.234   5.512   7.565 -0.0616 -0.1216 -0.0110
  163loPI   C1B 2605  11.587   5.134   9.371 -0.0918  0.2451 -0.0662
  163loPI   C2B 2606  11.577   5.181   8.950 -0.1825  0.3127 -0.2984
  163loPI   C3B 2607  11.454   5.112   8.479 -0.2421 -0.1828 -0.0604
  163loPI   C4B 2608  11.406   5.252   8.023 -0.0156 -0.3935 -0.0637
  164loPI    C1 2609  11.001  14.768  10.520 -0.0471  0.0401  0.0650
  164loPI    C2 2610  11.358  14.737  10.698 -0.0290 -0.0584  0.0121
  164loPI    C3 2611  11.027  14.773  10.919  0.0006 -0.1064  0.0644
  164loPI   PO4 2612  11.050  14.579  10.345  0.0535  0.2269  0.0080
  164loPI   GL1 2613  11.129  14.561   9.958 -0.3358  0.0526 -0.0632
  164loPI   GL2 2614  11.453  14.482   9.832  0.1708 -0.0751  0.1733
  164loPI   C1A 2615  10.964  14.309   9.723 -0.0092 -0.2309  0.0575
  164loPI   C2A 2616  10.914  14.124   9.366  0.2735  0.0369  0.2574
  164loPI   C3A 2617  10.928  14.137   8.958 -0.3166 -0.2706  0.2303
  164loPI   C4A 2618  11.124  14.146   8.522 -0.0532  0.1422  0.3448
  164loPI   C5A 2619  10.994  14.232   8.139 -0.1012  0.2562  0.0376
  164loPI   C6A 2620  10.872  14.497   7.886 -0.1728  0.2173 -0.2809
  164loPI   C1B 2621  11.328  14.400   9.396 -0.0927  0.0898  0.2863
  164loPI   C2B 2622  11.368  14.374   8.926  0.0650  0.0272 -0.1167
  164loPI   C3B 2623  11.412  14.668   8.619 -0.2479  0.1686 -0.1797
  164loPI   C4B 2624  11.447  14.665   8.120 -0.3235  0.0214 -0.2387
  165loPI    C1 2625   5.219   3.105  10.310  0.1025 -0.1894 -0.0924
  165loPI    C2 2626   5.268   3.367  10.609  0.2362 -0.0820 -0.2072
  165loPI    C3 2627   5.297   2.974  10.680  0.1548 -0.0614 -0.0577
  165loPI   PO4 2628   5.219   3.286  10.013 -0.3639 -0.1442  0.3280
  165loPI   GL1 2629   5.348   3.530   9.615  0.1288  0.0679 -0.0630
  165loPI   GL2 2630   5.425   3.912   9.673  0.0842 -0.1578  0.0308
  165loPI   C1A 2631   5.790   3.495   9.320 -0.1756 -0.2072 -0.1781
  165loPI   C2A 2632   5.896   3.523   8.834  0.4204  0.2908  0.4466
  165loPI   C3A 2633   6.157   3.670   8.536  0.0516  0.1221  0.1481
  165loPI   C4A 2634   6.375   3.640   8.155  0.3979  0.2848 -0.0029
  165loPI   C5A 2635   6.005   3.509   7.845  0.1108 -0.0612 -0.3081
  165loPI   C6A 2636   5.808   3.348   7.568  0.2952  0.1007 -0.2079
  165loPI   C1B 2637   5.421   3.928   9.287 -0.1137  0.0334 -0.2119
  165loPI   C2B 2638   5.555   3.870   8.906 -0.3226  0.0464  0.1582
  165loPI   C3B 2639   5.569   4.023   8.499  0.3785  0.0405 -0.1848
  165loPI   C4B 2640   5.851   3.871   8.178  0.2617 -0.1376  0.3239
  166loPI    C1 2641   6.275  12.349  10.796 -0.1378 -0.0936  0.0210
  166loPI    C2 2642   6.603  12.559  10.885  0.0473 -0.3030 -0.1564
  166loPI    C3 2643   6.330  12.484  11.168  0.0938 -0.0280 -0.0359
  166loPI   PO4 2644   6.350  12.270  10.520  0.1116 -0.2409 -0.1219
  166loPI   GL1 2645   6.538  12.400  10.094 -0.1046 -0.3810 -0.2543
  166loPI   GL2 2646   6.869  12.561   9.990 -0.0130  0.0592  0.0936
  166loPI   C1A 2647   6.373  12.323   9.712 -0.3528 -0.1608 -0.0580
  166loPI   C2A 2648   6.355  12.486   9.337 -0.0975 -0.0090  0.3136
  166loPI   C3A 2649   6.360  12.513   8.925 -0.0878 -0.1377 -0.1677
  166loPI   C4A 2650   6.391  12.462   8.458  0.3489  0.0790 -0.1610
  166loPI   C5A 2651   6.244  12.507   8.008 -0.1647  0.0822  0.0501
  166loPI   C6A 2652   5.809  12.668   7.759 -0.0336  0.0570  0.2306
  166loPI   C1B 2653   6.778  12.695   9.605 -0.1678 -0.0264 -0.2164
  166loPI   C2B 2654   6.812  12.759   9.234  0.0222 -0.1381 -0.0602
  166loPI   C3B 2655   6.808  12.802   8.868 -0.1619  0.0049 -0.2826
  166loPI   C4B 2656   6.838  12.778   8.458  0.1235 -0.3265 -0.0715
  167loPI    C1 2657   5.836   9.238  10.512 -0.0511  0.1685 -0.0920
  167loPI    C2 2658   6.124   9.124  10.764 -0.0000 -0.1275 -0.2790
  167loPI    C3 2659   6.114   9.500  10.628  0.1094 -0.0298 -0.0233
  167loPI   PO4 2660   5.839   9.073  10.339  0.0488 -0.3503  0.1016
  167loPI   GL1 2661   5.771   9.211   9.962 -0.2065  0.0428  0.1160
  167loPI   GL2 2662   5.819   9.475   9.862  0.0782  0.0882 -0.2185
  167loPI   C1A 2663   5.859   9.111   9.501  0.1755  0.1149  0.1567
  167loPI   C2A 2664   5.784   9.159   9.086  0.2059 -0.1016  0.2367
  167loPI   C3A 2665   5.791   9.193   8.724 -0.2375 -0.0052 -0.0351
  167loPI   C4A 2666   5.852   9.266   8.357  0.1727 -0.1353  0.2226
  167loPI   C5A 2667   5.815   9.059   7.968 -0.1084 -0.1775  0.1562
  167loPI   C6A 2668   5.999   8.778   7.705 -0.1142  0.1044 -0.0290
  167loPI   C1B 2669   5.732   9.624   9.536 -0.0600  0.0383 -0.1939
  167loPI   C2B 2670   5.886   9.682   9.126 -0.0890 -0.0855 -0.0636
  167loPI   C3B 2671   5.846   9.665   8.664  0.1761 -0.4443 -0.0766
  167loPI   C4B 2672   5.824   9.764   8.238 -0.3209 -0.0117  0.0201
  168loPI    C1 2673  13.954   2.051  10.074  0.3896  0.0512  0.2163
  168loPI    C2 2674  13.675   1.935  10.336  0.1303 -0.2747 -0.1901
  168loPI    C3 2675  13.644   2.291  10.155  0.0743 -0.2358 -0.1046
  168loPI   PO4 2676  13.983   1.846   9.905 -0.2227  0.1733 -0.3005
  168loPI   GL1 2677  13.716   1.812   9.494 -0.0750  0.0368 -0.1203
  168loPI   GL2 2678  13.451   1.843   9.363  0.2080  0.1767 -0.4159
  168loPI   C1A 2679  13.846   1.808   9.037 -0.0693  0.0469 -0.1808
  168loPI   C2A 2680  13.902   1.804   8.661  0.0027  0.1254 -0.0208
  168loPI   C3A 2681  13.822   1.607   8.439  0.3076 -0.1360  0.1766
  168loPI   C4A 2682  13.679   1.347   8.067  0.3532  0.4178 -0.0545
  168loPI   C5A 2683  13.518   0.892   7.955  0.1311  0.2252  0.0557
  168loPI   C6A 2684  13.334   0.455   7.865 -0.1317 -0.3478 -0.2136
  168loPI   C1B 2685  13.350   1.861   8.980 -0.0508 -0.0229 -0.1174
  168loPI   C2B 2686  13.370   1.826   8.463  0.1049  0.2588 -0.1103
  168loPI   C3B 2687  13.275   1.663   8.187 -0.1377 -0.2130  0.0783
  168loPI   C4B 2688  12.868   1.660   7.967 -0.2188 -0.3129 -0.0559
  169loPI    C1 2689   2.631  11.050  10.890  0.2868 -0.1113 -0.0275
  169loPI    C2 2690   2.620  11.444  10.957  0.0887 -0.0837 -0.2106
  169loPI    C3 2691   2.427  11.194  11.203 -0.0194 -0.0432 -0.2533
  169loPI   PO4 2692   2.567  11.023  10.595  0.0310  0.1666 -0.0814
  169loPI   GL1 2693   2.639  10.910  10.154 -0.3445  0.2212  0.1056
  169loPI   GL2 2694   2.669  11.121   9.957  0.2522  0.2437  0.1588
  169loPI   C1A 2695   2.609  10.532   9.835  0.0513  0.2204 -0.1362
  169loPI   C2A 2696   2.638  10.450   9.404 -0.0348  0.1866 -0.0071
  169loPI   C3A 2697   2.730  10.566   8.956 -0.5241 -0.0889 -0.4120
  169loPI   C4A 2698   2.808  10.496   8.523  0.1022  0.4345  0.2883
  169loPI   C5A 2699   2.921  10.594   8.028  0.0254 -0.1423 -0.0094
  169loPI   C6A 2700   2.984  10.580   7.671 -0.1590  0.1298  0.2365
  169loPI   C1B 2701   2.692  10.990   9.577  0.1246 -0.0826  0.2782
  169loPI   C2B 2702   2.732  11.010   9.077 -0.4599 -0.1577  0.1586
  169loPI   C3B 2703   2.761  11.020   8.708 -0.0223  0.2501 -0.0189
  169loPI   C4B 2704   2.807  10.974   8.332  0.1476  0.0881 -0.1079
  170loPI    C1 2705   8.813  12.944  10.890  0.0607  0.0715 -0.0668
  170loPI    C2 2706   9.048  13.268  10.888 -0.1868  0.2606  0.3423
  170loPI    C3 2707   9.192  12.918  11.017  0.1863  0.1129 -0.4215
  170loPI   PO4 2708   8.688  12.980  10.669 -0.1620 -0.0851 -0.1209
  170loPI   GL1 2709   8.915  13.129  10.327  0.2397 -0.0645  0.0181
  170loPI   GL2 2710   9.015  12.861  10.103 -0.1317 -0.2967  0.0023
  170loPI   C1A 2711   9.074  13.316   9.910  0.3439 -0.0439 -0.0679
  170loPI   C2A 2712   9.051  13.148   9.535  0.3471 -0.3080 -0.0819
  170loPI   C3A 2713   9.039  12.973   9.195 -0.3745 -0.1592 -0.2066
  170loPI   C4A 2714   9.037  13.083   8.700 -0.0265  0.0365 -0.1905
  170loPI   C5A 2715   9.178  13.149   8.228  0.3415  0.1369  0.1199
  170loPI   C6A 2716   9.307  12.821   7.834 -0.1582 -0.0772  0.3200
  170loPI   C1B 2717   8.685  12.817   9.866  0.2486  0.1382  0.0791
  170loPI   C2B 2718   8.591  12.817   9.389  0.1434 -0.1224  0.1016
  170loPI   C3B 2719   8.539  12.693   9.015  0.0909 -0.1003  0.1204
  170loPI   C4B 2720   8.615  12.885   8.618 -0.3023  0.0320  0.1657
  171loPI    C1 2721   0.237   5.499  10.908  0.4343  0.3477  0.1615
  171loPI    C2 2722  -0.020   5.800  10.966  0.0167 -0.0447  0.4080
  171loPI    C3 2723   0.028   5.520  11.248  0.1032 -0.4242  0.0272
  171loPI   PO4 2724   0.222   5.387  10.561  0.0955  0.2350  0.1657
  171loPI   GL1 2725   0.453   5.499  10.125  0.0875 -0.2854  0.1733
  171loPI   GL2 2726   0.112   5.538  10.083  0.1744 -0.1978 -0.1240
  171loPI   C1A 2727   0.670   5.329   9.816  0.1336 -0.4007 -0.2308
  171loPI   C2A 2728   0.706   5.322   9.393  0.1423  0.2645 -0.3112
  171loPI   C3A 2729   0.720   5.346   8.963 -0.3689 -0.2934  0.1430
  171loPI   C4A 2730   0.919   5.490   8.555  0.1479  0.0798  0.1410
  171loPI   C5A 2731   0.927   5.606   8.101 -0.0701 -0.0482  0.2802
  171loPI   C6A 2732   0.772   5.901   7.875 -0.2167  0.0554 -0.0368
  171loPI   C1B 2733   0.232   5.581   9.638  0.0811 -0.3494 -0.3330
  171loPI   C2B 2734   0.261   5.549   9.248 -0.1472 -0.3645  0.1980
  171loPI   C3B 2735   0.170   5.613   8.816 -0.1184  0.0065 -0.1794
  171loPI   C4B 2736   0.420   5.369   8.519 -0.0108 -0.1901  0.2841
  172loPI    C1 2737  13.851   8.659  10.647  0.3063 -0.1220  0.0040
  172loPI    C2 2738  13.987   8.295  10.739 -0.0875 -0.2565  0.0729
  172loPI    C3 2739  13.814   8.520  11.020 -0.0317 -0.0990 -0.0178
  172loPI   PO4 2740  13.783   8.620  10.428  0.6057  0.0808  0.3229
  172loPI   GL1 2741  13.569   8.357  10.008  0.0881  0.1525 -0.3592
  172loPI   GL2 2742  13.609   8.537   9.895 -0.0819  0.1442 -0.0136
  172loPI   C1A 2743  13.590   8.153   9.620  0.2614  0.0259  0.0916
  172loPI   C2A 2744  13.800   8.123   9.197 -0.0773 -0.0236 -0.0684
  172loPI   C3A 2745  14.004   8.122   8.830 -0.0727 -0.0168 -0.0660
  172loPI   C4A 2746  13.971   8.128   8.387  0.2055  0.1214  0.2384
  172loPI   C5A 2747  14.211   7.984   8.102 -0.0431 -0.2301 -0.0459
  172loPI   C6A 2748  14.511   8.051   7.853  0.0348 -0.0591 -0.1134
  172loPI   C1B 2749  13.844   8.623   9.626 -0.1277 -0.2207 -0.0848
  172loPI   C2B 2750  13.886   8.645   9.207  0.1316 -0.1407 -0.3581
  172loPI   C3B 2751  13.971   8.679   8.816  0.2332 -0.0317 -0.2405
  172loPI   C4B 2752  14.013   8.680   8.424  0.4050 -0.3090 -0.1678
  173loPI    C1 2753   7.310   2.805  10.894 -0.0263  0.1124 -0.0588
  173loPI    C2 2754   7.061   3.114  10.836 -0.1789 -0.0019 -0.0184
  173loPI    C3 2755   6.963   2.823  11.093  0.1160  0.0827  0.1952
  173loPI   PO4 2756   7.382   2.814  10.622  0.2153 -0.1306  0.0603
  173loPI   GL1 2757   7.153   2.834  10.263 -0.0957  0.0328  0.4187
  173loPI   GL2 2758   7.426   3.052  10.126  0.1780  0.2963  0.2792
  173loPI   C1A 2759   7.046   2.872   9.830  0.3017  0.3284  0.2604
  173loPI   C2A 2760   6.982   2.957   9.385 -0.0891  0.0954 -0.1436
  173loPI   C3A 2761   7.001   3.044   8.897  0.3653 -0.1851  0.1423
  173loPI   C4A 2762   7.016   3.131   8.537 -0.1017  0.1869 -0.2941
  173loPI   C5A 2763   7.083   2.838   8.219 -0.0621  0.0402 -0.1817
  173loPI   C6A 2764   7.091   2.501   7.896  0.1832  0.2974 -0.0360
  173loPI   C1B 2765   7.415   3.149   9.709 -0.1782 -0.0302  0.0805
  173loPI   C2B 2766   7.392   3.258   9.271 -0.3688  0.1337  0.2395
  173loPI   C3B 2767   7.523   3.329   8.771 -0.2193 -0.0071 -0.4215
  173loPI   C4B 2768   7.481   3.352   8.323  0.0308 -0.0769 -0.1506
  174loPI    C1 2769  14.994   2.440  10.233  0.1756 -0.0083  0.0272
  174loPI    C2 2770  14.796   2.536  10.567  0.2331  0.1073  0.0288
  174loPI    C3 2771  14.871   2.152  10.482 -0.1446  0.0492 -0.0599
  174loPI   PO4 2772  14.858   2.499   9.933 -0.0942 -0.2021 -0.2309
  174loPI   GL1 2773  14.852   2.690   9.581  0.2670 -0.1422 -0.1023
  174loPI   GL2 2774  14.555   2.625   9.440  0.1823  0.0306  0.1851
  174loPI   C1A 2775  14.996   2.547   9.136  0.1256  0.0847  0.2087
  174loPI   C2A 2776  14.782   2.456   8.670 -0.1369  0.1521  0.3331
  174loPI   C3A 2777  14.607   2.388   8.354 -0.0888 -0.1414 -0.2229
  174loPI   C4A 2778  14.454   2.248   8.028  0.1905 -0.1313  0.0251
  174loPI   C5A 2779  14.334   2.255   7.610 -0.0757  0.3176  0.2603
  174loPI   C6A 2780  14.118   1.922   7.257  0.1114 -0.0437 -0.1142
  174loPI   C1B 2781  14.450   2.639   9.024  0.2152  0.0585  0.1081
  174loPI   C2B 2782  14.424   2.881   8.574 -0.3857 -0.1910 -0.0540
  174loPI   C3B 2783  14.416   2.918   8.055  0.2633 -0.2030  0.1725
  174loPI   C4B 2784  14.064   2.936   7.680 -0.2332 -0.2966  0.2886
  175loPI    C1 2785   5.426   4.940  10.612  0.0815 -0.1070 -0.1728
  175loPI    C2 2786   5.479   4.696  10.924 -0.0590 -0.1695 -0.1969
  175loPI    C3 2787   5.790   4.894  10.770 -0.0446  0.1289  0.1998
  175loPI   PO4 2788   5.224   4.844  10.458 -0.0494  0.1392 -0.2712
  175loPI   GL1 2789   5.167   4.488  10.218  0.1583  0.0501  0.1571
  175loPI   GL2 2790   5.332   4.360   9.938  0.1453 -0.2247 -0.1040
  175loPI   C1A 2791   4.992   4.683   9.811  0.1971 -0.0919 -0.0474
  175loPI   C2A 2792   5.133   4.851   9.356  0.5224 -0.0415  0.0557
  175loPI   C3A 2793   4.799   4.699   9.119 -0.0030  0.2292  0.1703
  175loPI   C4A 2794   4.741   4.530   8.748 -0.0657  0.0907  0.1006
  175loPI   C5A 2795   4.708   4.498   8.263 -0.3157  0.2589  0.0716
  175loPI   C6A 2796   4.630   4.787   7.926  0.2791  0.0008  0.1526
  175loPI   C1B 2797   5.479   4.450   9.512  0.0276  0.1152 -0.1074
  175loPI   C2B 2798   5.544   4.442   9.138 -0.1369 -0.0643  0.0723
  175loPI   C3B 2799   5.605   4.459   8.679  0.0212 -0.4530 -0.2482
  175loPI   C4B 2800   5.815   4.447   8.316  0.2652 -0.3065 -0.0854
  176loPI    C1 2801  14.423   7.109  10.252 -0.0706  0.0521  0.0521
  176loPI    C2 2802  14.138   6.832  10.302 -0.1585  0.1291 -0.0189
  176loPI    C3 2803  14.209   7.101  10.589 -0.0666  0.0277  0.0541
  176loPI   PO4 2804  14.404   7.221  10.103  0.1512  0.0320 -0.2446
  176loPI   GL1 2805  14.314   7.228   9.690 -0.1067 -0.0546  0.1010
  176loPI   GL2 2806  14.077   7.362   9.825 -0.1940  0.1343  0.0149
  176loPI   C1A 2807  14.402   7.287   9.283  0.1053  0.0185  0.4740
  176loPI   C2A 2808  14.359   7.249   8.732  0.0214  0.0188  0.1523
  176loPI   C3A 2809  14.263   7.326   8.219 -0.2915  0.0478 -0.0197
  176loPI   C4A 2810  14.123   7.606   7.860  0.0816  0.2497 -0.1043
  176loPI   C5A 2811  13.654   7.648   7.666  0.2539 -0.0865  0.0787
  176loPI   C6A 2812  13.716   7.563   7.263  0.0030  0.2071  0.0283
  176loPI   C1B 2813  13.949   7.615   9.449 -0.0453  0.0682 -0.2591
  176loPI   C2B 2814  13.849   7.615   9.058 -0.2364  0.0992  0.1407
  176loPI   C3B 2815  13.880   7.502   8.663  0.0530 -0.1255  0.0686
  176loPI   C4B 2816  13.867   7.625   8.272  0.1179  0.0191 -0.2814
  177loPI    C1 2817   6.825   6.410  10.931 -0.0443  0.0305 -0.3891
  177loPI    C2 2818   7.055   6.164  10.716  0.2578 -0.1257  0.0943
  177loPI    C3 2819   6.995   6.092  11.104 -0.3589  0.0924  0.0502
  177loPI   PO4 2820   6.563   6.464  10.778  0.0123  0.1411  0.2050
  177loPI   GL1 2821   6.213   6.184  10.610 -0.0873  0.0175 -0.1403
  177loPI   GL2 2822   6.549   6.152  10.396 -0.1865  0.0040 -0.1106
  177loPI   C1A 2823   6.135   6.487  10.161 -0.3146 -0.2511  0.1879
  177loPI   C2A 2824   6.135   6.693   9.686  0.0283 -0.1659 -0.0156
  177loPI   C3A 2825   6.097   6.859   9.325  0.0890  0.1758  0.0667
  177loPI   C4A 2826   6.179   6.710   8.961 -0.1039 -0.1864 -0.3263
  177loPI   C5A 2827   6.179   6.747   8.490 -0.1050 -0.3178  0.0399
  177loPI   C6A 2828   6.117   6.649   8.217 -0.0995  0.0750  0.2015
  177loPI   C1B 2829   6.637   6.233   9.994 -0.1759 -0.2290  0.3327
  177loPI   C2B 2830   6.584   6.447   9.567  0.4988  0.0394  0.0342
  177loPI   C3B 2831   6.576   6.478   9.096 -0.1179  0.0540  0.1322
  177loPI   C4B 2832   6.577   6.436   8.667  0.3276  0.1378  0.2802
  178loPI    C1 2833   8.036   5.033  10.869 -0.1994 -0.2008 -0.0851
  178loPI    C2 2834   7.772   5.274  11.048 -0.0733 -0.0936 -0.0413
  178loPI    C3 2835   8.091   5.143  11.249  0.1456  0.1431 -0.2285
  178loPI   PO4 2836   7.869   4.811  10.741 -0.2805 -0.2998 -0.1233
  178loPI   GL1 2837   7.896   4.790  10.298 -0.2703  0.1105  0.2087
  178loPI   GL2 2838   8.063   4.477  10.249 -0.1026  0.2596 -0.0923
  178loPI   C1A 2839   7.979   4.947   9.894  0.1430  0.0666 -0.0637
  178loPI   C2A 2840   7.848   4.945   9.525  0.3487  0.0238 -0.1361
  178loPI   C3A 2841   7.930   5.149   9.135 -0.0547  0.1968 -0.1184
  178loPI   C4A 2842   7.913   5.147   8.642  0.1151 -0.1822  0.0748
  178loPI   C5A 2843   7.817   5.164   8.162 -0.0455  0.2112  0.5910
  178loPI   C6A 2844   7.643   5.234   7.708  0.1267  0.1352  0.0496
  178loPI   C1B 2845   7.998   4.456   9.817 -0.1594 -0.0639  0.0736
  178loPI   C2B 2846   7.822   4.455   9.410  0.2608  0.0214 -0.1670
  178loPI   C3B 2847   7.815   4.638   9.007 -0.0032  0.0342 -0.0858
  178loPI   C4B 2848   7.953   4.522   8.637  0.0743 -0.3060 -0.4988
  179loPI    C1 2849   9.799   1.966  10.367  0.0570 -0.0279 -0.0968
  179loPI    C2 2850   9.537   2.210  10.543  0.0807  0.0020 -0.1030
  179loPI    C3 2851   9.762   1.965  10.765 -0.0205 -0.0925 -0.1038
  179loPI   PO4 2852   9.935   2.199  10.252 -0.1604 -0.0886  0.0938
  179loPI   GL1 2853  10.127   2.424   9.874  0.3104 -0.1833 -0.0128
  179loPI   GL2 2854  10.215   2.162   9.748 -0.3550 -0.0661 -0.0370
  179loPI   C1A 2855   9.778   2.439   9.573  0.0001  0.1854 -0.2435
  179loPI   C2A 2856   9.692   2.461   9.127  0.0415 -0.0005 -0.2412
  179loPI   C3A 2857   9.733   2.444   8.710  0.4039 -0.0647  0.0176
  179loPI   C4A 2858   9.842   2.593   8.354  0.1164  0.0681 -0.0691
  179loPI   C5A 2859   9.779   2.613   7.869 -0.1296 -0.0175  0.0945
  179loPI   C6A 2860   9.335   2.260   7.873  0.1461 -0.2869 -0.0895
  179loPI   C1B 2861  10.216   2.131   9.311  0.0153 -0.0050  0.1887
  179loPI   C2B 2862  10.238   2.178   8.884  0.0426  0.0642  0.0192
  179loPI   C3B 2863  10.289   2.296   8.449  0.0582 -0.4221 -0.1051
  179loPI   C4B 2864  10.331   2.267   8.012 -0.0783  0.1319  0.3292
  180loPI    C1 2865   4.378   4.212  10.753 -0.1009  0.0556  0.1324
  180loPI    C2 2866   4.061   4.050  10.937  0.0588 -0.0597  0.3087
  180loPI    C3 2867   4.432   3.943  11.044  0.1578  0.0341  0.0667
  180loPI   PO4 2868   4.376   4.168  10.364  0.0155 -0.0073 -0.1755
  180loPI   GL1 2869   4.474   3.855  10.104  0.0284  0.1368 -0.0770
  180loPI   GL2 2870   4.135   3.648   9.978 -0.0488  0.0099  0.1192
  180loPI   C1A 2871   4.307   3.957   9.682  0.0784  0.0828  0.2849
  180loPI   C2A 2872   4.275   3.923   9.355  0.1994  0.4309 -0.0792
  180loPI   C3A 2873   4.630   4.060   9.047 -0.0901  0.2464 -0.1362
  180loPI   C4A 2874   4.721   4.053   8.633  0.0699  0.0597  0.3002
  180loPI   C5A 2875   4.632   3.865   8.269 -0.0689  0.0916 -0.0487
  180loPI   C6A 2876   4.877   4.062   8.041  0.2315  0.2212 -0.0874
  180loPI   C1B 2877   3.860   3.586   9.565  0.1957 -0.0604 -0.0125
  180loPI   C2B 2878   3.534   3.856   9.401 -0.0259 -0.1682 -0.4854
  180loPI   C3B 2879   3.307   3.848   9.085  0.1517 -0.2598  0.1898
  180loPI   C4B 2880   2.953   4.101   9.010 -0.1479 -0.0878  0.0980
  181loPI    C1 2881  13.782  11.856  10.571  0.0513  0.1042 -0.0869
  181loPI    C2 2882  13.443  11.645  10.542  0.1837 -0.1084 -0.1068
  181loPI    C3 2883  13.588  11.743  10.902 -0.1326  0.3696 -0.1009
  181loPI   PO4 2884  14.031  11.683  10.458 -0.1262 -0.2031 -0.0871
  181loPI   GL1 2885  14.031  11.767  10.113  0.2511 -0.3236 -0.3707
  181loPI   GL2 2886  14.265  11.839  10.022 -0.0851  0.0320 -0.0003
  181loPI   C1A 2887  13.812  11.971   9.700 -0.2479  0.2417  0.0339
  181loPI   C2A 2888  13.876  12.180   9.274 -0.0331 -0.2783  0.0203
  181loPI   C3A 2889  13.828  12.156   8.838 -0.0417  0.4540 -0.0457
  181loPI   C4A 2890  13.999  12.210   8.482 -0.3580 -0.2781  0.2103
  181loPI   C5A 2891  13.975  12.387   8.146 -0.2920 -0.3368  0.1221
  181loPI   C6A 2892  14.332  12.588   7.858  0.2561  0.2858  0.1245
  181loPI   C1B 2893  14.214  11.729   9.541 -0.0315  0.1330 -0.1563
  181loPI   C2B 2894  14.178  11.382   9.329  0.1013 -0.4821  0.2746
  181loPI   C3B 2895  13.903  11.141   8.954 -0.0158 -0.1329 -0.0882
  181loPI   C4B 2896  13.723  11.150   8.568  0.2298  0.2754 -0.0095
  182loPI    C1 2897   9.482   0.209  10.428  0.2680  0.0052  0.0548
  182loPI    C2 2898   9.192   0.411  10.616 -0.0137 -0.0965 -0.2613
  182loPI    C3 2899   9.572   0.531  10.648 -0.0957  0.0802  0.1007
  182loPI   PO4 2900   9.426   0.282  10.195  0.0512 -0.2081 -0.0151
  182loPI   GL1 2901   9.333   0.447   9.723 -0.2001 -0.2595  0.1656
  182loPI   GL2 2902   9.054   0.385   9.559  0.4411  0.2047  0.3055
  182loPI   C1A 2903   9.395   0.706   9.390  0.0219  0.2588  0.2778
  182loPI   C2A 2904   9.298   1.050   9.104  0.0591 -0.0718 -0.1391
  182loPI   C3A 2905   9.330   1.242   8.688  0.0666 -0.2222 -0.0724
  182loPI   C4A 2906   9.312   1.258   8.229  0.2967 -0.2187 -0.1105
  182loPI   C5A 2907   9.071   1.414   7.889 -0.1871 -0.0124  0.1381
  182loPI   C6A 2908   8.920   1.835   7.805  0.1798 -0.1006  0.1058
  182loPI   C1B 2909   8.821   0.181   9.369  0.2231  0.0517 -0.0070
  182loPI   C2B 2910   8.562  -0.146   9.178 -0.0328  0.1153  0.1078
  182loPI   C3B 2911   8.618  -0.638   9.126  0.3565  0.0754  0.1363
  182loPI   C4B 2912   8.504  -1.020   8.998 -0.1499  0.2644  0.1556
  183loPI    C1 2913   3.664  12.147  10.676  0.2043 -0.0411  0.3223
  183loPI    C2 2914   3.525  11.774  10.715  0.1302 -0.1012 -0.3751
  183loPI    C3 2915   3.301  12.085  10.830  0.2173 -0.2615  0.2672
  183loPI   PO4 2916   3.808  12.063  10.412  0.0605  0.1719 -0.2178
  183loPI   GL1 2917   3.791  12.066  10.012 -0.1577  0.1685  0.2083
  183loPI   GL2 2918   3.548  12.157   9.938 -0.0476 -0.0903 -0.0664
  183loPI   C1A 2919   4.031  12.317   9.718  0.4550  0.2864  0.0804
  183loPI   C2A 2920   4.040  12.324   9.340  0.0696 -0.0764  0.2528
  183loPI   C3A 2921   4.097  12.298   8.894  0.1367 -0.1211  0.2757
  183loPI   C4A 2922   4.135  12.231   8.422  0.1374 -0.0650  0.2812
  183loPI   C5A 2923   4.167  12.226   8.024  0.0207  0.3676  0.2991
  183loPI   C6A 2924   4.445  12.023   7.606  0.0359  0.0312  0.1334
  183loPI   C1B 2925   3.606  12.067   9.431 -0.0925 -0.1468  0.0549
  183loPI   C2B 2926   3.546  12.183   9.002  0.1138 -0.2627  0.1327
  183loPI   C3B 2927   3.682  12.028   8.633 -0.0329 -0.1754 -0.0615
  183loPI   C4B 2928   3.612  11.999   8.200  0.1445  0.0323  0.0523
  184loPI    C1 2929   3.328   2.791  10.535  0.1933 -0.0265 -0.0296
  184loPI    C2 2930   3.689   2.660  10.645  0.1480  0.0180  0.1762
  184loPI    C3 2931   3.431   2.790  10.922 -0.0736 -0.1324  0.0434
  184loPI   PO4 2932   3.228   2.637  10.322  0.0827  0.1532 -0.0272
  184loPI   GL1 2933   3.270   2.492   9.972  0.0048  0.1239 -0.0230
  184loPI   GL2 2934   3.524   2.453   9.823  0.2724  0.0117  0.1122
  184loPI   C1A 2935   3.082   2.457   9.581  0.0137 -0.0639  0.1912
  184loPI   C2A 2936   3.069   2.382   9.177 -0.0810 -0.2133  0.1209
  184loPI   C3A 2937   3.022   2.537   8.713  0.1812 -0.1930  0.0350
  184loPI   C4A 2938   2.627   2.672   8.600  0.4876  0.2634 -0.1316
  184loPI   C5A 2939   2.223   2.783   8.244 -0.0086  0.0923  0.1023
  184loPI   C6A 2940   2.121   2.991   7.869 -0.1638 -0.0190  0.2160
  184loPI   C1B 2941   3.565   2.502   9.322  0.3418 -0.0560  0.1463
  184loPI   C2B 2942   3.894   2.498   8.996 -0.1981 -0.1482  0.2019
  184loPI   C3B 2943   4.255   2.615   8.822 -0.3208 -0.0600  0.0590
  184loPI   C4B 2944   4.679   2.550   8.874  0.3191 -0.1563 -0.0317
  185loPI    C1 2945  13.891   5.420  10.316 -0.0647  0.0190 -0.0800
  185loPI    C2 2946  14.244   5.282  10.189  0.1145  0.3704  0.0236
  185loPI    C3 2947  14.165   5.296  10.581 -0.2446 -0.2477 -0.0146
  185loPI   PO4 2948  13.807   5.539  10.083 -0.0178 -0.0543 -0.0972
  185loPI   GL1 2949  13.906   5.535   9.665  0.2436  0.0948  0.0426
  185loPI   GL2 2950  13.923   5.884   9.669 -0.1350  0.0042  0.0055
  185loPI   C1A 2951  14.070   5.223   9.418  0.1380 -0.0500  0.3042
  185loPI   C2A 2952  14.301   5.085   8.985  0.3231  0.0286  0.1973
  185loPI   C3A 2953  14.393   5.241   8.619  0.2049  0.3122 -0.1571
  185loPI   C4A 2954  14.270   5.023   8.155  0.0150  0.1175 -0.0558
  185loPI   C5A 2955  14.207   5.102   7.691  0.0704 -0.2272 -0.0450
  185loPI   C6A 2956  14.345   5.318   7.373 -0.2620 -0.1899 -0.0210
  185loPI   C1B 2957  13.865   5.864   9.259  0.2007 -0.1234  0.2102
  185loPI   C2B 2958  13.869   6.039   8.879 -0.0930  0.1155  0.0156
  185loPI   C3B 2959  13.815   5.997   8.470  0.0282 -0.1471 -0.1492
  185loPI   C4B 2960  13.766   5.821   8.108 -0.1072  0.0012 -0.0746
  186loPI    C1 2961  18.181   7.012  10.559 -0.1662  0.3355 -0.0747
  186loPI    C2 2962  17.869   6.809  10.705  0.0443  0.1226  0.0887
  186loPI    C3 2963  18.034   7.103  10.920 -0.0279  0.2204  0.0117
  186loPI   PO4 2964  18.062   7.106  10.329  0.1108  0.2064 -0.2285
  186loPI   GL1 2965  17.765   6.889   9.950  0.0379  0.2358 -0.3158
  186loPI   GL2 2966  17.838   7.212   9.781 -0.1511  0.2431  0.1868
  186loPI   C1A 2967  17.839   6.684   9.552  0.0056 -0.0837  0.0663
  186loPI   C2A 2968  17.951   6.676   9.128  0.2726  0.2771  0.2389
  186loPI   C3A 2969  17.900   6.680   8.715 -0.1690  0.0932 -0.1045
  186loPI   C4A 2970  17.743   6.834   8.332  0.1730  0.0901  0.0833
  186loPI   C5A 2971  17.741   7.226   8.032  0.0751 -0.1126  0.1656
  186loPI   C6A 2972  17.398   7.526   8.077 -0.0113  0.2290 -0.2960
  186loPI   C1B 2973  17.945   7.211   9.318 -0.2551  0.1320  0.0406
  186loPI   C2B 2974  17.869   7.161   8.892  0.0403  0.4782 -0.2456
  186loPI   C3B 2975  17.954   7.332   8.481  0.0889  0.1079  0.0640
  186loPI   C4B 2976  17.873   7.664   8.215 -0.3909 -0.0862 -0.0517
  187loPI    C1 2977   5.936  15.150  10.457  0.0191 -0.2250 -0.0885
  187loPI    C2 2978   6.175  15.099  10.774 -0.0906 -0.0895  0.0176
  187loPI    C3 2979   5.902  15.391  10.774  0.0019  0.0003 -0.2594
  187loPI   PO4 2980   5.957  14.922  10.358 -0.0066  0.1446 -0.0378
  187loPI   GL1 2981   5.885  14.819   9.894 -0.0190 -0.1226 -0.0215
  187loPI   GL2 2982   6.291  14.787   9.963  0.2508  0.0693  0.0378
  187loPI   C1A 2983   5.998  14.919   9.461  0.1669 -0.0904 -0.3464
  187loPI   C2A 2984   5.985  14.945   8.949  0.0207  0.1816  0.2325
  187loPI   C3A 2985   5.880  14.943   8.589  0.0585  0.3615  0.3232
  187loPI   C4A 2986   5.831  14.873   8.208  0.4117 -0.0346 -0.1131
  187loPI   C5A 2987   5.689  15.243   7.992 -0.1712  0.2471 -0.0485
  187loPI   C6A 2988   5.301  15.482   7.915 -0.1484 -0.0941 -0.1096
  187loPI   C1B 2989   6.417  14.645   9.713  0.2155 -0.1457 -0.0896
  187loPI   C2B 2990   6.438  14.556   9.266  0.0445 -0.0100  0.0748
  187loPI   C3B 2991   6.285  14.597   8.757 -0.1057  0.0470 -0.1595
  187loPI   C4B 2992   6.242  14.584   8.417  0.0661 -0.0704 -0.0639
  188loPI    C1 2993  10.791   5.135  10.685 -0.2072 -0.1782  0.0621
  188loPI    C2 2994  10.580   5.379  10.921 -0.2844 -0.1298 -0.0565
  188loPI    C3 2995  10.795   5.083  11.082 -0.0615  0.1131  0.1017
  188loPI   PO4 2996  10.918   5.291  10.495  0.5375  0.1024 -0.4012
  188loPI   GL1 2997  11.048   5.220  10.039  0.1067  0.0564  0.1577
  188loPI   GL2 2998  10.701   5.370  10.031 -0.1095 -0.0923  0.2541
  188loPI   C1A 2999  11.149   5.398   9.647 -0.4874  0.3004  0.0281
  188loPI   C2A 3000  11.091   5.450   9.162 -0.4691  0.2721  0.1719
  188loPI   C3A 3001  11.118   5.381   8.737  0.0492 -0.0626 -0.1442
  188loPI   C4A 3002  10.981   5.392   8.290 -0.0395 -0.0619 -0.2263
  188loPI   C5A 3003  10.876   5.603   7.876  0.1619 -0.2937 -0.2663
  188loPI   C6A 3004  10.669   5.892   7.635  0.2893  0.0659 -0.3261
  188loPI   C1B 3005  10.729   5.555   9.681  0.1699  0.2080 -0.1323
  188loPI   C2B 3006  10.643   5.635   9.249  0.1117  0.0790 -0.1687
  188loPI   C3B 3007  10.605   5.623   8.868 -0.2740 -0.3044  0.2566
  188loPI   C4B 3008  10.537   5.482   8.433  0.0338  0.2629  0.2063
  189loPI    C1 3009   2.253   8.235  11.521 -0.1511  0.1157 -0.0930
  189loPI    C2 3010   2.400   8.599  11.593  0.0617  0.0306 -0.0899
  189loPI    C3 3011   2.165   8.421  11.864 -0.0805  0.1827 -0.1112
  189loPI   PO4 3012   2.394   8.191  11.210  0.0964  0.5439 -0.1035
  189loPI   GL1 3013   2.265   8.157  10.826 -0.2911  0.0201  0.1978
  189loPI   GL2 3014   1.843   8.108  10.699  0.0353 -0.3290 -0.0004
  189loPI   C1A 3015   2.250   8.220  10.420  0.1614 -0.0122 -0.0517
  189loPI   C2A 3016   2.169   8.159  10.064  0.0289  0.0758 -0.3040
  189loPI   C3A 3017   2.084   8.157   9.624  0.1179 -0.0761  0.0011
  189loPI   C4A 3018   2.062   8.194   9.186 -0.0038 -0.0186  0.1627
  189loPI   C5A 3019   2.017   8.217   8.760 -0.3253 -0.1124  0.2551
  189loPI   C6A 3020   1.694   8.147   8.488 -0.0769 -0.3788  0.0110
  189loPI   C1B 3021   1.775   8.014  10.246 -0.0988  0.1856 -0.0422
  189loPI   C2B 3022   1.628   7.881   9.820 -0.1357  0.1119 -0.2940
  189loPI   C3B 3023   1.674   7.995   9.381 -0.1903  0.0852  0.0224
  189loPI   C4B 3024   1.654   7.999   9.074  0.0757  0.0222 -0.1162
  190loPI    C1 3025   8.500  17.983  10.369 -0.0634 -0.1349 -0.0929
  190loPI    C2 3026   8.827  18.139  10.539 -0.1433  0.0487 -0.1048
  190loPI    C3 3027   8.467  18.208  10.698 -0.1504 -0.4284  0.1023
  190loPI   PO4 3028   8.474  17.999  10.090  0.2077  0.0378  0.3640
  190loPI   GL1 3029   8.792  18.021   9.695 -0.2784 -0.0310  0.1108
  190loPI   GL2 3030   8.866  17.759   9.544  0.1671 -0.0407  0.0102
  190loPI   C1A 3031   8.991  18.242   9.342 -0.3073 -0.1411  0.4284
  190loPI   C2A 3032   9.103  18.441   8.921  0.3364 -0.2651  0.0536
  190loPI   C3A 3033   8.697  18.497   8.711  0.0050  0.1029  0.0018
  190loPI   C4A 3034   8.358  18.550   8.596 -0.2861  0.1284  0.2169
  190loPI   C5A 3035   8.175  18.946   8.778 -0.1986 -0.1613 -0.3420
  190loPI   C6A 3036   8.263  19.361   8.654  0.1331  0.0217 -0.1641
  190loPI   C1B 3037   9.057  17.750   9.162  0.2417 -0.2482 -0.0466
  190loPI   C2B 3038   9.040  17.997   8.773 -0.2941 -0.2572 -0.0184
  190loPI   C3B 3039   8.962  18.215   8.401 -0.1284 -0.2488  0.3987
  190loPI   C4B 3040   8.706  18.423   8.124 -0.0109 -0.0681 -0.1299
  191loPI    C1 3041  10.843   8.016  10.675  0.1619 -0.0149  0.0115
  191loPI    C2 3042  11.063   7.712  10.816  0.0393 -0.1137 -0.0091
  191loPI    C3 3043  10.891   7.969  11.070  0.0690 -0.1140  0.0114
  191loPI   PO4 3044  10.690   7.926  10.451 -0.1288 -0.1715 -0.0541
  191loPI   GL1 3045  10.867   8.046  10.170 -0.0600  0.2769 -0.1022
  191loPI   GL2 3046  10.951   7.829  10.058  0.0177 -0.3989 -0.0966
  191loPI   C1A 3047  10.755   8.220   9.708 -0.3926  0.0157  0.0149
  191loPI   C2A 3048  10.709   8.211   9.247 -0.3720 -0.1162 -0.4313
  191loPI   C3A 3049  10.703   8.326   8.843  0.0913  0.3122 -0.0070
  191loPI   C4A 3050  10.720   8.304   8.505  0.0224 -0.0695 -0.4769
  191loPI   C5A 3051  10.735   8.290   8.070 -0.3012 -0.2920 -0.1316
  191loPI   C6A 3052  10.375   8.174   7.857 -0.2048  0.1880 -0.1484
  191loPI   C1B 3053  11.067   7.907   9.586 -0.5115 -0.0278  0.1501
  191loPI   C2B 3054  11.122   7.943   9.236  0.2470  0.1645  0.0590
  191loPI   C3B 3055  11.250   8.056   8.772 -0.0363 -0.0823 -0.0756
  191loPI   C4B 3056  11.209   8.149   8.354  0.4016 -0.1264 -0.0139
  192loPI    C1 3057   5.821  16.286  10.500 -0.1635  0.1491  0.0530
  192loPI    C2 3058   5.514  16.055  10.388  0.0687 -0.1364 -0.0061
  192loPI    C3 3059   5.650  16.038  10.764  0.1374 -0.1563 -0.0316
  192loPI   PO4 3060   6.011  16.219  10.265 -0.3919 -0.1551  0.3112
  192loPI   GL1 3061   6.018  16.216   9.829  0.1020  0.2829 -0.1553
  192loPI   GL2 3062   5.836  16.374   9.621  0.2287  0.0684  0.5776
  192loPI   C1A 3063   6.035  15.955   9.394 -0.2470 -0.1808 -0.3411
  192loPI   C2A 3064   5.878  15.882   9.038  0.0642 -0.1033  0.2215
  192loPI   C3A 3065   5.806  15.950   8.639  0.1261 -0.2465  0.0361
  192loPI   C4A 3066   5.813  15.804   8.183 -0.1182 -0.3630  0.0726
  192loPI   C5A 3067   5.624  15.886   7.852  0.1430  0.1936 -0.0026
  192loPI   C6A 3068   5.632  15.633   7.450  0.0363  0.1522  0.0742
  192loPI   C1B 3069   5.932  16.358   9.139  0.0053 -0.0836  0.0764
  192loPI   C2B 3070   5.916  16.423   8.734  0.3016 -0.2301 -0.0559
  192loPI   C3B 3071   5.784  16.367   8.351 -0.0892 -0.2736  0.2695
  192loPI   C4B 3072   5.833  16.295   8.037 -0.2304  0.1783 -0.1076
  193loPI    C1 3073  11.355   9.964  10.535 -0.1140 -0.0445  0.0593
  193loPI    C2 3074  11.537  10.051  10.880  0.0237 -0.0321 -0.0155
  193loPI    C3 3075  11.367   9.693  10.829  0.2964 -0.1583 -0.0552
  193loPI   PO4 3076  11.569  10.075  10.316 -0.0788 -0.1582 -0.3626
  193loPI   GL1 3077  11.470   9.989   9.964  0.3529 -0.2035  0.1002
  193loPI   GL2 3078  11.221  10.253   9.930  0.1035 -0.2001 -0.1543
  193loPI   C1A 3079  11.567   9.880   9.550 -0.1460 -0.0835 -0.4123
  193loPI   C2A 3080  11.685   9.899   9.128  0.0788 -0.0731 -0.1057
  193loPI   C3A 3081  11.567   9.924   8.715  0.3643 -0.0481 -0.1087
  193loPI   C4A 3082  11.520  10.180   8.341  0.1236  0.1321  0.0765
  193loPI   C5A 3083  11.318   9.829   8.007 -0.2097 -0.0593 -0.0841
  193loPI   C6A 3084  11.098   9.968   7.692 -0.3424 -0.1732  0.2082
  193loPI   C1B 3085  11.196  10.231   9.476  0.1252  0.1351  0.1782
  193loPI   C2B 3086  11.011  10.437   9.135  0.1664 -0.0264 -0.0889
  193loPI   C3B 3087  10.737  10.306   8.850  0.2070 -0.0453 -0.1476
  193loPI   C4B 3088  10.296  10.050   8.746 -0.2074 -0.0741 -0.0071
  194loPI    C1 3089   1.674   4.002  10.481  0.0442  0.1457 -0.0086
  194loPI    C2 3090   1.342   3.781  10.513  0.0520  0.1020 -0.2103
  194loPI    C3 3091   1.561   3.861  10.838  0.1101 -0.2823 -0.1504
  194loPI   PO4 3092   1.848   3.929  10.337 -0.0294 -0.1149  0.1176
  194loPI   GL1 3093   1.971   3.876   9.969 -0.3108  0.0735  0.0796
  194loPI   GL2 3094   1.787   3.587   9.818 -0.0318 -0.3931 -0.2608
  194loPI   C1A 3095   1.776   4.152   9.599  0.0107 -0.2854  0.1624
  194loPI   C2A 3096   1.461   4.526   9.566  0.0764  0.1659 -0.1466
  194loPI   C3A 3097   1.166   4.617   9.275 -0.1409  0.2336 -0.1645
  194loPI   C4A 3098   1.102   4.497   8.858  0.2816  0.2110 -0.0339
  194loPI   C5A 3099   0.804   4.263   8.769  0.1029 -0.0591 -0.1184
  194loPI   C6A 3100   0.505   3.952   8.761  0.0280 -0.4131 -0.2069
  194loPI   C1B 3101   1.598   3.666   9.347  0.0145 -0.3114  0.1696
  194loPI   C2B 3102   1.630   3.778   8.849  0.1981 -0.2670  0.2444
  194loPI   C3B 3103   1.402   4.104   8.722 -0.1789 -0.1285  0.3000
  194loPI   C4B 3104   1.248   4.416   8.287  0.0037  0.0831  0.0758
  195loPI    C1 3105  14.751  14.532  10.611 -0.0195 -0.0755  0.0659
  195loPI    C2 3106  14.959  14.828  10.781  0.0431 -0.0432 -0.0656
  195loPI    C3 3107  14.561  14.816  10.818  0.0549 -0.0282  0.0695
  195loPI   PO4 3108  14.812  14.528  10.319 -0.0835  0.1944  0.0260
  195loPI   GL1 3109  15.095  14.477   9.971  0.0175 -0.0550  0.1308
  195loPI   GL2 3110  14.754  14.660   9.844  0.0178  0.0412  0.0949
  195loPI   C1A 3111  15.175  14.582   9.580  0.1004 -0.2618 -0.1389
  195loPI   C2A 3112  15.300  14.516   9.202 -0.0889 -0.0024 -0.0735
  195loPI   C3A 3113  15.385  14.347   8.755  0.0838 -0.0581  0.0113
  195loPI   C4A 3114  15.481  14.306   8.365  0.0513 -0.0697  0.1594
  195loPI   C5A 3115  15.564  14.552   8.044 -0.1482  0.4004 -0.0851
  195loPI   C6A 3116  15.899  14.696   7.759  0.1713  0.0913  0.1170
  195loPI   C1B 3117  14.591  14.785   9.500 -0.2172  0.5465  0.3257
  195loPI   C2B 3118  14.786  14.546   9.041  0.1917 -0.0120  0.1898
  195loPI   C3B 3119  14.787  14.734   8.646  0.1115 -0.1445 -0.0532
  195loPI   C4B 3120  14.672  14.675   8.170  0.1867 -0.3435  0.1092
  196loPI    C1 3121   2.179   9.180  11.166  0.0816  0.1120 -0.1534
  196loPI    C2 3122   2.470   9.418  11.302  0.0531  0.0226  0.0688
  196loPI    C3 3123   2.291   9.160  11.550  0.1057 -0.2544 -0.1754
  196loPI   PO4 3124   2.306   9.053  10.997  0.0412 -0.0385  0.1933
  196loPI   GL1 3125   2.210   9.128  10.533  0.2029  0.1873 -0.4358
  196loPI   GL2 3126   2.542   8.985  10.430  0.0056 -0.0113 -0.1020
  196loPI   C1A 3127   2.126   8.791  10.253  0.0788  0.1444 -0.3812
  196loPI   C2A 3128   2.152   8.652   9.843  0.0739 -0.0897 -0.0312
  196loPI   C3A 3129   2.185   8.657   9.469 -0.0775  0.2571  0.0335
  196loPI   C4A 3130   2.092   8.754   9.109  0.0130 -0.1170 -0.0787
  196loPI   C5A 3131   2.054   8.738   8.699 -0.1402 -0.2254  0.1613
  196loPI   C6A 3132   1.891   8.508   8.301  0.0386  0.1331 -0.1613
  196loPI   C1B 3133   2.595   8.929   9.970  0.2200 -0.0438  0.2883
  196loPI   C2B 3134   2.608   8.877   9.498  0.0372 -0.4028 -0.1853
  196loPI   C3B 3135   2.583   8.892   9.011 -0.0419  0.1887  0.2510
  196loPI   C4B 3136   2.557   8.961   8.592 -0.0027 -0.0451 -0.0875
  197loPI    C1 3137  13.294  16.387  10.056 -0.0452 -0.1677 -0.0468
  197loPI    C2 3138  13.275  16.229  10.423  0.1001  0.0031  0.0355
  197loPI    C3 3139  13.064  16.557  10.336 -0.0071 -0.0910 -0.0619
  197loPI   PO4 3140  13.217  16.143   9.914  0.0234  0.0446  0.0040
  197loPI   GL1 3141  13.328  15.897   9.646  0.0985 -0.0953  0.0502
  197loPI   GL2 3142  13.090  16.010   9.453  0.1937 -0.3859  0.1410
  197loPI   C1A 3143  13.529  15.847   9.204  0.0753 -0.0508 -0.0173
  197loPI   C2A 3144  13.651  16.031   8.832  0.1990 -0.1091 -0.0326
  197loPI   C3A 3145  14.018  16.098   8.411 -0.0837  0.0076 -0.2410
  197loPI   C4A 3146  14.406  16.059   8.597 -0.3209  0.1289  0.0483
  197loPI   C5A 3147  14.699  16.260   8.419 -0.2827 -0.1571  0.3226
  197loPI   C6A 3148  15.190  16.295   8.406 -0.0735 -0.2268  0.1265
  197loPI   C1B 3149  13.122  16.117   9.043  0.3936 -0.0939  0.0113
  197loPI   C2B 3150  13.192  16.125   8.614  0.0081  0.3275 -0.2472
  197loPI   C3B 3151  13.132  16.258   8.123 -0.2639  0.0028 -0.0403
  197loPI   C4B 3152  13.266  16.126   7.675  0.1145  0.0050 -0.3516
  198loPI    C1 3153   8.046  10.289  10.659 -0.0595 -0.0613 -0.1096
  198loPI    C2 3154   7.986  10.656  10.807  0.1228 -0.0040 -0.1750
  198loPI    C3 3155   8.217  10.396  11.004  0.0700 -0.0520 -0.1761
  198loPI   PO4 3156   7.877  10.263  10.537  0.0668  0.0263 -0.0930
  198loPI   GL1 3157   7.882  10.387  10.082  0.3107  0.0662  0.2653
  198loPI   GL2 3158   7.729  10.523   9.854 -0.2119 -0.0647  0.0434
  198loPI   C1A 3159   8.202  10.345   9.659 -0.1645 -0.5066  0.2250
  198loPI   C2A 3160   8.175  10.371   9.234  0.1037  0.0396 -0.4928
  198loPI   C3A 3161   8.152  10.386   8.828 -0.0433 -0.0333  0.1166
  198loPI   C4A 3162   8.095  10.461   8.356  0.0980 -0.0625 -0.1173
  198loPI   C5A 3163   8.384  10.446   8.026  0.3405  0.2607  0.1970
  198loPI   C6A 3164   8.582  10.567   7.715  0.1663 -0.0799 -0.1445
  198loPI   C1B 3165   7.746  10.623   9.376  0.1389 -0.0019  0.0343
  198loPI   C2B 3166   7.720  10.653   9.058 -0.0190  0.0903 -0.0913
  198loPI   C3B 3167   7.703  10.660   8.576  0.0747  0.0817  0.0853
  198loPI   C4B 3168   7.552  10.580   8.184  0.3704  0.3507 -0.2050
  199loPI    C1 3169  16.715  12.221  10.708  0.0089 -0.0732  0.0354
  199loPI    C2 3170  16.592  12.538  10.918  0.1636 -0.0592  0.1060
  199loPI    C3 3171  16.344  12.231  10.856 -0.0784  0.1905 -0.1917
  199loPI   PO4 3172  16.887  12.343  10.552 -0.1178  0.1503 -0.0407
  199loPI   GL1 3173  17.042  12.402  10.113 -0.2146  0.0388  0.1439
  199loPI   GL2 3174  17.168  12.175   9.966 -0.3631 -0.0028 -0.0237
  199loPI   C1A 3175  17.102  12.555   9.690  0.3576  0.0625 -0.1543
  199loPI   C2A 3176  17.150  12.676   9.214 -0.1737  0.0677  0.3634
  199loPI   C3A 3177  17.210  12.706   8.830 -0.0124 -0.0538  0.0132
  199loPI   C4A 3178  17.273  12.776   8.494 -0.1127  0.0854  0.0192
  199loPI   C5A 3179  17.323  12.651   8.097 -0.1429  0.0699  0.1843
  199loPI   C6A 3180  17.147  12.867   7.720 -0.0491 -0.4552 -0.0300
  199loPI   C1B 3181  17.104  12.087   9.534 -0.0980  0.1380 -0.1414
  199loPI   C2B 3182  17.160  12.140   9.109  0.4556 -0.1157  0.1861
  199loPI   C3B 3183  17.180  11.937   8.664  0.1493 -0.0532  0.1192
  199loPI   C4B 3184  17.322  12.013   8.174 -0.1054  0.1262 -0.0469
  200loPI    C1 3185   1.733  13.391  10.766  0.0113  0.1029 -0.0451
  200loPI    C2 3186   1.580  13.659  11.020 -0.0884  0.1412 -0.1445
  200loPI    C3 3187   1.648  13.284  11.142 -0.0044  0.1952 -0.0221
  200loPI   PO4 3188   1.658  13.487  10.461  0.3543 -0.2394 -0.0109
  200loPI   GL1 3189   1.343  13.485  10.089  0.2616 -0.0186 -0.1255
  200loPI   GL2 3190   1.157  13.448  10.328 -0.1112  0.0677  0.2104
  200loPI   C1A 3191   1.353  13.453   9.589 -0.0241 -0.0090 -0.0315
  200loPI   C2A 3192   1.340  13.342   9.158 -0.2164 -0.2390 -0.1985
  200loPI   C3A 3193   1.427  13.314   8.732  0.1001 -0.2605  0.0531
  200loPI   C4A 3194   1.297  13.395   8.294  0.2112  0.5613  0.1803
  200loPI   C5A 3195   1.060  13.718   8.112 -0.1542  0.3607 -0.1813
  200loPI   C6A 3196   0.769  13.978   7.971  0.0605  0.1065  0.0791
  200loPI   C1B 3197   0.971  13.176  10.051 -0.0623  0.1068  0.1252
  200loPI   C2B 3198   0.949  13.164   9.687 -0.0436  0.1221 -0.0374
  200loPI   C3B 3199   0.929  13.113   9.241  0.0026 -0.0132 -0.0447
  200loPI   C4B 3200   1.015  13.095   8.814  0.2216 -0.2341 -0.0649
  201loPI    C1 3201  15.041   0.451  10.137 -0.0544  0.0785 -0.0946
  201loPI    C2 3202  14.810   0.668  10.381 -0.0994  0.3150 -0.3413
  201loPI    C3 3203  15.097   0.433  10.532 -0.3834  0.1526 -0.0417
  201loPI   PO4 3204  15.058   0.609   9.851 -0.1287  0.2318  0.1268
  201loPI   GL1 3205  14.782   0.655   9.527  0.1345  0.1869  0.1332
  201loPI   GL2 3206  14.557   0.420   9.460  0.0584 -0.1753 -0.0985
  201loPI   C1A 3207  15.022   0.763   9.232 -0.1553  0.3807 -0.1952
  201loPI   C2A 3208  15.154   0.682   8.868 -0.0783 -0.3735  0.1791
  201loPI   C3A 3209  15.217   0.866   8.457  0.1016  0.0969 -0.0638
  201loPI   C4A 3210  15.224   0.813   8.109  0.0347 -0.0278  0.1126
  201loPI   C5A 3211  15.054   0.901   7.783 -0.0837  0.1774  0.0638
  201loPI   C6A 3212  14.767   0.763   7.510  0.1156 -0.0575  0.1105
  201loPI   C1B 3213  14.593   0.432   9.085  0.0533  0.1907  0.0119
  201loPI   C2B 3214  14.539   0.829   8.730 -0.2747  0.2159 -0.1984
  201loPI   C3B 3215  14.501   0.893   8.279  0.4135  0.0390 -0.1056
  201loPI   C4B 3216  14.679   0.716   7.983  0.0509  0.2175  0.1223
  202loPI    C1 3217   6.393   5.601  10.896 -0.1988 -0.0452  0.0378
  202loPI    C2 3218   6.464   5.979  11.008 -0.0280 -0.0590 -0.0212
  202loPI    C3 3219   6.668   5.678  11.175  0.1264 -0.0915 -0.2630
  202loPI   PO4 3220   6.358   5.662  10.589 -0.1484  0.1459  0.0068
  202loPI   GL1 3221   6.304   5.548  10.172 -0.1708  0.3665  0.3469
  202loPI   GL2 3222   6.614   5.731  10.144  0.1443  0.4085 -0.2040
  202loPI   C1A 3223   6.011   5.524   9.810 -0.1583 -0.2100  0.0275
  202loPI   C2A 3224   6.130   5.721   9.465  0.2214  0.1615  0.1688
  202loPI   C3A 3225   6.125   5.794   9.035 -0.1012 -0.0093  0.1191
  202loPI   C4A 3226   6.067   5.728   8.525 -0.0686 -0.0868  0.0570
  202loPI   C5A 3227   6.231   6.062   8.260  0.2964 -0.1182 -0.5237
  202loPI   C6A 3228   6.438   6.243   7.934  0.0662 -0.0425  0.1903
  202loPI   C1B 3229   6.528   5.763   9.752  0.0857  0.3359 -0.1437
  202loPI   C2B 3230   6.530   6.001   9.400  0.3497  0.3928  0.1876
  202loPI   C3B 3231   6.571   5.960   9.050 -0.0979 -0.0771 -0.0639
  202loPI   C4B 3232   6.561   5.889   8.607  0.0337  0.3173 -0.1905
  203loPI    C1 3233  18.199   8.398  11.033 -0.1539  0.0002 -0.0471
  203loPI    C2 3234  18.142   8.792  11.074 -0.2914 -0.0352  0.1122
  203loPI    C3 3235  18.022   8.541  11.362  0.0967 -0.1676  0.1649
  203loPI   PO4 3236  18.277   8.426  10.752 -0.1190  0.0828  0.2145
  203loPI   GL1 3237  18.584   8.349  10.448  0.3342 -0.1670  0.1985
  203loPI   GL2 3238  18.406   8.538  10.239  0.2711 -0.2327 -0.1049
  203loPI   C1A 3239  18.815   8.226  10.127  0.0045  0.0392 -0.1946
  203loPI   C2A 3240  18.910   8.196   9.781 -0.2309  0.1349  0.3238
  203loPI   C3A 3241  18.926   8.257   9.344 -0.2345 -0.0055  0.0145
  203loPI   C4A 3242  19.039   8.262   8.961  0.0989  0.0899  0.0757
  203loPI   C5A 3243  18.812   8.109   8.597  0.0490 -0.0143 -0.3454
  203loPI   C6A 3244  18.659   7.769   8.301  0.3634  0.2359  0.0060
  203loPI   C1B 3245  18.454   8.551   9.839 -0.0903  0.2495 -0.0577
  203loPI   C2B 3246  18.464   8.601   9.418  0.1044  0.0253  0.0739
  203loPI   C3B 3247  18.542   8.537   8.937  0.1544 -0.1624  0.0989
  203loPI   C4B 3248  18.561   8.559   8.561 -0.0078 -0.0250  0.0633
  204loPI    C1 3249   2.154   5.512  10.794  0.0128 -0.2186  0.1186
  204loPI    C2 3250   1.926   5.741  11.030 -0.0558 -0.2065  0.0413
  204loPI    C3 3251   2.319   5.808  11.005 -0.0307 -0.2756  0.2332
  204loPI   PO4 3252   2.079   5.525  10.517 -0.0782  0.0106 -0.1282
  204loPI   GL1 3253   2.287   5.716  10.076 -0.0700  0.0001  0.0316
  204loPI   GL2 3254   2.014   5.568  10.059  0.0480 -0.0271  0.0111
  204loPI   C1A 3255   2.544   5.862   9.796  0.0440 -0.0127 -0.1335
  204loPI   C2A 3256   2.521   5.930   9.396 -0.1125  0.1309  0.1459
  204loPI   C3A 3257   2.504   5.889   9.054  0.0320  0.6344 -0.2324
  204loPI   C4A 3258   2.455   5.731   8.734  0.0029 -0.2913  0.1861
  204loPI   C5A 3259   2.700   5.767   8.311  0.0728 -0.1806  0.0289
  204loPI   C6A 3260   2.960   5.935   7.867  0.0649 -0.1377  0.0188
  204loPI   C1B 3261   2.075   5.660   9.633  0.1218  0.0988 -0.2132
  204loPI   C2B 3262   2.098   5.604   9.170 -0.3497  0.0507  0.0276
  204loPI   C3B 3263   1.944   5.533   8.642  0.0540 -0.0954 -0.0805
  204loPI   C4B 3264   1.721   5.314   8.239 -0.0926  0.0297 -0.0958
  205loPI    C1 3265   9.426  17.961  10.205  0.1524  0.1070 -0.0540
  205loPI    C2 3266   9.547  18.332  10.292 -0.3421  0.2777 -0.0687
  205loPI    C3 3267   9.324  18.127  10.554  0.0814 -0.0859  0.0184
  205loPI   PO4 3268   9.231  17.965  10.075 -0.3061 -0.3159 -0.2908
  205loPI   GL1 3269   9.295  18.030   9.716 -0.3499 -0.0364 -0.1016
  205loPI   GL2 3270   9.612  18.142   9.778  0.0496  0.0880  0.0888
  205loPI   C1A 3271   9.476  18.143   9.279  0.0370  0.1099  0.1448
  205loPI   C2A 3272   9.475  17.838   8.905  0.0612 -0.0081  0.5626
  205loPI   C3A 3273   9.356  17.827   8.378  0.0962  0.0987  0.1786
  205loPI   C4A 3274   8.911  17.768   8.218  0.1732 -0.0823  0.0536
  205loPI   C5A 3275   8.557  17.656   7.803 -0.2728 -0.2214  0.3766
  205loPI   C6A 3276   8.237  17.568   7.445  0.0787 -0.1254 -0.1530
  205loPI   C1B 3277   9.953  17.939   9.457  0.0023  0.3991 -0.0851
  205loPI   C2B 3278   9.961  18.047   9.000 -0.1495 -0.2269  0.0669
  205loPI   C3B 3279   9.946  17.972   8.479  0.2366 -0.2570  0.1615
  205loPI   C4B 3280  10.041  18.264   8.087 -0.0754 -0.2017  0.1775
  206loPI    C1 3281   4.375   6.908  11.201 -0.0711  0.0547  0.3620
  206loPI    C2 3282   4.765   6.825  11.240 -0.0008 -0.0357 -0.3892
  206loPI    C3 3283   4.638   7.204  11.263  0.1008 -0.0219  0.0226
  206loPI   PO4 3284   4.317   6.807  10.935  0.1470  0.2373 -0.1971
  206loPI   GL1 3285   4.117   6.660  10.472  0.3095  0.1425 -0.0313
  206loPI   GL2 3286   4.425   6.719  10.456 -0.0696  0.0434 -0.1476
  206loPI   C1A 3287   3.983   6.926  10.186  0.1858 -0.3131  0.0862
  206loPI   C2A 3288   3.827   7.116   9.866  0.1378 -0.2020 -0.2765
  206loPI   C3A 3289   3.876   7.103   9.567 -0.0475 -0.2222 -0.0061
  206loPI   C4A 3290   3.898   7.100   9.136  0.0702 -0.3150 -0.0198
  206loPI   C5A 3291   3.784   7.087   8.625  0.0978 -0.0420  0.1389
  206loPI   C6A 3292   3.430   7.322   8.325 -0.1323  0.1228 -0.1458
  206loPI   C1B 3293   4.422   6.846  10.005 -0.3245 -0.1559  0.2880
  206loPI   C2B 3294   4.308   6.810   9.553  0.0690 -0.2440 -0.2419
  206loPI   C3B 3295   4.388   6.798   9.071  0.1877  0.2514 -0.3471
  206loPI   C4B 3296   4.240   6.977   8.721 -0.0600  0.1675  0.3095
  207loPI    C1 3297   6.807  11.307  10.866 -0.4192  0.0670  0.0751
  207loPI    C2 3298   7.076  11.588  10.958 -0.1055 -0.1175 -0.2536
  207loPI    C3 3299   7.113  11.218  11.107 -0.0699 -0.1917 -0.4426
  207loPI   PO4 3300   6.785  11.191  10.666  0.2479  0.1244  0.2299
  207loPI   GL1 3301   6.800  11.275  10.237  0.1059  0.0446 -0.3336
  207loPI   GL2 3302   6.789  11.131   9.955  0.0066  0.2809  0.0305
  207loPI   C1A 3303   6.896  11.565   9.922 -0.1074  0.0537 -0.1353
  207loPI   C2A 3304   6.887  11.687   9.470 -0.1647 -0.2766  0.1790
  207loPI   C3A 3305   6.780  11.761   9.027  0.1116 -0.2292 -0.1919
  207loPI   C4A 3306   6.802  11.728   8.505  0.2208 -0.0911 -0.1810
  207loPI   C5A 3307   6.818  11.690   8.045 -0.0736  0.0594 -0.0781
  207loPI   C6A 3308   6.785  11.419   7.655  0.1050 -0.0870 -0.1523
  207loPI   C1B 3309   6.843  11.187   9.513 -0.1250  0.0886  0.2339
  207loPI   C2B 3310   6.856  11.218   9.042  0.0741 -0.3543  0.2166
  207loPI   C3B 3311   6.808  11.225   8.573 -0.2243 -0.0465 -0.4318
  207loPI   C4B 3312   6.938  11.173   8.086  0.0074 -0.1582 -0.2426
  208loPI    C1 3313   6.772   1.480  10.227 -0.0106  0.4180  0.1908
  208loPI    C2 3314   6.454   1.576  10.004 -0.1197  0.0388  0.1756
  208loPI    C3 3315   6.410   1.506  10.395 -0.0987 -0.2363  0.1312
  208loPI   PO4 3316   6.891   1.577  10.150  0.2691  0.4489 -0.1757
  208loPI   GL1 3317   6.989   1.673   9.796 -0.0058 -0.2550  0.0592
  208loPI   GL2 3318   6.764   1.990   9.819  0.0460 -0.2269  0.6572
  208loPI   C1A 3319   7.079   1.377   9.375 -0.0694 -0.1816 -0.1162
  208loPI   C2A 3320   6.920   0.985   9.247  0.0585 -0.1740 -0.2465
  208loPI   C3A 3321   6.842   0.901   8.781  0.4532  0.1061 -0.0198
  208loPI   C4A 3322   6.910   1.030   8.443  0.2565 -0.1157  0.2563
  208loPI   C5A 3323   6.903   0.944   8.010  0.0319  0.3334  0.0240
  208loPI   C6A 3324   6.737   1.291   7.749  0.0545 -0.2297  0.0180
  208loPI   C1B 3325   6.857   1.877   9.378  0.4495  0.1457  0.1585
  208loPI   C2B 3326   6.919   1.766   9.011  0.0445  0.3451  0.0224
  208loPI   C3B 3327   7.005   1.981   8.562 -0.0370 -0.2670  0.0308
  208loPI   C4B 3328   7.134   2.118   8.227  0.2924 -0.0510 -0.3293
  209loPI    C1 3329  16.160   4.727  10.033 -0.0659  0.1378 -0.1020
  209loPI    C2 3330  15.847   4.634  10.263 -0.0155  0.1455 -0.0298
  209loPI    C3 3331  15.955   5.016  10.217  0.1336  0.1257  0.1454
  209loPI   PO4 3332  16.124   4.540   9.863  0.2184  0.1573  0.0160
  209loPI   GL1 3333  16.070   4.563   9.518  0.0022 -0.0574 -0.1253
  209loPI   GL2 3334  16.145   4.234   9.407  0.0102  0.0011  0.2263
  209loPI   C1A 3335  16.246   4.793   9.137  0.1542  0.2226  0.0203
  209loPI   C2A 3336  16.330   4.932   8.792 -0.1359  0.0433 -0.1018
  209loPI   C3A 3337  16.549   4.925   8.382 -0.2073  0.0780 -0.1332
  209loPI   C4A 3338  16.701   5.136   7.989  0.1345 -0.4149 -0.0914
  209loPI   C5A 3339  16.315   5.381   7.823 -0.4029 -0.0032 -0.1564
  209loPI   C6A 3340  16.153   5.597   7.388  0.1742 -0.0125 -0.0552
  209loPI   C1B 3341  16.184   4.301   9.111 -0.0889  0.0475  0.0305
  209loPI   C2B 3342  16.196   4.437   8.687 -0.1876 -0.0653  0.1294
  209loPI   C3B 3343  16.236   4.389   8.323 -0.4783 -0.3238  0.0930
  209loPI   C4B 3344  16.100   4.324   7.933  0.0670  0.0613 -0.2421
  210loPI    C1 3345  12.378   5.949  10.420 -0.0305 -0.0788 -0.0419
  210loPI    C2 3346  12.414   6.178  10.094  0.1243  0.1376  0.1245
  210loPI    C3 3347  12.060   6.144  10.276  0.0111 -0.0747 -0.1296
  210loPI   PO4 3348  12.459   5.753  10.340 -0.1005  0.2489 -0.0068
  210loPI   GL1 3349  12.502   5.528   9.957 -0.2201 -0.0110  0.0133
  210loPI   GL2 3350  12.327   5.339   9.895  0.1248  0.1321 -0.1076
  210loPI   C1A 3351  12.425   5.590   9.481  0.0717  0.1318 -0.0093
  210loPI   C2A 3352  12.584   5.592   9.030 -0.1895  0.4395 -0.2167
  210loPI   C3A 3353  12.574   5.630   8.616  0.2260  0.1619  0.2327
  210loPI   C4A 3354  12.453   5.686   8.188  0.0599 -0.1568 -0.0859
  210loPI   C5A 3355  12.280   5.494   7.819 -0.0190  0.1295  0.0340
  210loPI   C6A 3356  12.102   5.771   7.500  0.1081  0.3362  0.0404
  210loPI   C1B 3357  12.446   5.040   9.614 -0.1672 -0.0501 -0.4890
  210loPI   C2B 3358  12.505   5.058   9.214 -0.1168 -0.0038  0.0748
  210loPI   C3B 3359  12.391   5.070   8.676  0.2551 -0.2362 -0.1151
  210loPI   C4B 3360  12.413   5.206   8.240 -0.3988  0.2814 -0.1813
  211loPI    C1 3361  18.551  16.666  10.450 -0.0834 -0.1937 -0.2050
  211loPI    C2 3362  18.323  16.487  10.726 -0.2033 -0.4799 -0.4836
  211loPI    C3 3363  18.721  16.482  10.761 -0.2273 -0.1332 -0.0893
  211loPI   PO4 3364  18.524  16.548  10.233  0.1380  0.2402 -0.0739
  211loPI   GL1 3365  18.877  16.570   9.835  0.1362 -0.0641 -0.0873
  211loPI   GL2 3366  18.615  16.475   9.763 -0.0576  0.0370 -0.0583
  211loPI   C1A 3367  19.100  16.648   9.416 -0.1684 -0.1930 -0.0218
  211loPI   C2A 3368  19.170  16.762   9.005 -0.0472 -0.0394  0.0127
  211loPI   C3A 3369  19.407  16.456   8.757 -0.1830  0.1551 -0.0083
  211loPI   C4A 3370  19.380  16.378   8.352 -0.2031  0.0610 -0.0733
  211loPI   C5A 3371  19.584  16.321   7.928 -0.2229  0.1690  0.1650
  211loPI   C6A 3372  19.591  16.448   7.518  0.1188  0.0255  0.3337
  211loPI   C1B 3373  18.607  16.639   9.385  0.2904 -0.3716 -0.0885
  211loPI   C2B 3374  18.657  16.531   9.086 -0.0615  0.0034 -0.1161
  211loPI   C3B 3375  18.876  16.440   8.782  0.1494  0.0836 -0.2879
  211loPI   C4B 3376  18.929  16.483   8.379  0.0616  0.1700 -0.0037
  212loPI    C1 3377   0.704   0.569  10.443  0.0712  0.1370 -0.0443
  212loPI    C2 3378   0.337   0.473  10.570  0.2312 -0.2524  0.1389
  212loPI    C3 3379   0.594   0.652  10.819  0.3312 -0.4366  0.1704
  212loPI   PO4 3380   0.719   0.736  10.332  0.1990 -0.1366 -0.0969
  212loPI   GL1 3381   0.739   0.904   9.959  0.0298  0.0822 -0.1601
  212loPI   GL2 3382   0.538   0.875   9.672  0.3214 -0.0800  0.0600
  212loPI   C1A 3383   1.075   0.879   9.583 -0.0840  0.2476  0.1502
  212loPI   C2A 3384   1.197   0.970   9.216 -0.0728  0.1482 -0.0925
  212loPI   C3A 3385   1.239   0.889   8.786  0.0228 -0.1252  0.2390
  212loPI   C4A 3386   1.227   1.074   8.405  0.2360  0.0950  0.0302
  212loPI   C5A 3387   1.172   1.032   8.024  0.1105  0.3045  0.0389
  212loPI   C6A 3388   1.379   1.085   7.603  0.1342 -0.4555 -0.0607
  212loPI   C1B 3389   0.692   0.913   9.288 -0.0256 -0.1635 -0.2035
  212loPI   C2B 3390   0.748   0.894   8.878 -0.1213  0.0469  0.0170
  212loPI   C3B 3391   0.706   0.821   8.455 -0.3145  0.1331  0.0915
  212loPI   C4B 3392   1.133   0.519   8.176  0.1414 -0.2259 -0.1515
  213loPI    C1 3393   9.184   6.411  10.757  0.1485  0.0866 -0.0907
  213loPI    C2 3394   9.059   6.051  10.881  0.1977  0.0170 -0.2414
  213loPI    C3 3395   8.873   6.382  11.008  0.0541 -0.0697 -0.2236
  213loPI   PO4 3396   9.199   6.401  10.508  0.1110  0.1968  0.1290
  213loPI   GL1 3397   9.208   6.658  10.193 -0.1800  0.0358  0.0463
  213loPI   GL2 3398   9.530   6.634  10.010 -0.1309  0.1028 -0.1655
  213loPI   C1A 3399   9.105   6.636   9.734  0.1984  0.1165 -0.1920
  213loPI   C2A 3400   8.807   6.654   9.367 -0.2376 -0.1588  0.3046
  213loPI   C3A 3401   8.806   6.752   8.898  0.2056  0.0614  0.3094
  213loPI   C4A 3402   8.731   6.754   8.505  0.0689 -0.0966 -0.2011
  213loPI   C5A 3403   8.707   6.630   8.174  0.0140 -0.0143  0.0552
  213loPI   C6A 3404   8.822   6.877   7.767 -0.1665  0.2039  0.2715
  213loPI   C1B 3405   9.736   6.633   9.661 -0.2346  0.0329  0.3824
  213loPI   C2B 3406   9.801   6.587   9.240 -0.0704  0.2798  0.1551
  213loPI   C3B 3407   9.704   6.706   8.814 -0.2083 -0.0423  0.2425
  213loPI   C4B 3408   9.667   6.719   8.380  0.0829 -0.0317 -0.0139
  214loPI    C1 3409   1.106  17.499  10.251  0.4334  0.1078  0.2406
  214loPI    C2 3410   0.898  17.174  10.356  0.3686 -0.0155 -0.2462
  214loPI    C3 3411   0.941  17.476  10.615 -0.0974 -0.1457 -0.0053
  214loPI   PO4 3412   1.292  17.477  10.102 -0.0689  0.0479  0.5553
  214loPI   GL1 3413   1.112  17.213   9.769 -0.2083 -0.1689 -0.1206
  214loPI   GL2 3414   0.936  17.413   9.696 -0.1336 -0.2158  0.3919
  214loPI   C1A 3415   1.374  17.232   9.415  0.2487  0.0501 -0.0139
  214loPI   C2A 3416   1.424  17.083   9.027 -0.3100 -0.2510  0.0575
  214loPI   C3A 3417   1.490  17.111   8.695 -0.1864 -0.3607  0.0894
  214loPI   C4A 3418   1.610  17.093   8.207  0.0762 -0.1636  0.0434
  214loPI   C5A 3419   1.784  16.827   7.963 -0.2267 -0.0588 -0.1269
  214loPI   C6A 3420   2.116  16.664   7.601  0.1827 -0.0167  0.2497
  214loPI   C1B 3421   0.913  17.607   9.256 -0.1633  0.2662 -0.1807
  214loPI   C2B 3422   1.136  17.474   8.856 -0.0263  0.2185  0.0863
  214loPI   C3B 3423   1.324  17.492   8.458 -0.1141 -0.3138  0.1149
  214loPI   C4B 3424   1.688  17.757   8.340  0.3316  0.1644  0.1179
  215loPI    C1 3425  15.196   7.744  10.724 -0.2207 -0.0480  0.0396
  215loPI    C2 3426  15.252   7.370  10.593 -0.1588 -0.0278  0.0084
  215loPI    C3 3427  15.063   7.434  10.940 -0.0641 -0.0929  0.0725
  215loPI   PO4 3428  15.148   7.881  10.514  0.0511  0.0611 -0.1484
  215loPI   GL1 3429  15.130   7.751  10.044  0.0664  0.1528  0.4592
  215loPI   GL2 3430  15.267   7.503  10.120 -0.1624  0.2525  0.2433
  215loPI   C1A 3431  15.188   7.784   9.597  0.1045  0.2924  0.1112
  215loPI   C2A 3432  15.166   7.721   9.122  0.1098  0.0095 -0.0533
  215loPI   C3A 3433  15.195   7.913   8.690 -0.1329  0.0657  0.0455
  215loPI   C4A 3434  15.107   7.981   8.260 -0.1682  0.4863  0.1634
  215loPI   C5A 3435  14.866   8.343   8.075  0.1809  0.0922 -0.2648
  215loPI   C6A 3436  14.636   8.626   7.733 -0.0881 -0.1788 -0.2151
  215loPI   C1B 3437  15.213   7.296   9.670 -0.2630  0.3429 -0.1477
  215loPI   C2B 3438  15.262   7.256   9.297  0.3209 -0.3736 -0.0440
  215loPI   C3B 3439  15.250   7.236   8.888  0.2981 -0.0001  0.0206
  215loPI   C4B 3440  15.239   7.024   8.468  0.1583  0.0248 -0.0866
  216loPI    C1 3441  12.409   0.951  10.342 -0.0473 -0.0503  0.0303
  216loPI    C2 3442  12.253   0.715  10.625  0.0581 -0.3669 -0.1705
  216loPI    C3 3443  12.623   0.859  10.667 -0.2089  0.2459  0.2256
  216loPI   PO4 3444  12.305   0.866  10.170  0.0055  0.0133  0.0038
  216loPI   GL1 3445  12.013   0.641   9.836  0.0193  0.1010 -0.3391
  216loPI   GL2 3446  11.842   0.798   9.695 -0.2898  0.0722  0.0883
  216loPI   C1A 3447  12.054   0.656   9.304  0.0045  0.0374  0.0010
  216loPI   C2A 3448  12.064   0.744   8.939  0.0727 -0.0928 -0.3950
  216loPI   C3A 3449  12.026   0.850   8.503 -0.1789 -0.0486 -0.2362
  216loPI   C4A 3450  12.038   0.570   8.130 -0.1274  0.2101 -0.0692
  216loPI   C5A 3451  12.306   0.317   7.827  0.3421  0.0488 -0.2404
  216loPI   C6A 3452  12.114  -0.073   7.682 -0.0197  0.0947  0.1247
  216loPI   C1B 3453  11.505   0.796   9.440 -0.3073 -0.2807 -0.1222
  216loPI   C2B 3454  11.307   0.690   9.073  0.4841  0.1949 -0.2663
  216loPI   C3B 3455  11.053   0.632   8.665  0.1941  0.4347 -0.3175
  216loPI   C4B 3456  10.963   0.450   8.144  0.0314  0.0062  0.0602
  217loPI    C1 3457   7.317  12.768  10.545  0.1477 -0.1434  0.0062
  217loPI    C2 3458   7.067  12.639  10.829 -0.2750  0.3395 -0.1308
  217loPI    C3 3459   7.358  12.898  10.921  0.2611 -0.2978  0.0482
  217loPI   PO4 3460   7.249  12.623  10.356  0.0859 -0.0914 -0.3026
  217loPI   GL1 3461   7.380  12.424  10.018 -0.1499  0.2931 -0.0989
  217loPI   GL2 3462   7.760  12.275   9.906 -0.0888 -0.3598  0.2881
  217loPI   C1A 3463   7.312  12.497   9.675  0.3375  0.2185 -0.3810
  217loPI   C2A 3464   7.289  12.439   9.153  0.0729 -0.0350  0.1402
  217loPI   C3A 3465   7.200  12.450   8.740 -0.1161  0.2361  0.1744
  217loPI   C4A 3466   7.398  12.552   8.380 -0.1752  0.1474 -0.0161
  217loPI   C5A 3467   7.393  12.655   7.906 -0.0721  0.0612 -0.3766
  217loPI   C6A 3468   7.234  12.860   7.442 -0.2448 -0.1269 -0.0582
  217loPI   C1B 3469   7.717  12.176   9.474 -0.0518  0.2468 -0.0232
  217loPI   C2B 3470   7.672  12.174   9.139 -0.1301 -0.0379  0.1187
  217loPI   C3B 3471   7.737  12.106   8.718 -0.1896 -0.0383  0.1336
  217loPI   C4B 3472   7.899  12.380   8.308 -0.0556  0.2945 -0.0614
  218loPI    C1 3473   9.280   1.413  10.338 -0.3332  0.0384  0.0618
  218loPI    C2 3474   9.204   1.788  10.220 -0.0206  0.0984  0.0425
  218loPI    C3 3475   9.353   1.719  10.585  0.0511  0.0045 -0.0041
  218loPI   PO4 3476   9.088   1.252  10.128  0.0536 -0.1340  0.1519
  218loPI   GL1 3477   9.151   1.153   9.749  0.2957 -0.4114  0.0478
  218loPI   GL2 3478   8.950   0.841   9.734  0.0376  0.1197 -0.3416
  218loPI   C1A 3479   8.943   1.283   9.462  0.1889  0.1299 -0.0945
  218loPI   C2A 3480   8.903   1.421   9.093 -0.1694  0.0515  0.1884
  218loPI   C3A 3481   8.927   1.521   8.611 -0.1286 -0.4064  0.1314
  218loPI   C4A 3482   8.728   1.576   8.239  0.1670  0.3245 -0.0221
  218loPI   C5A 3483   8.414   1.644   7.943  0.3555 -0.0138 -0.0675
  218loPI   C6A 3484   8.207   1.834   7.570  0.1712  0.2373 -0.2810
  218loPI   C1B 3485   8.868   0.721   9.246  0.3085 -0.1085 -0.4269
  218loPI   C2B 3486   8.832   0.876   8.826  0.1384 -0.3658  0.0060
  218loPI   C3B 3487   8.830   1.039   8.417 -0.0801  0.1779 -0.0776
  218loPI   C4B 3488   8.707   1.034   7.947 -0.1827 -0.0089 -0.0799
  219loPI    C1 3489  12.915   1.002  10.198  0.2579  0.2101 -0.0861
  219loPI    C2 3490  12.710   0.859   9.885  0.1575  0.1220  0.0190
  219loPI    C3 3491  12.795   0.621  10.195  0.1158  0.2512  0.1308
  219loPI   PO4 3492  12.800   1.276  10.182  0.1079  0.0324  0.2854
  219loPI   GL1 3493  12.497   1.370   9.881  0.0568  0.0549  0.1261
  219loPI   GL2 3494  12.276   1.171   9.812  0.3341  0.2320 -0.2923
  219loPI   C1A 3495  12.602   1.303   9.495 -0.1993 -0.1081  0.0958
  219loPI   C2A 3496  12.652   1.525   9.069  0.0386  0.1602  0.0820
  219loPI   C3A 3497  12.684   1.516   8.603 -0.5902  0.0074  0.2837
  219loPI   C4A 3498  12.586   1.313   8.174  0.0756 -0.2352 -0.2208
  219loPI   C5A 3499  12.667   0.972   7.833 -0.1553 -0.1342 -0.1245
  219loPI   C6A 3500  12.752   0.622   7.665 -0.0200  0.0574 -0.1028
  219loPI   C1B 3501  12.184   1.188   9.290  0.1202  0.0810  0.1711
  219loPI   C2B 3502  12.211   1.255   8.873 -0.2266  0.0024 -0.2524
  219loPI   C3B 3503  12.093   1.342   8.467 -0.1342  0.2357  0.0475
  219loPI   C4B 3504  11.809   1.531   8.134 -0.2411 -0.2736  0.0205
  220loPI    C1 3505  12.280  14.097  10.074  0.2807  0.1505 -0.1776
  220loPI    C2 3506  12.573  13.899   9.886  0.1746 -0.1248 -0.0580
  220loPI    C3 3507  12.593  13.959  10.281 -0.0121 -0.2994 -0.0203
  220loPI   PO4 3508  12.099  14.030   9.981  0.0018 -0.3515 -0.1461
  220loPI   GL1 3509  11.752  14.052   9.912  0.3201  0.1307  0.1900
  220loPI   GL2 3510  11.935  14.065   9.532  0.2757 -0.0834 -0.2629
  220loPI   C1A 3511  11.337  13.964   9.630  0.4304  0.0530  0.0478
  220loPI   C2A 3512  11.295  13.868   9.133  0.1881 -0.0328  0.3231
  220loPI   C3A 3513  11.467  13.815   8.736  0.1679  0.1072  0.2503
  220loPI   C4A 3514  11.805  13.742   8.331  0.0419  0.5938 -0.1563
  220loPI   C5A 3515  11.826  13.358   8.072  0.0355 -0.0903  0.1380
  220loPI   C6A 3516  11.545  12.915   8.043  0.1305  0.5282  0.1935
  220loPI   C1B 3517  11.795  14.089   9.076  0.3279  0.0529 -0.2286
  220loPI   C2B 3518  11.843  14.256   8.676  0.2829  0.0360 -0.0536
  220loPI   C3B 3519  11.600  14.194   8.327  0.0403  0.1987 -0.1450
  220loPI   C4B 3520  11.363  13.878   8.114  0.1068 -0.0561  0.0563
  221loPI    C1 3521  16.742   0.688  10.222  0.4645 -0.2105 -0.1395
  221loPI    C2 3522  16.573   0.808  10.564  0.0103 -0.1337 -0.3827
  221loPI    C3 3523  16.951   0.679  10.563  0.2030  0.3879  0.0522
  221loPI   PO4 3524  16.609   0.568  10.103 -0.0194 -0.0877  0.1507
  221loPI   GL1 3525  16.514   0.642   9.680  0.1579  0.1589  0.0094
  221loPI   GL2 3526  16.846   0.571   9.580 -0.2346  0.1840  0.2670
  221loPI   C1A 3527  16.361   0.532   9.318 -0.0692  0.1043 -0.0995
  221loPI   C2A 3528  16.685   0.539   8.940 -0.2006 -0.2060 -0.2003
  221loPI   C3A 3529  16.780   0.742   8.644  0.2377 -0.2191  0.1460
  221loPI   C4A 3530  16.662   0.876   8.247 -0.0436 -0.0722 -0.0293
  221loPI   C5A 3531  16.906   0.915   7.836  0.0211  0.0203  0.2453
  221loPI   C6A 3532  16.896   1.339   7.680 -0.0654 -0.2813 -0.1036
  221loPI   C1B 3533  16.795   0.889   9.311 -0.3647 -0.2064  0.0967
  221loPI   C2B 3534  16.533   1.081   8.944 -0.1349  0.1952 -0.2584
  221loPI   C3B 3535  16.317   0.990   8.606 -0.0134  0.2220 -0.1128
  221loPI   C4B 3536  16.119   0.859   8.217  0.1003 -0.0072 -0.0095
  222loPI    C1 3537  16.587   1.324  10.494 -0.1168  0.3376 -0.0423
  222loPI    C2 3538  16.940   1.189  10.364 -0.1499 -0.1567  0.3511
  222loPI    C3 3539  16.926   1.480  10.639 -0.0672  0.2258 -0.0379
  222loPI   PO4 3540  16.472   1.445  10.209  0.0837 -0.1356 -0.3340
  222loPI   GL1 3541  16.460   1.545   9.771  0.0731  0.0715 -0.2815
  222loPI   GL2 3542  16.192   1.362   9.775  0.0515  0.1749 -0.2858
  222loPI   C1A 3543  16.605   1.384   9.407  0.1007  0.2989  0.1283
  222loPI   C2A 3544  16.607   1.576   8.996 -0.2204  0.4695 -0.0209
  222loPI   C3A 3545  16.438   1.457   8.554 -0.3680 -0.0519 -0.1410
  222loPI   C4A 3546  16.395   1.292   8.196  0.3561  0.0536  0.2232
  222loPI   C5A 3547  16.305   1.417   7.852  0.2974  0.0381 -0.5700
  222loPI   C6A 3548  15.986   1.102   7.794 -0.1181 -0.1194  0.2161
  222loPI   C1B 3549  16.211   1.126   9.395  0.1741 -0.0046 -0.0308
  222loPI   C2B 3550  16.096   0.926   9.026 -0.0863  0.4841 -0.0626
  222loPI   C3B 3551  15.749   0.875   8.718  0.0219 -0.0422  0.1473
  222loPI   C4B 3552  15.662   0.878   8.290  0.0025 -0.2523 -0.0664
  223loPI    C1 3553  16.984   9.144  10.817  0.0968  0.2057  0.0950
  223loPI    C2 3554  17.002   9.188  11.214  0.2367  0.1285  0.0977
  223loPI    C3 3555  16.803   9.455  10.992 -0.4673 -0.2145  0.2879
  223loPI   PO4 3556  17.222   9.120  10.762 -0.1722 -0.1897 -0.2273
  223loPI   GL1 3557  17.342   9.072  10.323  0.0246  0.0837  0.3435
  223loPI   GL2 3558  17.563   9.265  10.261 -0.0192 -0.2569  0.0594
  223loPI   C1A 3559  17.439   8.978   9.818  0.1034 -0.2553 -0.0331
  223loPI   C2A 3560  17.398   9.129   9.419 -0.0772 -0.0484 -0.1070
  223loPI   C3A 3561  17.460   9.118   8.937  0.1734 -0.1284 -0.1636
  223loPI   C4A 3562  17.608   9.093   8.484  0.0384 -0.1817 -0.1679
  223loPI   C5A 3563  17.617   9.081   8.047  0.0023  0.1515 -0.3417
  223loPI   C6A 3564  17.686   8.871   7.639  0.0086 -0.0806  0.2179
  223loPI   C1B 3565  17.526   9.436   9.866  0.1266 -0.1383 -0.2345
  223loPI   C2B 3566  17.368   9.713   9.672  0.2603  0.0581 -0.2165
  223loPI   C3B 3567  17.483   9.591   9.190  0.0443 -0.0602 -0.0129
  223loPI   C4B 3568  17.601   9.590   8.736  0.2617  0.2943  0.1746
  224loPI    C1 3569   8.472   4.293  10.530 -0.0018  0.0720  0.0349
  224loPI    C2 3570   8.311   4.615  10.705  0.0491  0.0947  0.0402
  224loPI    C3 3571   8.389   4.287  10.921 -0.0773  0.0499  0.0187
  224loPI   PO4 3572   8.729   4.449  10.433 -0.0912 -0.0150  0.0506
  224loPI   GL1 3573   8.467   4.808  10.240  0.0257  0.1135 -0.1738
  224loPI   GL2 3574   8.235   5.112  10.373 -0.2094 -0.3335  0.0299
  224loPI   C1A 3575   8.435   4.721   9.811  0.2712  0.0490  0.6102
  224loPI   C2A 3576   8.323   4.751   9.418 -0.1467  0.0236  0.1134
  224loPI   C3A 3577   8.331   4.826   9.019 -0.0994 -0.3415  0.1310
  224loPI   C4A 3578   8.402   4.719   8.657  0.0435  0.0825 -0.1589
  224loPI   C5A 3579   8.393   4.950   8.219  0.0064  0.3242  0.0956
  224loPI   C6A 3580   8.408   5.331   8.123 -0.0721  0.0011 -0.2473
  224loPI   C1B 3581   8.420   5.194   9.893  0.1399  0.1193 -0.0505
  224loPI   C2B 3582   8.349   5.295   9.506 -0.0380  0.2604  0.1166
  224loPI   C3B 3583   8.360   5.375   9.093  0.1947  0.1343  0.1009
  224loPI   C4B 3584   8.408   5.235   8.623  0.2669 -0.1000 -0.1253
  225loPI    C1 3585  14.612   7.998  10.350 -0.0743 -0.2890 -0.0404
  225loPI    C2 3586  14.225   8.100  10.350 -0.0239 -0.0929 -0.0211
  225loPI    C3 3587  14.473   8.257  10.621  0.0463 -0.3111  0.0432
  225loPI   PO4 3588  14.686   7.988  10.171  0.1466 -0.1645 -0.0947
  225loPI   GL1 3589  14.652   7.929   9.749 -0.0749  0.1659  0.0068
  225loPI   GL2 3590  14.406   7.699   9.551  0.1838  0.2266  0.2262
  225loPI   C1A 3591  14.768   8.019   9.363  0.1332  0.1500  0.1299
  225loPI   C2A 3592  14.753   7.970   8.936 -0.1404  0.5361  0.1941
  225loPI   C3A 3593  14.704   8.144   8.589 -0.0152 -0.3025  0.2091
  225loPI   C4A 3594  14.425   8.370   8.568  0.1803  0.2012  0.2638
  225loPI   C5A 3595  14.335   8.472   8.136 -0.1418 -0.1502 -0.2867
  225loPI   C6A 3596  14.060   8.607   7.892 -0.1355 -0.2063  0.2421
  225loPI   C1B 3597  14.284   7.811   9.152 -0.0817 -0.2324  0.0783
  225loPI   C2B 3598  14.379   7.756   8.769  0.0729  0.4778 -0.2085
  225loPI   C3B 3599  14.550   7.704   8.384 -0.4248 -0.3153  0.0190
  225loPI   C4B 3600  14.677   7.607   7.976  0.0969  0.1401 -0.1658
  226loPI    C1 3601   0.189   2.748  10.594 -0.0258  0.0130 -0.0385
  226loPI    C2 3602   0.496   2.492  10.609  0.1211  0.1913  0.0371
  226loPI    C3 3603   0.277   2.561  10.937  0.0088  0.0765 -0.0127
  226loPI   PO4 3604   0.147   2.771  10.253  0.2082  0.0583  0.1156
  226loPI   GL1 3605   0.301   2.914   9.854  0.0606  0.0208 -0.0938
  226loPI   GL2 3606   0.008   3.136   9.861 -0.2318  0.2149 -0.3416
  226loPI   C1A 3607   0.368   3.010   9.408  0.1449 -0.1738 -0.1589
  226loPI   C2A 3608   0.167   3.239   9.029  0.0062  0.0036 -0.0666
  226loPI   C3A 3609   0.166   3.493   8.687 -0.1465  0.0484  0.1875
  226loPI   C4A 3610   0.009   3.446   8.220  0.1194  0.2829 -0.1687
  226loPI   C5A 3611   0.144   3.638   7.813 -0.1630 -0.1658 -0.2776
  226loPI   C6A 3612   0.085   3.421   7.394 -0.0889 -0.1238  0.1472
  226loPI   C1B 3613  -0.116   3.421   9.439  0.3136  0.3842  0.2523
  226loPI   C2B 3614  -0.027   3.848   9.472  0.1095 -0.1497  0.0030
  226loPI   C3B 3615   0.179   4.217   9.500 -0.4936 -0.1008 -0.1516
  226loPI   C4B 3616   0.290   4.509   9.708 -0.5028  0.0561  0.2203
  227loPI    C1 3617  18.349   5.589  10.524  0.1823  0.1818  0.0521
  227loPI    C2 3618  18.194   5.895  10.319  0.3038  0.1978 -0.0169
  227loPI    C3 3619  18.139   5.871  10.714 -0.1028  0.0607 -0.0762
  227loPI   PO4 3620  18.241   5.352  10.276  0.1976  0.0679 -0.0202
  227loPI   GL1 3621  17.815   5.395   9.992 -0.1756  0.0513 -0.2918
  227loPI   GL2 3622  17.880   5.083   9.868 -0.0063 -0.0299  0.0310
  227loPI   C1A 3623  17.826   5.606   9.613  0.0051 -0.0877  0.3101
  227loPI   C2A 3624  17.905   5.654   9.208  0.2643 -0.1350 -0.2658
  227loPI   C3A 3625  17.896   5.665   8.680 -0.1677  0.3507 -0.0181
  227loPI   C4A 3626  17.899   5.735   8.219 -0.0796  0.0745  0.0940
  227loPI   C5A 3627  18.173   5.990   8.082 -0.3086 -0.1525  0.0457
  227loPI   C6A 3628  18.546   5.749   7.995 -0.0004  0.0102 -0.1353
  227loPI   C1B 3629  17.855   5.154   9.420  0.1323  0.0078 -0.0878
  227loPI   C2B 3630  17.849   5.196   8.855  0.1868  0.2557 -0.0918
  227loPI   C3B 3631  17.785   4.852   8.487  0.1878 -0.2289 -0.0417
  227loPI   C4B 3632  17.528   4.460   8.362 -0.1209  0.1454 -0.1028
  228loPI    C1 3633   6.389  10.303  10.667  0.1560 -0.2508  0.2101
  228loPI    C2 3634   6.744  10.250  10.844  0.1834 -0.1708  0.1796
  228loPI    C3 3635   6.418  10.316  11.065  0.1863 -0.2503  0.2080
  228loPI   PO4 3636   6.520  10.265  10.385 -0.0989  0.0943 -0.0268
  228loPI   GL1 3637   6.776  10.088  10.077 -0.1162  0.0627  0.2501
  228loPI   GL2 3638   6.727   9.731  10.026  0.2961 -0.0003 -0.1236
  228loPI   C1A 3639   6.856  10.176   9.553  0.1207  0.1045 -0.2644
  228loPI   C2A 3640   6.805  10.180   9.034  0.1583  0.1053  0.0486
  228loPI   C3A 3641   6.740  10.128   8.580  0.1112  0.0805 -0.0029
  228loPI   C4A 3642   6.417   9.993   8.250  0.0284 -0.2460  0.0787
  228loPI   C5A 3643   6.360   9.641   7.939  0.0446 -0.0507  0.0616
  228loPI   C6A 3644   6.305   9.176   7.904  0.2326 -0.0811  0.1583
  228loPI   C1B 3645   6.711   9.604   9.598 -0.1492 -0.1320  0.0012
  228loPI   C2B 3646   6.757   9.703   9.136  0.2620 -0.1398  0.0448
  228loPI   C3B 3647   6.716   9.696   8.821  0.0645  0.1157 -0.0926
  228loPI   C4B 3648   6.837   9.679   8.385  0.0211  0.2611  0.0018
  229loPI    C1 3649   8.241  12.169  10.286 -0.0788  0.1249  0.0378
  229loPI    C2 3650   8.159  12.320  10.647 -0.1779  0.0289  0.0559
  229loPI    C3 3651   8.414  12.014  10.612 -0.2861 -0.0625  0.0610
  229loPI   PO4 3652   8.183  12.337  10.140  0.0607  0.1158 -0.1259
  229loPI   GL1 3653   8.199  12.665   9.999 -0.0615 -0.0287  0.3664
  229loPI   GL2 3654   8.273  12.563   9.710  0.0273 -0.2051  0.0628
  229loPI   C1A 3655   8.230  13.047   9.651 -0.1049  0.0887 -0.0714
  229loPI   C2A 3656   8.208  13.066   9.261 -0.1980  0.1250  0.0159
  229loPI   C3A 3657   8.161  13.031   8.857 -0.0053 -0.0461  0.1120
  229loPI   C4A 3658   8.248  13.196   8.388  0.2246  0.0193  0.1447
  229loPI   C5A 3659   8.269  13.303   7.946 -0.0162  0.1141  0.1220
  229loPI   C6A 3660   8.207  13.432   7.477 -0.0416 -0.1688  0.2335
  229loPI   C1B 3661   8.168  12.498   9.312 -0.0818 -0.2356  0.0980
  229loPI   C2B 3662   8.108  12.363   8.916 -0.0864  0.1268  0.2009
  229loPI   C3B 3663   8.229  12.578   8.574  0.0128 -0.0529  0.2035
  229loPI   C4B 3664   8.187  12.714   8.103  0.1318 -0.0453 -0.3037
  230loPI    C1 3665  12.357  11.940  10.254  0.1260  0.0457 -0.0062
  230loPI    C2 3666  12.098  11.764  10.502  0.0439  0.2131  0.0274
  230loPI    C3 3667  12.465  11.859  10.630  0.1106  0.0091 -0.0097
  230loPI   PO4 3668  12.315  11.855  10.012  0.1618 -0.1543 -0.1551
  230loPI   GL1 3669  12.340  12.098   9.726  0.4243 -0.1422 -0.1162
  230loPI   GL2 3670  12.537  11.915   9.540  0.0880  0.2391 -0.0485
  230loPI   C1A 3671  12.152  12.252   9.335  0.3084  0.1295 -0.0299
  230loPI   C2A 3672  12.040  12.510   8.880 -0.1629 -0.1572 -0.0218
  230loPI   C3A 3673  12.226  12.443   8.496 -0.2613 -0.0353 -0.3256
  230loPI   C4A 3674  12.316  12.264   8.118 -0.2867 -0.0606 -0.1580
  230loPI   C5A 3675  12.246  12.295   7.695  0.2007  0.0120  0.0104
  230loPI   C6A 3676  12.131  12.370   7.280  0.2703 -0.0185  0.1326
  230loPI   C1B 3677  12.689  11.750   9.145  0.1218 -0.1262 -0.1224
  230loPI   C2B 3678  12.725  11.651   8.787 -0.1565  0.0846 -0.1301
  230loPI   C3B 3679  12.697  11.434   8.412  0.1867  0.0711  0.0239
  230loPI   C4B 3680  12.771  11.429   7.931 -0.1267 -0.1695 -0.0374
  231loPI    C1 3681  12.826   9.019   9.945  0.0984 -0.1294  0.0443
  231loPI    C2 3682  13.061   8.976  10.265 -0.1096 -0.1207  0.2001
  231loPI    C3 3683  13.175   8.826   9.912  0.1173 -0.1369  0.2787
  231loPI   PO4 3684  12.591   8.940  10.049  0.0382  0.0732 -0.0119
  231loPI   GL1 3685  12.509   8.787   9.668  0.1038  0.0928  0.0580
  231loPI   GL2 3686  12.805   8.765   9.508  0.3356 -0.0551  0.1835
  231loPI   C1A 3687  12.418   8.767   9.221 -0.0355  0.0826  0.5232
  231loPI   C2A 3688  12.530   8.866   8.799  0.0189  0.1032  0.2971
  231loPI   C3A 3689  12.754   9.024   8.432  0.2838 -0.1758  0.3478
  231loPI   C4A 3690  12.842   9.116   8.025 -0.3586  0.1486  0.0908
  231loPI   C5A 3691  13.157   9.332   7.749  0.3179  0.1883  0.2011
  231loPI   C6A 3692  13.071   9.595   7.476  0.0377 -0.1212  0.0645
  231loPI   C1B 3693  12.928   8.648   9.154  0.0564 -0.1047  0.0963
  231loPI   C2B 3694  13.055   8.662   8.713  0.0266  0.1107 -0.1809
  231loPI   C3B 3695  13.085   8.674   8.393 -0.2036  0.0121 -0.0024
  231loPI   C4B 3696  13.210   8.772   7.961 -0.1776  0.2772  0.0897
  232loPI    C1 3697   7.204   0.878  10.413  0.0294 -0.1377  0.0854
  232loPI    C2 3698   6.963   0.575  10.316  0.0364 -0.0212 -0.3141
  232loPI    C3 3699   7.074   0.628  10.697 -0.4179 -0.1841 -0.1513
  232loPI   PO4 3700   7.156   1.101  10.163 -0.0967 -0.1341  0.0512
  232loPI   GL1 3701   7.381   1.233   9.782  0.0204 -0.0446 -0.1361
  232loPI   GL2 3702   7.665   1.309   9.880  0.0511  0.1897  0.1003
  232loPI   C1A 3703   7.501   1.127   9.331  0.0621  0.1044 -0.0789
  232loPI   C2A 3704   7.361   0.804   9.096  0.1193  0.2636 -0.0175
  232loPI   C3A 3705   7.277   0.680   8.686  0.1727 -0.2494 -0.0911
  232loPI   C4A 3706   7.133   0.596   8.393  0.0236 -0.1620 -0.1527
  232loPI   C5A 3707   6.773   0.570   8.329  0.6330 -0.0506  0.0278
  232loPI   C6A 3708   6.502   0.465   7.943 -0.0585 -0.1048  0.1356
  232loPI   C1B 3709   7.917   1.265   9.583  0.2041 -0.0395 -0.0952
  232loPI   C2B 3710   7.933   1.413   9.193 -0.0071 -0.3653 -0.3510
  232loPI   C3B 3711   7.895   1.541   8.812 -0.2430  0.2479 -0.0390
  232loPI   C4B 3712   7.721   1.427   8.351 -0.0440  0.1380  0.1219
  233loPI    C1 3713  10.164  12.634  10.200 -0.2172  0.1475  0.2038
  233loPI    C2 3714   9.886  12.804   9.968 -0.0698  0.0589 -0.0421
  233loPI    C3 3715   9.777  12.562  10.268 -0.2606  0.1233 -0.0586
  233loPI   PO4 3716  10.373  12.512  10.044 -0.1669 -0.1181 -0.0159
  233loPI   GL1 3717  10.358  12.630   9.639  0.3584  0.1167 -0.2045
  233loPI   GL2 3718  10.030  12.524   9.613  0.1469  0.1327 -0.4099
  233loPI   C1A 3719  10.419  12.917   9.334 -0.2584 -0.1210 -0.2842
  233loPI   C2A 3720  10.551  12.826   8.924 -0.1607  0.0076  0.2362
  233loPI   C3A 3721  10.545  12.777   8.511 -0.0484 -0.1153 -0.2135
  233loPI   C4A 3722  10.510  12.501   8.138  0.1138 -0.0275  0.0529
  233loPI   C5A 3723  10.387  12.173   7.820 -0.0729  0.0457  0.0493
  233loPI   C6A 3724  10.053  11.839   7.698 -0.2264 -0.2024  0.2438
  233loPI   C1B 3725  10.012  12.626   9.193  0.0295  0.1073  0.1657
  233loPI   C2B 3726  10.055  12.618   8.732  0.0980 -0.1473  0.0445
  233loPI   C3B 3727   9.993  12.500   8.315 -0.4192  0.0503 -0.0865
  233loPI   C4B 3728   9.958  12.290   7.904  0.3849 -0.1604 -0.1342
  234loPI    C1 3729   9.350   8.326  10.494 -0.0253  0.0392 -0.0066
  234loPI    C2 3730   9.213   7.950  10.514  0.1413 -0.0174  0.0908
  234loPI    C3 3731   9.375   8.121  10.837 -0.0208  0.1726  0.0735
  234loPI   PO4 3732   9.341   8.319  10.269 -0.0366 -0.5055  0.3578
  234loPI   GL1 3733   9.497   8.010   9.931 -0.1621  0.0628 -0.3353
  234loPI   GL2 3734   9.808   8.173   9.844  0.2373  0.1296 -0.1304
  234loPI   C1A 3735   9.401   8.098   9.523  0.0937  0.0272  0.3553
  234loPI   C2A 3736   9.363   7.962   9.169 -0.2133 -0.2337 -0.0774
  234loPI   C3A 3737   9.391   8.048   8.725 -0.0574 -0.1367 -0.3571
  234loPI   C4A 3738   9.451   7.996   8.313  0.0677 -0.1788  0.0835
  234loPI   C5A 3739   9.378   7.707   7.928  0.3237  0.2512  0.1618
  234loPI   C6A 3740   9.022   7.380   7.832  0.0044 -0.0023 -0.3238
  234loPI   C1B 3741   9.841   8.290   9.465  0.1163 -0.1924  0.1117
  234loPI   C2B 3742   9.848   8.179   9.006  0.2861  0.1778 -0.1030
  234loPI   C3B 3743   9.792   8.267   8.562  0.2459 -0.1592 -0.1921
  234loPI   C4B 3744   9.896   8.281   8.162 -0.3134 -0.0048 -0.0738
  235loPI    C1 3745   8.221   3.798  10.820 -0.1141 -0.1453 -0.0481
  235loPI    C2 3746   7.964   3.962  11.079 -0.1766 -0.1003 -0.1381
  235loPI    C3 3747   8.338   3.879  11.194 -0.1068  0.2195 -0.1262
  235loPI   PO4 3748   8.136   3.953  10.577 -0.0133  0.0702 -0.3857
  235loPI   GL1 3749   8.313   3.956  10.113 -0.0578  0.0635 -0.0225
  235loPI   GL2 3750   8.426   4.197  10.024  0.1948 -0.0134  0.1339
  235loPI   C1A 3751   8.241   3.779   9.814  0.0468 -0.0113 -0.1332
  235loPI   C2A 3752   8.281   3.687   9.379  0.1045 -0.0134  0.0998
  235loPI   C3A 3753   8.277   3.786   8.969  0.0689 -0.0407  0.1741
  235loPI   C4A 3754   8.324   3.739   8.449 -0.2464 -0.2968  0.1898
  235loPI   C5A 3755   8.340   3.949   8.038  0.1606 -0.1010 -0.1111
  235loPI   C6A 3756   8.593   4.165   7.813  0.0084  0.1708  0.2743
  235loPI   C1B 3757   8.305   4.215   9.529 -0.0782  0.2685  0.1196
  235loPI   C2B 3758   8.248   4.298   9.055  0.2375  0.2625  0.1312
  235loPI   C3B 3759   8.219   4.161   8.647  0.0560 -0.2363  0.1654
  235loPI   C4B 3760   8.460   4.305   8.390  0.1273  0.2049 -0.0571
  236loPI    C1 3761   3.331   1.227  10.325 -0.2171 -0.2176 -0.0002
  236loPI    C2 3762   3.217   1.067  10.673 -0.0286  0.1063  0.2165
  236loPI    C3 3763   3.575   1.242  10.641 -0.0708  0.1382 -0.1244
  236loPI   PO4 3764   3.239   1.039  10.141 -0.1870 -0.3168 -0.0539
  236loPI   GL1 3765   3.239   1.067   9.757 -0.1514  0.3524  0.2480
  236loPI   GL2 3766   3.412   0.821   9.625 -0.0165  0.0529 -0.1015
  236loPI   C1A 3767   3.130   1.353   9.489 -0.0875  0.0783 -0.1690
  236loPI   C2A 3768   3.157   1.495   9.043 -0.0462  0.0603 -0.0520
  236loPI   C3A 3769   3.064   1.670   8.646 -0.0303  0.1981 -0.0150
  236loPI   C4A 3770   3.044   1.784   8.132  0.1129  0.4529 -0.1131
  236loPI   C5A 3771   2.768   1.644   7.726  0.0253  0.0251 -0.1271
  236loPI   C6A 3772   2.798   1.305   7.480  0.0660  0.1173 -0.0953
  236loPI   C1B 3773   3.408   0.965   9.212  0.0928 -0.2052  0.1329
  236loPI   C2B 3774   3.416   1.079   8.746  0.1331 -0.1572  0.0468
  236loPI   C3B 3775   3.256   1.324   8.368 -0.4083  0.0852  0.2318
  236loPI   C4B 3776   3.124   1.315   7.934  0.0134  0.0738 -0.2979
  237loPI    C1 3777  17.644   6.539  10.331  0.0433  0.0415  0.0337
  237loPI    C2 3778  17.366   6.681  10.080  0.0573  0.0682  0.0332
  237loPI    C3 3779  17.481   6.899  10.395  0.0771  0.0569  0.0338
  237loPI   PO4 3780  17.717   6.325  10.235  0.3443 -0.0656 -0.1381
  237loPI   GL1 3781  17.820   6.245   9.905  0.2957  0.4080 -0.1521
  237loPI   GL2 3782  17.864   5.913   9.987 -0.0603 -0.2891 -0.1146
  237loPI   C1A 3783  17.843   6.046   9.459 -0.0219 -0.1801 -0.1185
  237loPI   C2A 3784  17.920   6.140   9.067 -0.2579  0.2969  0.1994
  237loPI   C3A 3785  17.895   6.167   8.642 -0.0857 -0.1514  0.0861
  237loPI   C4A 3786  17.933   6.366   8.304 -0.1326 -0.0092  0.0037
  237loPI   C5A 3787  17.749   6.446   7.882  0.1618 -0.0253 -0.4547
  237loPI   C6A 3788  17.456   6.288   7.517 -0.1514  0.1256  0.1826
  237loPI   C1B 3789  18.275   5.856   9.804  0.1506  0.0446 -0.2249
  237loPI   C2B 3790  18.471   5.868   9.362 -0.0863  0.0243 -0.0301
  237loPI   C3B 3791  18.270   5.882   8.877  0.3755 -0.1503  0.0876
  237loPI   C4B 3792  18.293   5.917   8.531  0.1997 -0.3746  0.0286
  238loPI    C1 3793  14.719  15.560  10.493  0.1033  0.0356 -0.1228
  238loPI    C2 3794  15.048  15.575  10.720  0.2454 -0.1425 -0.3127
  238loPI    C3 3795  14.787  15.275  10.765  0.1420 -0.0381 -0.2090
  238loPI   PO4 3796  14.812  15.586  10.253  0.2706  0.3471  0.2049
  238loPI   GL1 3797  14.760  15.914   9.925  0.1448  0.4144 -0.1458
  238loPI   GL2 3798  15.091  15.850   9.870 -0.0272  0.2162  0.1036
  238loPI   C1A 3799  14.750  15.697   9.508  0.0239 -0.1809  0.3030
  238loPI   C2A 3800  14.990  15.592   9.287  0.0418 -0.2027 -0.0843
  238loPI   C3A 3801  15.108  15.445   8.907 -0.1441 -0.1720  0.1904
  238loPI   C4A 3802  15.182  15.310   8.426  0.1100  0.2569 -0.0718
  238loPI   C5A 3803  15.236  15.377   7.992 -0.2365  0.0598  0.0180
  238loPI   C6A 3804  15.482  15.078   7.844 -0.1287 -0.0698 -0.1830
  238loPI   C1B 3805  15.370  15.846   9.541  0.0373  0.1103 -0.1848
  238loPI   C2B 3806  15.451  15.734   9.139  0.0653  0.0506  0.1307
  238loPI   C3B 3807  15.461  15.713   8.715 -0.1739 -0.2607  0.1843
  238loPI   C4B 3808  15.317  15.812   8.364 -0.2628 -0.0041  0.4129
  239loPI    C1 3809  11.851  17.061  10.281 -0.1465  0.0631 -0.0072
  239loPI    C2 3810  11.786  16.721  10.080 -0.1261 -0.0611  0.1934
  239loPI    C3 3811  11.600  16.787  10.428 -0.2062  0.1782  0.1078
  239loPI   PO4 3812  12.140  17.041  10.310 -0.1620 -0.0061  0.0307
  239loPI   GL1 3813  12.410  17.176   9.970 -0.1986  0.2747 -0.4675
  239loPI   GL2 3814  12.306  16.984   9.864  0.1946 -0.2068 -0.2238
  239loPI   C1A 3815  12.420  17.379   9.526 -0.0257  0.2308 -0.1162
  239loPI   C2A 3816  12.273  17.105   9.203 -0.0705  0.0013  0.1125
  239loPI   C3A 3817  12.245  17.150   8.710  0.0470 -0.0536  0.1086
  239loPI   C4A 3818  12.177  16.996   8.273  0.1514 -0.1147 -0.0504
  239loPI   C5A 3819  12.140  17.224   7.876 -0.0496 -0.1095 -0.0074
  239loPI   C6A 3820  12.151  17.305   7.468 -0.2122  0.0505  0.1381
  239loPI   C1B 3821  12.645  16.929   9.479 -0.1283 -0.1923 -0.1795
  239loPI   C2B 3822  12.763  16.877   9.097  0.1216  0.1081  0.0487
  239loPI   C3B 3823  12.683  16.929   8.647  0.1137  0.2476  0.2801
  239loPI   C4B 3824  12.693  16.837   8.271  0.0897 -0.2480  0.1601
  240loPI    C1 3825   9.599  13.919  10.623  0.0420  0.0323  0.1601
  240loPI    C2 3826   9.334  13.696  10.824 -0.2100  0.1035 -0.0869
  240loPI    C3 3827   9.673  13.813  11.002 -0.3280 -0.0148  0.2230
  240loPI   PO4 3828   9.600  13.766  10.386  0.1774 -0.1550 -0.1073
  240loPI   GL1 3829   9.365  13.828  10.072  0.0978 -0.3466  0.1391
  240loPI   GL2 3830   9.182  13.803   9.907  0.3148  0.2291  0.0635
  240loPI   C1A 3831   9.521  13.884   9.518  0.0335 -0.1663 -0.0808
  240loPI   C2A 3832   9.451  13.814   9.056 -0.0421  0.1786 -0.2515
  240loPI   C3A 3833   9.674  13.868   8.597 -0.0552 -0.0790  0.1401
  240loPI   C4A 3834   9.772  13.727   8.166  0.0320  0.0865  0.1147
  240loPI   C5A 3835   9.616  13.373   8.019  0.0486 -0.0725  0.3800
  240loPI   C6A 3836   9.638  13.202   7.683 -0.3051  0.1588  0.0844
  240loPI   C1B 3837   9.057  13.640   9.474 -0.2522  0.0135 -0.0038
  240loPI   C2B 3838   9.075  13.495   9.122  0.0797 -0.0500  0.0176
  240loPI   C3B 3839   9.154  13.577   8.656 -0.0968  0.1208  0.1014
  240loPI   C4B 3840   9.192  13.673   8.209  0.2049 -0.2586  0.0727
  241loPI    C1 3841   2.977   8.202  11.172  0.0954 -0.0102  0.3692
  241loPI    C2 3842   2.841   8.517  11.377  0.1530 -0.0449  0.4612
  241loPI    C3 3843   2.892   8.165  11.561 -0.0998 -0.1609  0.3137
  241loPI   PO4 3844   2.789   8.163  10.890 -0.0648  0.1012  0.1098
  241loPI   GL1 3845   2.738   8.435  10.478 -0.1823 -0.3862  0.1679
  241loPI   GL2 3846   2.847   8.264  10.396  0.1596  0.0250 -0.1820
  241loPI   C1A 3847   2.592   8.424  10.038  0.1467 -0.0445  0.2031
  241loPI   C2A 3848   2.612   8.342   9.640  0.0866  0.0794  0.3718
  241loPI   C3A 3849   2.555   8.415   9.186  0.3508 -0.1367 -0.0110
  241loPI   C4A 3850   2.457   8.444   8.657  0.2565 -0.1316  0.0903
  241loPI   C5A 3851   2.414   8.527   8.265 -0.2894  0.0137 -0.0425
  241loPI   C6A 3852   2.417   8.844   7.888  0.0057  0.2926  0.1029
  241loPI   C1B 3853   2.985   8.159   9.994  0.0642  0.3598  0.1490
  241loPI   C2B 3854   3.054   8.151   9.578 -0.0935 -0.2416 -0.2243
  241loPI   C3B 3855   3.033   8.107   9.146 -0.1393 -0.2508 -0.0012
  241loPI   C4B 3856   3.060   8.153   8.699 -0.2705  0.1072 -0.1518
  242loPI    C1 3857   7.424   8.895  10.552 -0.3619 -0.0501 -0.2553
  242loPI    C2 3858   7.145   8.619  10.630 -0.4772  0.0995 -0.1312
  242loPI    C3 3859   7.073   9.005  10.709 -0.1280  0.1085  0.1759
  242loPI   PO4 3860   7.510   8.849  10.337  0.0736 -0.1354 -0.0679
  242loPI   GL1 3861   7.494   8.997   9.945 -0.1918  0.0688  0.3484
  242loPI   GL2 3862   7.783   8.998   9.923  0.1880 -0.1163  0.0639
  242loPI   C1A 3863   7.168   8.831   9.736 -0.0223 -0.4328  0.2516
  242loPI   C2A 3864   7.019   8.826   9.346  0.0674  0.2533 -0.4828
  242loPI   C3A 3865   7.110   8.900   8.869  0.1158 -0.3809  0.3194
  242loPI   C4A 3866   7.078   8.911   8.435  0.1268 -0.2035  0.3071
  242loPI   C5A 3867   7.046   8.893   7.987 -0.0313 -0.2938 -0.0803
  242loPI   C6A 3868   7.291   8.973   7.639 -0.2204  0.0872  0.0303
  242loPI   C1B 3869   7.623   9.070   9.468 -0.1119  0.0710 -0.3529
  242loPI   C2B 3870   7.568   9.143   8.992  0.3082  0.0714 -0.0624
  242loPI   C3B 3871   7.612   9.109   8.482  0.0720  0.2153  0.1724
  242loPI   C4B 3872   7.787   9.078   8.049 -0.0593  0.0694  0.5127
  243loPI    C1 3873  17.671  14.359  10.811  0.3299  0.2136  0.1030
  243loPI    C2 3874  17.911  14.135  11.040  0.0791 -0.0767  0.0884
  243loPI    C3 3875  17.543  14.229  11.167 -0.0000 -0.0975 -0.1215
  243loPI   PO4 3876  17.693  14.190  10.559 -0.0753  0.2781  0.1588
  243loPI   GL1 3877  18.010  14.136  10.202 -0.0490 -0.0847 -0.0832
  243loPI   GL2 3878  17.764  14.357  10.057  0.1478  0.1474 -0.0539
  243loPI   C1A 3879  18.075  13.996   9.852 -0.2353  0.2043  0.1886
  243loPI   C2A 3880  18.127  13.728   9.480  0.2421 -0.0819  0.1482
  243loPI   C3A 3881  18.203  13.579   9.068 -0.0706  0.3608 -0.2981
  243loPI   C4A 3882  18.205  13.374   8.648 -0.3051 -0.0779  0.1101
  243loPI   C5A 3883  18.187  13.073   8.277 -0.2702 -0.2367 -0.1231
  243loPI   C6A 3884  18.240  12.975   7.832  0.4272 -0.0481 -0.0224
  243loPI   C1B 3885  18.004  14.516   9.825 -0.0563  0.2958  0.0298
  243loPI   C2B 3886  18.153  14.348   9.409  0.0193 -0.0456 -0.0994
  243loPI   C3B 3887  18.192  14.087   9.170 -0.0319 -0.0631  0.0682
  243loPI   C4B 3888  18.204  13.871   8.714  0.0006 -0.2509  0.4250
  244loPI    C1 3889   6.090   1.896  10.493 -0.2000 -0.1418 -0.0961
  244loPI    C2 3890   6.062   1.583  10.741 -0.1642 -0.1147 -0.0579
  244loPI    C3 3891   6.366   1.840  10.777 -0.3519  0.0895  0.1015
  244loPI   PO4 3892   6.085   1.856  10.305 -0.0286 -0.0836 -0.2528
  244loPI   GL1 3893   6.270   2.033   9.919 -0.0645  0.3030 -0.1313
  244loPI   GL2 3894   6.364   2.293   9.947 -0.0291 -0.1555  0.2716
  244loPI   C1A 3895   6.343   1.787   9.528 -0.2216  0.0844  0.4499
  244loPI   C2A 3896   6.262   1.726   9.092  0.2656 -0.1497 -0.0071
  244loPI   C3A 3897   6.210   1.559   8.618  0.2011 -0.3362  0.2432
  244loPI   C4A 3898   6.219   1.329   8.240 -0.3317  0.1240 -0.2540
  244loPI   C5A 3899   5.833   1.320   8.092 -0.0117  0.3443  0.3896
  244loPI   C6A 3900   5.382   1.427   8.266  0.1738 -0.3080 -0.0059
  244loPI   C1B 3901   6.542   2.268   9.493 -0.3902 -0.4394  0.2425
  244loPI   C2B 3902   6.587   2.147   9.068  0.0897  0.0806  0.0837
  244loPI   C3B 3903   6.507   2.018   8.706 -0.0261  0.0542  0.1805
  244loPI   C4B 3904   6.578   1.895   8.241  0.0434 -0.2835 -0.2353
  245loPI    C1 3905  10.715  18.096  10.229 -0.0784 -0.0448 -0.1382
  245loPI    C2 3906  10.704  17.736  10.403  0.0769  0.0481  0.0682
  245loPI    C3 3907  10.364  17.933  10.330 -0.0016 -0.0861  0.0684
  245loPI   PO4 3908  10.906  18.083  10.121 -0.3411 -0.4545  0.0430
  245loPI   GL1 3909  11.042  18.142   9.695  0.0106 -0.0964 -0.1529
  245loPI   GL2 3910  10.970  17.913   9.445  0.2014 -0.0754 -0.0249
  245loPI   C1A 3911  11.347  18.265   9.306 -0.4053  0.0417 -0.1230
  245loPI   C2A 3912  11.487  18.277   8.853  0.2587 -0.3080  0.0184
  245loPI   C3A 3913  11.542  18.180   8.385 -0.0429 -0.0410  0.1173
  245loPI   C4A 3914  11.672  17.901   8.032 -0.2487 -0.0100  0.0422
  245loPI   C5A 3915  11.984  17.915   7.704 -0.2321 -0.1962  0.0794
  245loPI   C6A 3916  11.958  17.990   7.301  0.2670  0.0180 -0.0507
  245loPI   C1B 3917  10.946  17.999   9.045 -0.2195 -0.1323  0.1904
  245loPI   C2B 3918  11.097  18.125   8.609  0.2127 -0.0201 -0.0061
  245loPI   C3B 3919  11.228  18.543   8.432 -0.0342 -0.1579  0.2247
  245loPI   C4B 3920  11.405  18.903   8.295  0.3520  0.0444 -0.2970
  246loPI    C1 3921  11.960   9.251  10.391  0.1106  0.0840 -0.0470
  246loPI    C2 3922  12.289   9.046  10.489  0.1771  0.2164  0.0089
  246loPI    C3 3923  12.285   9.445  10.519  0.1572  0.2527 -0.4079
  246loPI   PO4 3924  11.893   9.060  10.140  0.0364 -0.4991  0.1232
  246loPI   GL1 3925  12.102   9.018   9.783  0.0277  0.3904 -0.3467
  246loPI   GL2 3926  11.937   8.676   9.731  0.1600  0.1211 -0.1550
  246loPI   C1A 3927  12.129   9.093   9.432  0.1302 -0.0701 -0.0201
  246loPI   C2A 3928  12.102   9.123   8.980  0.0338  0.1384 -0.0328
  246loPI   C3A 3929  12.175   9.214   8.577  0.3532 -0.0211 -0.0635
  246loPI   C4A 3930  12.306   9.113   8.211  0.0286 -0.4055 -0.2843
  246loPI   C5A 3931  12.410   8.937   7.767  0.0640 -0.0937 -0.4175
  246loPI   C6A 3932  12.364   8.981   7.345  0.2157 -0.0582  0.0352
  246loPI   C1B 3933  11.749   8.682   9.397  0.0188  0.2562 -0.1809
  246loPI   C2B 3934  11.628   8.720   8.950 -0.1892 -0.1257  0.0907
  246loPI   C3B 3935  11.754   8.894   8.512  0.1643 -0.2622 -0.1542
  246loPI   C4B 3936  11.789   9.088   8.143 -0.1729 -0.0927  0.1826
  247loPI    C1 3937  11.017   4.297  10.619 -0.1345 -0.1130 -0.0401
  247loPI    C2 3938  10.966   4.659  10.782  0.1145 -0.0741 -0.0443
  247loPI    C3 3939  11.054   4.346  11.015 -0.0450 -0.1223 -0.0472
  247loPI   PO4 3940  11.093   4.458  10.298 -0.0337  0.1642  0.2702
  247loPI   GL1 3941  11.079   4.744   9.935  0.1301 -0.1282 -0.1103
  247loPI   GL2 3942  11.232   4.607   9.740  0.3613  0.2381 -0.0183
  247loPI   C1A 3943  11.106   4.978   9.476 -0.0381  0.1084  0.0547
  247loPI   C2A 3944  11.146   4.980   8.992 -0.3105 -0.0012 -0.1912
  247loPI   C3A 3945  11.081   4.749   8.646  0.0890 -0.0947 -0.1960
  247loPI   C4A 3946  11.034   4.854   8.206  0.1390  0.0968  0.0031
  247loPI   C5A 3947  10.990   5.067   7.842 -0.1457 -0.1072 -0.1372
  247loPI   C6A 3948  10.888   5.097   7.428 -0.0313 -0.1394 -0.0038
  247loPI   C1B 3949  11.413   4.581   9.281 -0.0108  0.1182 -0.1159
  247loPI   C2B 3950  11.555   4.665   8.861 -0.0166  0.0411 -0.2858
  247loPI   C3B 3951  11.499   4.624   8.344 -0.1947 -0.1171 -0.3959
  247loPI   C4B 3952  11.594   4.742   7.904 -0.3914 -0.1642  0.1938
  248loPI    C1 3953   1.935   2.786  10.467 -0.0272  0.0928  0.1083
  248loPI    C2 3954   2.315   2.732  10.579 -0.0591 -0.0083  0.1699
  248loPI    C3 3955   2.147   3.094  10.606  0.0483  0.0480  0.0933
  248loPI   PO4 3956   1.947   2.594  10.232  0.1561 -0.0180 -0.0291
  248loPI   GL1 3957   2.197   2.598   9.889  0.1767  0.1597  0.1062
  248loPI   GL2 3958   2.447   2.660   9.961  0.0455  0.0282 -0.1869
  248loPI   C1A 3959   2.203   2.589   9.490 -0.4960 -0.1134  0.2689
  248loPI   C2A 3960   2.232   2.869   9.252  0.3824 -0.1313 -0.0146
  248loPI   C3A 3961   1.998   3.021   8.713 -0.1559  0.2014 -0.2655
  248loPI   C4A 3962   2.030   3.218   8.346 -0.4076  0.3270  0.0529
  248loPI   C5A 3963   2.209   3.444   8.106  0.0016 -0.2410 -0.2423
  248loPI   C6A 3964   2.492   3.644   8.309  0.2209 -0.0211  0.2284
  248loPI   C1B 3965   2.667   2.735   9.541  0.0960  0.1234 -0.0504
  248loPI   C2B 3966   2.708   2.817   9.111 -0.0606  0.1463  0.0425
  248loPI   C3B 3967   2.932   2.961   8.917 -0.0844 -0.1211 -0.1519
  248loPI   C4B 3968   2.968   3.192   8.565 -0.1677  0.1895  0.1724
  249loPI    C1 3969   3.181  13.063  10.691 -0.2035 -0.0504  0.0679
  249loPI    C2 3970   2.987  13.378  10.842 -0.1037 -0.0543  0.2065
  249loPI    C3 3971   2.980  13.028  11.034 -0.1933 -0.1307  0.0659
  249loPI   PO4 3972   3.117  13.102  10.377 -0.0547  0.1359  0.1902
  249loPI   GL1 3973   2.739  12.934  10.173 -0.1951  0.4850 -0.0631
  249loPI   GL2 3974   2.820  13.169   9.916 -0.3062  0.0705 -0.2282
  249loPI   C1A 3975   2.653  12.641   9.817 -0.0782  0.0512  0.2788
  249loPI   C2A 3976   2.726  12.684   9.380  0.0496  0.0391  0.2258
  249loPI   C3A 3977   2.661  12.644   8.905  0.0457 -0.0397  0.0471
  249loPI   C4A 3978   2.700  12.585   8.538  0.1854 -0.3665  0.1576
  249loPI   C5A 3979   2.662  12.608   8.103  0.1422 -0.3279 -0.1509
  249loPI   C6A 3980   2.712  12.457   7.641 -0.0834  0.3039  0.0724
  249loPI   C1B 3981   2.763  13.239   9.515  0.0581 -0.2226  0.0585
  249loPI   C2B 3982   2.639  13.143   9.200 -0.0014 -0.0380  0.1184
  249loPI   C3B 3983   2.668  13.101   8.772 -0.1904  0.0015 -0.1567
  249loPI   C4B 3984   2.646  13.105   8.314  0.0038  0.0778  0.1771
  250loPI    C1 3985   8.406  15.686  10.481 -0.0641  0.1372 -0.0385
  250loPI    C2 3986   8.265  15.920  10.773  0.0390 -0.1275  0.2285
  250loPI    C3 3987   8.219  15.524  10.795 -0.0627 -0.1426 -0.1798
  250loPI   PO4 3988   8.321  15.721  10.226 -0.2009  0.3201 -0.2276
  250loPI   GL1 3989   8.304  15.736   9.726 -0.2667 -0.2445 -0.0112
  250loPI   GL2 3990   8.422  15.451   9.809  0.0048 -0.0776  0.0289
  250loPI   C1A 3991   8.165  15.844   9.442 -0.1135  0.2667  0.0885
  250loPI   C2A 3992   8.164  15.776   9.042  0.2648 -0.2521 -0.0602
  250loPI   C3A 3993   8.122  15.651   8.653 -0.1126 -0.1843  0.1757
  250loPI   C4A 3994   8.008  15.751   8.253 -0.0264 -0.4234  0.0500
  250loPI   C5A 3995   7.874  15.632   7.785 -0.0326 -0.2451  0.2037
  250loPI   C6A 3996   7.868  15.417   7.393  0.2186 -0.1159 -0.1148
  250loPI   C1B 3997   8.663  15.503   9.481 -0.0943 -0.2137 -0.0720
  250loPI   C2B 3998   8.520  15.429   9.064  0.0646  0.3536 -0.0435
  250loPI   C3B 3999   8.532  15.328   8.609  0.1969 -0.0655  0.0365
  250loPI   C4B 4000   8.628  15.239   8.287  0.1371  0.0286  0.0024
  251loPI    C1 4001   6.715   9.395  10.965 -0.0202  0.1024 -0.0915
  251loPI    C2 4002   6.659   9.785  11.034  0.1402  0.1171 -0.0393
  251loPI    C3 4003   6.750   9.540  11.337 -0.2595 -0.0157 -0.0210
  251loPI   PO4 4004   6.611   9.314  10.774  0.1526 -0.0799 -0.0307
  251loPI   GL1 4005   6.483   9.292  10.331  0.1156 -0.0455  0.2593
  251loPI   GL2 4006   6.201   9.435  10.189 -0.1424  0.1671  0.0158
  251loPI   C1A 4007   6.674   9.256   9.996  0.1115 -0.2953 -0.0720
  251loPI   C2A 4008   6.672   9.061   9.618  0.0556  0.0649 -0.0220
  251loPI   C3A 4009   6.629   9.123   9.093  0.2685 -0.0568  0.4357
  251loPI   C4A 4010   6.697   9.237   8.629  0.1569  0.1285  0.3161
  251loPI   C5A 4011   6.738   9.223   8.189  0.0508  0.1134 -0.3396
  251loPI   C6A 4012   6.837   9.268   7.786  0.3338 -0.1870 -0.0390
  251loPI   C1B 4013   6.270   9.408   9.758 -0.0239 -0.4364  0.1679
  251loPI   C2B 4014   6.281   9.381   9.328  0.0392  0.0380 -0.1282
  251loPI   C3B 4015   6.297   9.368   8.866  0.1826 -0.7620  0.1692
  251loPI   C4B 4016   6.354   9.502   8.429  0.0871  0.2671 -0.0393
  252loPI    C1 4017   9.586   4.748  10.769 -0.0257  0.0195 -0.1423
  252loPI    C2 4018   9.488   4.468  11.037 -0.2451  0.1026 -0.1339
  252loPI    C3 4019   9.728   4.770  11.143 -0.1083 -0.0138 -0.1089
  252loPI   PO4 4020   9.606   4.630  10.462  0.1593  0.0990  0.2967
  252loPI   GL1 4021   9.701   4.660  10.052  0.0003 -0.0124 -0.1967
  252loPI   GL2 4022   9.922   4.511   9.946 -0.2194 -0.1515 -0.2128
  252loPI   C1A 4023   9.353   4.754   9.764 -0.0444 -0.0079 -0.4089
  252loPI   C2A 4024   9.300   4.605   9.348  0.0630  0.1285 -0.1457
  252loPI   C3A 4025   9.235   4.731   8.899 -0.0168  0.1412 -0.1668
  252loPI   C4A 4026   9.264   4.828   8.591 -0.5877 -0.2175 -0.1591
  252loPI   C5A 4027   9.230   4.777   8.231 -0.0501  0.1153 -0.0431
  252loPI   C6A 4028   9.267   4.422   7.973 -0.2925 -0.1841 -0.0135
  252loPI   C1B 4029   9.834   4.531   9.567  0.2378 -0.0567  0.1066
  252loPI   C2B 4030   9.710   4.621   9.047  0.0367  0.0002  0.2094
  252loPI   C3B 4031   9.693   4.555   8.602 -0.0590  0.1021 -0.0944
  252loPI   C4B 4032   9.739   4.558   8.157  0.3023  0.0676 -0.2043
  253loPI    C1 4033  14.804  16.103  10.402  0.0697  0.1414 -0.1111
  253loPI    C2 4034  15.160  16.276  10.460  0.0942  0.0592 -0.0150
  253loPI    C3 4035  14.975  16.090  10.763 -0.0429  0.1244 -0.0578
  253loPI   PO4 4036  14.661  16.274  10.227  0.0393  0.0663 -0.1477
  253loPI   GL1 4037  14.575  16.548   9.852  0.1814 -0.0330  0.0270
  253loPI   GL2 4038  14.615  16.776   9.742  0.1120 -0.0837 -0.2862
  253loPI   C1A 4039  14.852  16.294   9.587  0.1357  0.4226 -0.2548
  253loPI   C2A 4040  15.066  16.177   9.219 -0.0739 -0.0948 -0.1780
  253loPI   C3A 4041  15.059  15.971   8.854 -0.2758  0.2810 -0.2531
  253loPI   C4A 4042  14.822  15.742   8.494  0.3397 -0.1906 -0.0881
  253loPI   C5A 4043  14.852  15.653   8.127 -0.1684 -0.0793  0.0224
  253loPI   C6A 4044  15.020  15.812   7.720  0.1329 -0.0776  0.2670
  253loPI   C1B 4045  14.550  16.557   9.337 -0.0678  0.2214  0.0002
  253loPI   C2B 4046  14.721  16.406   8.888  0.0520  0.0297 -0.0437
  253loPI   C3B 4047  14.964  16.687   8.610 -0.1593  0.1841  0.0498
  253loPI   C4B 4048  14.905  16.689   8.100 -0.0221 -0.3042  0.5536
  254loPI    C1 4049   4.251  15.693  10.397  0.3027  0.3863  0.2263
  254loPI    C2 4050   4.296  15.605  10.785 -0.1959  0.0338  0.2131
  254loPI    C3 4051   4.054  15.904  10.674 -0.1637  0.0432  0.1677
  254loPI   PO4 4052   4.506  15.706  10.338  0.1107 -0.0057  0.0636
  254loPI   GL1 4053   4.579  15.379  10.016 -0.0220 -0.0538  0.0223
  254loPI   GL2 4054   4.689  15.558   9.769  0.1499 -0.0837  0.0462
  254loPI   C1A 4055   4.636  15.032   9.665  0.2160 -0.1858 -0.2111
  254loPI   C2A 4056   4.536  15.174   9.230 -0.1824  0.2123 -0.0649
  254loPI   C3A 4057   4.543  15.150   8.752 -0.1338 -0.1199  0.1864
  254loPI   C4A 4058   4.465  15.180   8.274 -0.0542 -0.0900  0.2937
  254loPI   C5A 4059   4.287  15.444   7.863 -0.1313 -0.1906 -0.3559
  254loPI   C6A 4060   4.129  15.626   7.588 -0.1588 -0.2087 -0.0266
  254loPI   C1B 4061   4.647  15.657   9.274  0.1662 -0.1278 -0.1183
  254loPI   C2B 4062   4.527  15.677   8.814 -0.1455 -0.2255 -0.1689
  254loPI   C3B 4063   4.446  15.802   8.394  0.1575 -0.1076  0.1113
  254loPI   C4B 4064   3.960  15.848   8.289 -0.0266 -0.1397  0.0904
  255loPI    C1 4065   4.406  10.659  11.074 -0.0996 -0.0210  0.1427
  255loPI    C2 4066   4.424  10.399  11.378  0.2008 -0.0269  0.1234
  255loPI    C3 4067   4.334  10.783  11.447  0.0164 -0.0800  0.1851
  255loPI   PO4 4068   4.260  10.506  10.951 -0.0702 -0.0150  0.2748
  255loPI   GL1 4069   4.314  10.621  10.529 -0.0529  0.1417  0.0843
  255loPI   GL2 4070   4.052  10.527  10.403  0.0944 -0.2273  0.0255
  255loPI   C1A 4071   4.429  10.445  10.087  0.1389 -0.2409 -0.1333
  255loPI   C2A 4072   4.326  10.562   9.744 -0.0836 -0.1865  0.2571
  255loPI   C3A 4073   4.452  10.535   9.301 -0.2346  0.0294  0.2037
  255loPI   C4A 4074   4.520  10.479   8.878  0.1686  0.3067  0.0420
  255loPI   C5A 4075   4.451  10.360   8.435  0.0860  0.0696 -0.1022
  255loPI   C6A 4076   4.499  10.319   7.937 -0.1403  0.2016  0.2310
  255loPI   C1B 4077   3.925  10.746   9.952  0.0840  0.0677  0.0670
  255loPI   C2B 4078   3.954  10.789   9.536  0.2128 -0.0650 -0.0862
  255loPI   C3B 4079   4.029  10.769   9.066  0.0511 -0.2223  0.3163
  255loPI   C4B 4080   4.005  10.657   8.696 -0.0402  0.0390  0.2246
  256loPI    C1 4081  13.975   6.375  10.379 -0.1549 -0.0684  0.1802
  256loPI    C2 4082  13.654   6.165  10.265 -0.0315 -0.0716 -0.1716
  256loPI    C3 4083  13.651   6.360  10.614 -0.3959 -0.1131 -0.1475
  256loPI   PO4 4084  14.189   6.304  10.312 -0.0369  0.0107  0.4105
  256loPI   GL1 4085  14.310   6.453   9.913 -0.2139 -0.1148  0.1217
  256loPI   GL2 4086  14.491   6.756   9.818 -0.2397  0.0824 -0.0262
  256loPI   C1A 4087  13.843   6.381   9.693 -0.0255  0.1631  0.0552
  256loPI   C2A 4088  13.826   6.472   9.298  0.0604  0.0646  0.3984
  256loPI   C3A 4089  13.759   6.537   8.827 -0.2514  0.1978  0.1466
  256loPI   C4A 4090  13.822   6.505   8.429 -0.1237 -0.1879 -0.0794
  256loPI   C5A 4091  13.739   6.394   8.027 -0.0722 -0.0106 -0.3699
  256loPI   C6A 4092  13.904   6.127   7.664  0.2124  0.2634  0.0289
  256loPI   C1B 4093  14.347   6.761   9.421 -0.1767  0.1492  0.1505
  256loPI   C2B 4094  14.285   6.791   8.937 -0.0730 -0.0194  0.1689
  256loPI   C3B 4095  14.258   6.754   8.475 -0.3083  0.0216 -0.0484
  256loPI   C4B 4096  14.329   6.760   8.062 -0.2553 -0.1227  0.2257
  257loPI    C1 4097  14.074  10.827  10.430 -0.0297 -0.0606 -0.0693
  257loPI    C2 4098  14.052  10.431  10.479  0.0522 -0.0643 -0.0599
  257loPI    C3 4099  13.725  10.657  10.525  0.0536 -0.1050  0.1639
  257loPI   PO4 4100  14.374  10.881  10.246 -0.0327  0.0216 -0.3180
  257loPI   GL1 4101  14.511  10.939   9.858 -0.0186  0.1167 -0.2747
  257loPI   GL2 4102  14.081  10.878   9.888 -0.2545 -0.0105  0.1202
  257loPI   C1A 4103  14.330  10.961   9.490 -0.0759 -0.1717 -0.1779
  257loPI   C2A 4104  14.326  10.955   9.109 -0.2378  0.0061 -0.2050
  257loPI   C3A 4105  14.329  11.061   8.693 -0.0229  0.2419  0.4327
  257loPI   C4A 4106  14.132  11.146   8.234  0.0126 -0.2805 -0.2458
  257loPI   C5A 4107  14.060  11.154   7.807  0.1906  0.0193  0.0007
  257loPI   C6A 4108  14.037  11.349   7.456 -0.0916 -0.0532  0.1967
  257loPI   C1B 4109  14.197  10.471   9.530  0.2209 -0.1561  0.3289
  257loPI   C2B 4110  14.444  10.430   9.212  0.0988 -0.1210  0.2032
  257loPI   C3B 4111  14.336  10.530   8.729 -0.0244  0.1068 -0.1500
  257loPI   C4B 4112  13.977  10.744   8.544  0.0855  0.0324  0.1837
  258loPI    C1 4113   2.496  16.097  10.428 -0.1659  0.0723 -0.1655
  258loPI    C2 4114   2.713  16.216  10.743  0.0606 -0.2367 -0.2005
  258loPI    C3 4115   2.390  15.986  10.798 -0.0479 -0.0799 -0.1763
  258loPI   PO4 4116   2.794  16.018  10.254  0.2061  0.1572 -0.0713
  258loPI   GL1 4117   2.988  16.198   9.916  0.2771 -0.1240 -0.0548
  258loPI   GL2 4118   2.862  15.886   9.796  0.1035  0.3936 -0.2555
  258loPI   C1A 4119   2.893  16.419   9.538 -0.1206  0.1737  0.2989
  258loPI   C2A 4120   2.897  16.403   9.133 -0.1254  0.0254  0.0506
  258loPI   C3A 4121   2.815  16.310   8.803 -0.1156 -0.0642  0.0316
  258loPI   C4A 4122   2.801  16.127   8.401  0.2873 -0.0603  0.0370
  258loPI   C5A 4123   2.757  16.223   7.944 -0.1951  0.0672  0.2553
  258loPI   C6A 4124   2.548  16.444   7.747 -0.0707 -0.4083  0.0874
  258loPI   C1B 4125   2.850  15.885   9.369  0.1440  0.3478 -0.2223
  258loPI   C2B 4126   2.830  15.741   8.932  0.2927  0.1287 -0.0224
  258loPI   C3B 4127   2.753  15.622   8.532 -0.0013  0.1552  0.0627
  258loPI   C4B 4128   2.919  15.686   8.196  0.1726 -0.1075 -0.0856
  259loPI    C1 4129   5.385   8.989  10.437  0.0173  0.3492  0.3217
  259loPI    C2 4130   5.268   8.975  10.820  0.0404  0.0248  0.3197
  259loPI    C3 4131   5.585   8.763  10.699 -0.1161 -0.0717  0.0697
  259loPI   PO4 4132   5.306   9.261  10.289 -0.1591 -0.1181 -0.1815
  259loPI   GL1 4133   4.991   9.319   9.965  0.0117  0.2159  0.0122
  259loPI   GL2 4134   5.331   9.400   9.795  0.1015 -0.1411 -0.3657
  259loPI   C1A 4135   4.888   9.122   9.552  0.2335 -0.0707  0.0659
  259loPI   C2A 4136   4.857   9.093   9.151 -0.1276  0.1727 -0.1698
  259loPI   C3A 4137   4.936   9.085   8.737  0.1663  0.1142 -0.0095
  259loPI   C4A 4138   4.890   9.096   8.250 -0.0624 -0.3853 -0.0815
  259loPI   C5A 4139   4.789   9.440   8.002  0.1874  0.2033  0.2013
  259loPI   C6A 4140   4.611   9.789   7.735  0.2257 -0.0321 -0.1410
  259loPI   C1B 4141   5.294   9.390   9.355 -0.0995 -0.0311 -0.2122
  259loPI   C2B 4142   5.322   9.313   9.035  0.2130 -0.1002 -0.1857
  259loPI   C3B 4143   5.342   9.355   8.620  0.0204  0.1681 -0.3301
  259loPI   C4B 4144   5.338   9.441   8.234  0.1065  0.0377  0.1237
  260loPI    C1 4145   5.113   7.692  11.161 -0.2065 -0.0444  0.0788
  260loPI    C2 4146   4.874   7.605  11.470 -0.1477 -0.1941  0.0834
  260loPI    C3 4147   5.262   7.680  11.532 -0.1533 -0.1412  0.0549
  260loPI   PO4 4148   5.048   7.448  10.976  0.0965  0.1700 -0.3818
  260loPI   GL1 4149   4.945   7.392  10.532  0.3091  0.3083 -0.1678
  260loPI   GL2 4150   4.847   7.551  10.231  0.0754  0.0157  0.2504
  260loPI   C1A 4151   4.878   7.003  10.241 -0.0915  0.5635  0.0626
  260loPI   C2A 4152   4.817   7.066   9.724  0.0313  0.0096 -0.3793
  260loPI   C3A 4153   4.800   7.115   9.238 -0.0099  0.0796 -0.0545
  260loPI   C4A 4154   4.871   7.091   8.742  0.2433  0.0408 -0.1212
  260loPI   C5A 4155   4.975   6.961   8.274 -0.1570  0.3124  0.1518
  260loPI   C6A 4156   4.865   6.662   7.879 -0.0287 -0.1414 -0.1055
  260loPI   C1B 4157   4.911   7.529   9.788  0.1269 -0.2757  0.0575
  260loPI   C2B 4158   4.797   7.539   9.438  0.1196  0.1510  0.0877
  260loPI   C3B 4159   4.895   7.545   8.995  0.2530  0.2247 -0.0965
  260loPI   C4B 4160   4.966   7.522   8.475  0.0681 -0.1097 -0.3165
  261loPI    C1 4161   2.735  17.547  10.570  0.1527 -0.1001 -0.0583
  261loPI    C2 4162   2.848  17.883  10.755 -0.0070 -0.0658 -0.0222
  261loPI    C3 4163   2.787  17.549  10.966 -0.5264  0.0601  0.0425
  261loPI   PO4 4164   2.480  17.627  10.362  0.1612 -0.1412  0.2171
  261loPI   GL1 4165   2.479  17.726   9.963 -0.1011 -0.0706  0.0787
  261loPI   GL2 4166   2.522  17.461   9.861 -0.1898  0.3838 -0.3044
  261loPI   C1A 4167   2.575  17.813   9.477 -0.1195  0.1748  0.2928
  261loPI   C2A 4168   2.809  17.730   9.118  0.0878  0.3283  0.0932
  261loPI   C3A 4169   2.822  17.666   8.691  0.0428 -0.3310 -0.3178
  261loPI   C4A 4170   2.926  17.339   8.265  0.2304 -0.0022 -0.3259
  261loPI   C5A 4171   3.032  17.151   7.786  0.0616 -0.0428 -0.0183
  261loPI   C6A 4172   3.177  17.187   7.432  0.1200  0.1374 -0.2306
  261loPI   C1B 4173   2.337  17.290   9.476  0.3607 -0.2730 -0.0411
  261loPI   C2B 4174   2.416  17.312   9.021  0.1538  0.2661  0.0922
  261loPI   C3B 4175   2.365  17.326   8.575 -0.0318  0.2252 -0.3303
  261loPI   C4B 4176   2.343  16.912   8.296  0.3619  0.1162  0.1137
  262loPI    C1 4177   9.803  16.095  10.182  0.0037 -0.2514  0.0664
  262loPI    C2 4178  10.123  16.059  10.419 -0.2185  0.0457  0.4237
  262loPI    C3 4179   9.761  15.958  10.555 -0.3023 -0.1386  0.0762
  262loPI   PO4 4180   9.931  16.053   9.951  0.0676  0.2448  0.0969
  262loPI   GL1 4181  10.226  16.246   9.637 -0.2276  0.5338  0.1083
  262loPI   GL2 4182  10.183  15.791   9.631  0.1244 -0.1042  0.0991
  262loPI   C1A 4183  10.414  16.034   9.255  0.0364 -0.2118 -0.1321
  262loPI   C2A 4184  10.547  16.138   8.891 -0.0585 -0.1100  0.3589
  262loPI   C3A 4185  10.630  16.226   8.409 -0.2235  0.3410  0.3742
  262loPI   C4A 4186  10.642  16.440   7.992 -0.1620 -0.0221 -0.1323
  262loPI   C5A 4187  10.559  16.107   7.712  0.0862  0.0868 -0.1606
  262loPI   C6A 4188  10.589  16.076   7.297  0.0619  0.0652  0.0863
  262loPI   C1B 4189  10.004  15.716   9.214 -0.0722 -0.0580  0.1032
  262loPI   C2B 4190  10.012  15.863   8.812  0.0623  0.1982 -0.4577
  262loPI   C3B 4191  10.042  16.052   8.427 -0.0793 -0.0045 -0.2677
  262loPI   C4B 4192  10.163  16.211   8.040 -0.0970  0.3290 -0.2281
  263loPI    C1 4193   7.281   0.212  10.226  0.0234 -0.1857 -0.2235
  263loPI    C2 4194   7.311  -0.106  10.467  0.2719  0.0527  0.0683
  263loPI    C3 4195   6.953   0.056  10.392  0.1719 -0.1420  0.1198
  263loPI   PO4 4196   7.469   0.181   9.939 -0.3457  0.1664  0.2234
  263loPI   GL1 4197   7.408   0.406   9.514  0.2047  0.3559  0.0118
  263loPI   GL2 4198   7.228   0.164   9.461 -0.3227 -0.1211 -0.3140
  263loPI   C1A 4199   7.634   0.310   9.215 -0.1089 -0.0168  0.1370
  263loPI   C2A 4200   7.656   0.413   8.842 -0.0295 -0.1394  0.2473
  263loPI   C3A 4201   7.666   0.438   8.414  0.3614  0.1632  0.0634
  263loPI   C4A 4202   7.442   0.511   7.959 -0.1082  0.1845  0.0234
  263loPI   C5A 4203   7.371   0.849   7.763 -0.0328  0.1744 -0.0243
  263loPI   C6A 4204   7.237   1.262   7.844 -0.0216 -0.0133 -0.0427
  263loPI   C1B 4205   7.137   0.398   9.047  0.3698  0.1728 -0.0115
  263loPI   C2B 4206   6.771   0.439   8.770  0.0472  0.2915  0.0668
  263loPI   C3B 4207   6.379   0.286   8.462 -0.1515  0.3864  0.0516
  263loPI   C4B 4208   6.337   0.029   8.163 -0.0562 -0.1116 -0.1738
  264loPI    C1 4209   3.983  18.211  10.568 -0.3090 -0.0307  0.0461
  264loPI    C2 4210   3.650  18.346  10.743 -0.1030 -0.0093  0.4307
  264loPI    C3 4211   4.008  18.460  10.879  0.0654  0.0146 -0.0159
  264loPI   PO4 4212   3.937  18.187  10.272 -0.0556 -0.1100  0.1081
  264loPI   GL1 4213   3.877  18.075   9.853  0.2578  0.2483 -0.0912
  264loPI   GL2 4214   3.645  18.127   9.661  0.2884 -0.0352 -0.1548
  264loPI   C1A 4215   4.035  17.943   9.486 -0.5049  0.2556  0.2194
  264loPI   C2A 4216   4.069  18.035   9.054 -0.2709 -0.0398  0.2039
  264loPI   C3A 4217   4.109  17.909   8.618  0.0624  0.0300 -0.1067
  264loPI   C4A 4218   4.137  17.793   8.236  0.1208  0.0641  0.3323
  264loPI   C5A 4219   4.066  17.501   7.885  0.0065  0.0420 -0.0318
  264loPI   C6A 4220   3.833  17.125   7.849  0.2190 -0.2887 -0.1539
  264loPI   C1B 4221   3.575  18.073   9.294  0.2197  0.0971 -0.0971
  264loPI   C2B 4222   3.595  18.202   8.891 -0.0353 -0.2136 -0.1388
  264loPI   C3B 4223   3.739  18.233   8.616 -0.0979 -0.0125 -0.2461
  264loPI   C4B 4224   3.667  18.017   8.209 -0.1502 -0.1267 -0.1398
  265loPI    C1 4225  16.560  10.742  10.915 -0.3069  0.0058 -0.0533
  265loPI    C2 4226  16.464  10.455  11.177  0.0893 -0.1087 -0.0272
  265loPI    C3 4227  16.770  10.702  11.253  0.1888 -0.1231 -0.3657
  265loPI   PO4 4228  16.456  10.621  10.697  0.0486  0.0476  0.0963
  265loPI   GL1 4229  16.553  10.503  10.171 -0.1299  0.1443  0.1514
  265loPI   GL2 4230  16.604  10.646   9.923  0.2134  0.0168  0.0594
  265loPI   C1A 4231  16.561  10.265   9.726 -0.1291 -0.0360 -0.0534
  265loPI   C2A 4232  16.458  10.168   9.300 -0.1967 -0.1444  0.2607
  265loPI   C3A 4233  16.639  10.179   8.863  0.1132 -0.2765 -0.2646
  265loPI   C4A 4234  16.800  10.120   8.424 -0.1399  0.0334 -0.1615
  265loPI   C5A 4235  16.793  10.124   8.018  0.0564 -0.1065  0.2322
  265loPI   C6A 4236  17.156   9.904   7.784  0.3070  0.0106  0.2273
  265loPI   C1B 4237  16.544  10.780   9.455  0.0212 -0.0512 -0.0936
  265loPI   C2B 4238  16.656  10.760   9.084  0.2400  0.2411  0.0501
  265loPI   C3B 4239  16.568  10.673   8.709 -0.2257  0.0102 -0.1349
  265loPI   C4B 4240  16.327  10.851   8.323  0.2005  0.0559  0.0707
  266loPI    C1 4241  10.040   4.874  10.481 -0.2472  0.1354  0.1834
  266loPI    C2 4242  10.397   4.847  10.660 -0.0650  0.1321 -0.1715
  266loPI    C3 4243  10.080   4.657  10.815  0.0435  0.2816  0.2466
  266loPI   PO4 4244  10.153   4.873  10.210 -0.0177  0.2539  0.2630
  266loPI   GL1 4245  10.132   5.221   9.865 -0.1256 -0.1680 -0.0586
  266loPI   GL2 4246   9.855   5.211  10.005  0.0777 -0.2255  0.1158
  266loPI   C1A 4247  10.266   5.249   9.484 -0.0002 -0.2831  0.0306
  266loPI   C2A 4248  10.266   5.333   9.050  0.1918  0.1396 -0.4431
  266loPI   C3A 4249  10.138   5.352   8.631  0.1581  0.3911  0.3331
  266loPI   C4A 4250  10.037   5.341   8.171  0.3590  0.0110 -0.2044
  266loPI   C5A 4251   9.764   5.173   7.828 -0.1037  0.2751  0.0765
  266loPI   C6A 4252   9.385   4.960   7.799  0.1037 -0.2414 -0.3977
  266loPI   C1B 4253   9.724   5.032   9.733 -0.0886 -0.1255  0.0665
  266loPI   C2B 4254   9.760   5.024   9.314 -0.0387  0.1213  0.2806
  266loPI   C3B 4255   9.732   5.100   8.857  0.0401  0.0654 -0.0847
  266loPI   C4B 4256   9.675   5.018   8.444 -0.1435 -0.0079  0.0358
  267loPI    C1 4257  16.466   5.122  10.424  0.1420  0.0753 -0.0916
  267loPI    C2 4258  16.246   4.804  10.527  0.1142  0.0881 -0.1112
  267loPI    C3 4259  16.611   4.853  10.682  0.1291  0.0323 -0.1290
  267loPI   PO4 4260  16.483   5.114  10.152 -0.1169  0.0890  0.2128
  267loPI   GL1 4261  16.153   5.153   9.755 -0.1015 -0.0012  0.2330
  267loPI   GL2 4262  16.392   4.940   9.606 -0.0362  0.1680  0.3313
  267loPI   C1A 4263  15.810   5.229   9.404  0.0618 -0.1838  0.2074
  267loPI   C2A 4264  15.840   5.067   9.039  0.0340  0.0654 -0.1125
  267loPI   C3A 4265  15.886   4.769   8.666  0.3354 -0.0221 -0.3893
  267loPI   C4A 4266  15.815   4.653   8.250  0.2355 -0.2496  0.1106
  267loPI   C5A 4267  15.712   4.885   7.877 -0.0872  0.1317 -0.1799
  267loPI   C6A 4268  15.926   5.122   7.418 -0.0469  0.0204 -0.1366
  267loPI   C1B 4269  16.354   5.258   9.354  0.1260 -0.0421 -0.1299
  267loPI   C2B 4270  16.466   5.406   8.946 -0.1652  0.2601 -0.2146
  267loPI   C3B 4271  16.535   5.417   8.576 -0.0881 -0.2552  0.2521
  267loPI   C4B 4272  16.574   5.575   8.200 -0.1163 -0.0745 -0.0729
  268loPI    C1 4273   0.181  14.741  10.646  0.1664 -0.0874 -0.0337
  268loPI    C2 4274   0.309  14.528  10.960 -0.0492 -0.1827 -0.0083
  268loPI    C3 4275   0.573  14.711  10.721  0.1206 -0.1822  0.1766
  268loPI   PO4 4276  -0.036  14.663  10.465 -0.0807 -0.1453 -0.0807
  268loPI   GL1 4277  -0.084  14.413  10.093  0.0886 -0.2360 -0.0178
  268loPI   GL2 4278   0.187  14.629  10.000 -0.0918  0.3697  0.1791
  268loPI   C1A 4279   0.014  14.098   9.845  0.4832 -0.1665 -0.4229
  268loPI   C2A 4280   0.050  13.963   9.412 -0.0748  0.1532 -0.0272
  268loPI   C3A 4281   0.396  14.050   9.237 -0.1061  0.3088  0.1479
  268loPI   C4A 4282   0.575  13.948   8.897  0.1964 -0.2079 -0.3197
  268loPI   C5A 4283   0.363  13.897   8.457  0.2095 -0.4596  0.3207
  268loPI   C6A 4284   0.071  14.159   8.266 -0.0515 -0.0707  0.1607
  268loPI   C1B 4285   0.065  14.628   9.507 -0.2763  0.2269 -0.0456
  268loPI   C2B 4286   0.076  14.421   9.089  0.0435 -0.2466  0.0668
  268loPI   C3B 4287   0.057  14.151   8.799 -0.1089  0.3097  0.6544
  268loPI   C4B 4288   0.135  13.717   8.939 -0.0347 -0.0685  0.1752
  269loPI    C1 4289  17.910  17.568  10.068  0.1184 -0.1037  0.1140
  269loPI    C2 4290  18.002  17.591  10.457  0.2640  0.1332  0.0670
  269loPI    C3 4291  17.896  17.921  10.256 -0.1119 -0.0370 -0.0233
  269loPI   PO4 4292  17.590  17.387   9.970 -0.0483  0.1396 -0.0986
  269loPI   GL1 4293  17.312  17.368   9.632 -0.1242  0.1351  0.2144
  269loPI   GL2 4294  17.038  17.476   9.639 -0.0276  0.1221  0.1316
  269loPI   C1A 4295  17.410  17.346   9.224  0.0562 -0.3274 -0.3484
  269loPI   C2A 4296  17.418  17.473   8.778  0.2001 -0.0425 -0.0758
  269loPI   C3A 4297  17.322  17.595   8.414  0.1334  0.2960  0.0504
  269loPI   C4A 4298  17.465  17.338   8.057 -0.0563 -0.3371 -0.1477
  269loPI   C5A 4299  17.165  17.153   7.777 -0.1477  0.3009  0.1312
  269loPI   C6A 4300  16.938  17.120   7.330  0.0431  0.1497 -0.0869
  269loPI   C1B 4301  17.122  17.721   9.304  0.2754  0.5178 -0.0496
  269loPI   C2B 4302  17.206  18.029   9.009  0.1151  0.2124  0.1384
  269loPI   C3B 4303  17.327  17.979   8.612  0.2052  0.2141  0.1220
  269loPI   C4B 4304  17.132  18.130   8.271  0.0606  0.1650  0.0529
  270loPI    C1 4305   2.131  11.675  10.706  0.2065 -0.0768  0.1314
  270loPI    C2 4306   2.159  11.293  10.821  0.0504 -0.1765 -0.1511
  270loPI    C3 4307   1.832  11.506  10.911  0.1191 -0.1214 -0.0303
  270loPI   PO4 4308   2.083  11.723  10.490 -0.0707 -0.0722 -0.0236
  270loPI   GL1 4309   2.378  11.865  10.215 -0.2299 -0.0539  0.1719
  270loPI   GL2 4310   2.583  11.733  10.062  0.5439 -0.0083 -0.2463
  270loPI   C1A 4311   2.158  11.861   9.814 -0.1449  0.2733  0.2507
  270loPI   C2A 4312   2.182  11.801   9.427  0.2269  0.3444  0.0655
  270loPI   C3A 4313   2.243  11.859   9.068 -0.2244 -0.0405 -0.0414
  270loPI   C4A 4314   2.271  11.866   8.624 -0.1053  0.1150 -0.1141
  270loPI   C5A 4315   2.429  11.724   8.285 -0.0037 -0.2241 -0.4426
  270loPI   C6A 4316   2.576  11.544   7.897 -0.4521  0.3125  0.2007
  270loPI   C1B 4317   2.582  11.558   9.700  0.0169 -0.2115 -0.1569
  270loPI   C2B 4318   2.635  11.553   9.306  0.0288  0.0168 -0.0634
  270loPI   C3B 4319   2.772  11.562   8.962 -0.2788 -0.1308  0.1889
  270loPI   C4B 4320   2.843  11.514   8.530 -0.3409  0.0882  0.1445
  271loPI    C1 4321   2.954  15.344  10.709 -0.1424  0.1669  0.2422
  271loPI    C2 4322   2.878  15.736  10.725  0.0391  0.2060  0.1763
  271loPI    C3 4323   2.635  15.478  10.910 -0.1161  0.3441  0.1682
  271loPI   PO4 4324   3.121  15.330  10.420 -0.1873  0.1325 -0.0058
  271loPI   GL1 4325   2.987  15.467  10.029  0.0086  0.1806 -0.0596
  271loPI   GL2 4326   2.866  15.259   9.901 -0.0410  0.4701 -0.0549
  271loPI   C1A 4327   3.239  15.489   9.606 -0.2033  0.0900 -0.0987
  271loPI   C2A 4328   3.254  15.491   9.250 -0.3920 -0.1980 -0.1429
  271loPI   C3A 4329   3.168  15.426   8.817 -0.0288  0.1046 -0.1986
  271loPI   C4A 4330   3.179  15.265   8.372 -0.0723  0.0797  0.4839
  271loPI   C5A 4331   3.280  14.887   8.053 -0.1540  0.0187 -0.2531
  271loPI   C6A 4332   3.500  14.705   7.758  0.1013 -0.0251  0.0734
  271loPI   C1B 4333   2.813  15.288   9.413 -0.3279  0.1950 -0.0171
  271loPI   C2B 4334   2.782  15.257   9.018  0.0998  0.1500  0.0515
  271loPI   C3B 4335   2.616  15.093   8.685 -0.4717 -0.1271 -0.1638
  271loPI   C4B 4336   2.702  15.201   8.268  0.0038  0.0335 -0.0807
  272loPI    C1 4337   2.050   6.808  11.051  0.0956  0.2122 -0.0541
  272loPI    C2 4338   2.390   6.827  11.260  0.0881  0.0848 -0.0300
  272loPI    C3 4339   2.070   6.644  11.415  0.1257 -0.1392 -0.2103
  272loPI   PO4 4340   2.086   6.752  10.798  0.2926  0.1976 -0.4303
  272loPI   GL1 4341   2.000   6.465  10.468  0.0130 -0.0871  0.2705
  272loPI   GL2 4342   1.725   6.640  10.487 -0.2890 -0.0293  0.1621
  272loPI   C1A 4343   2.154   6.206  10.045  0.0013  0.0048 -0.2398
  272loPI   C2A 4344   2.045   6.127   9.602 -0.3096  0.2458  0.1072
  272loPI   C3A 4345   2.086   6.108   9.111 -0.0967 -0.1103 -0.0783
  272loPI   C4A 4346   2.091   6.055   8.621 -0.0028 -0.1193 -0.0494
  272loPI   C5A 4347   2.011   5.858   8.237 -0.0083 -0.0253  0.3850
  272loPI   C6A 4348   1.548   5.740   8.014 -0.0032 -0.2633 -0.0543
  272loPI   C1B 4349   1.671   6.798  10.050  0.0317 -0.1872 -0.3909
  272loPI   C2B 4350   1.599   7.235   9.863  0.0338 -0.0072  0.1697
  272loPI   C3B 4351   1.599   7.528   9.486  0.1185 -0.0426 -0.2745
  272loPI   C4B 4352   1.629   7.511   9.083 -0.2531 -0.0928 -0.0229
  273loPI    C1 4353   0.220  18.253  10.142  0.1028 -0.2413 -0.2046
  273loPI    C2 4354   0.423  18.247  10.487  0.0256 -0.0797 -0.1551
  273loPI    C3 4355   0.089  18.465  10.455  0.0559 -0.0592 -0.3456
  273loPI   PO4 4356   0.296  18.017   9.945  0.1095 -0.1381 -0.2062
  273loPI   GL1 4357   0.420  18.021   9.577  0.1994 -0.1569 -0.0345
  273loPI   GL2 4358   0.213  18.237   9.429  0.0955  0.0407 -0.2499
  273loPI   C1A 4359   0.634  17.954   9.132 -0.2087  0.1136 -0.2752
  273loPI   C2A 4360   0.600  17.869   8.793  0.1748 -0.1027  0.1688
  273loPI   C3A 4361   0.820  17.722   8.537  0.0083 -0.1411  0.0009
  273loPI   C4A 4362   0.869  17.537   8.172 -0.0011 -0.3982 -0.2437
  273loPI   C5A 4363   1.313  17.546   7.959 -0.2498  0.1293 -0.1088
  273loPI   C6A 4364   1.773  17.565   7.810 -0.1281 -0.0917  0.0210
  273loPI   C1B 4365   0.204  18.136   8.949 -0.1283  0.0232  0.2410
  273loPI   C2B 4366   0.263  18.088   8.543  0.1683  0.0371 -0.0749
  273loPI   C3B 4367   0.346  18.112   8.011  0.0250  0.0080 -0.1889
  273loPI   C4B 4368   0.433  18.206   7.581 -0.1701 -0.2360 -0.0411
  274loPI    C1 4369   8.574   2.348  10.727 -0.1893 -0.1830  0.1858
  274loPI    C2 4370   8.181   2.423  10.738 -0.1111  0.2579  0.1460
  274loPI    C3 4371   8.402   2.464  11.069 -0.1035 -0.0340  0.1795
  274loPI   PO4 4372   8.601   2.314  10.458 -0.0722  0.3203 -0.1012
  274loPI   GL1 4373   8.378   2.411  10.054 -0.1081 -0.2878  0.1075
  274loPI   GL2 4374   8.179   2.103   9.991  0.2018 -0.2685 -0.0604
  274loPI   C1A 4375   8.333   2.709   9.665 -0.1469  0.2259 -0.0166
  274loPI   C2A 4376   8.205   2.699   9.213 -0.0948 -0.0197  0.0169
  274loPI   C3A 4377   8.417   2.715   8.769  0.0744 -0.2469 -0.1988
  274loPI   C4A 4378   8.328   2.709   8.398 -0.0558  0.1538 -0.0990
  274loPI   C5A 4379   8.565   2.884   7.989 -0.0180 -0.0362 -0.0999
  274loPI   C6A 4380   8.914   3.043   7.712 -0.0820  0.1845 -0.1438
  274loPI   C1B 4381   8.378   2.066   9.487  0.0234  0.3975  0.1227
  274loPI   C2B 4382   8.317   2.223   9.042  0.1622 -0.1307  0.2308
  274loPI   C3B 4383   8.326   2.219   8.654 -0.0619 -0.1608 -0.4322
  274loPI   C4B 4384   8.459   2.033   8.257 -0.0684  0.2451  0.1625
  275loPI    C1 4385  11.388   3.703  10.380  0.0112 -0.0889  0.2600
  275loPI    C2 4386  11.427   4.070  10.536  0.0147  0.0079  0.0349
  275loPI    C3 4387  11.206   3.795  10.724  0.0929  0.0943  0.2558
  275loPI   PO4 4388  11.336   3.693  10.129 -0.0240  0.1186 -0.0478
  275loPI   GL1 4389  11.290   4.141   9.964 -0.1205 -0.0843 -0.0993
  275loPI   GL2 4390  11.442   3.915   9.716 -0.0235  0.2553 -0.0810
  275loPI   C1A 4391  11.132   4.203   9.498 -0.0114  0.0951 -0.1900
  275loPI   C2A 4392  11.112   4.208   8.990 -0.2742 -0.1863  0.2491
  275loPI   C3A 4393  11.196   4.269   8.701 -0.2175  0.1927 -0.2743
  275loPI   C4A 4394  11.147   4.329   8.277  0.0070 -0.1080  0.0998
  275loPI   C5A 4395  11.037   4.403   7.902  0.1554 -0.4512  0.0762
  275loPI   C6A 4396  11.154   4.665   7.473 -0.1299  0.1620 -0.0646
  275loPI   C1B 4397  11.557   4.002   9.272 -0.0483  0.0405 -0.6007
  275loPI   C2B 4398  11.615   4.093   8.821  0.1582 -0.0881  0.1190
  275loPI   C3B 4399  11.611   4.133   8.410  0.4775  0.3101  0.0002
  275loPI   C4B 4400  11.529   4.059   7.986 -0.2462  0.1660 -0.0159
  276loPI    C1 4401  17.030   4.890  10.449 -0.3299 -0.0415 -0.1297
  276loPI    C2 4402  17.021   5.235  10.247  0.1206  0.0306 -0.0364
  276loPI    C3 4403  16.916   5.227  10.633 -0.2427 -0.0104 -0.1322
  276loPI   PO4 4404  17.132   4.710  10.191 -0.2294  0.0617  0.3606
  276loPI   GL1 4405  17.094   4.448   9.880  0.0911 -0.1880 -0.0621
  276loPI   GL2 4406  17.144   4.174   9.755  0.1069  0.1199  0.1184
  276loPI   C1A 4407  17.339   4.349   9.390  0.0208  0.0180  0.0977
  276loPI   C2A 4408  17.210   4.370   9.051  0.2194  0.0909  0.0512
  276loPI   C3A 4409  17.119   4.208   8.734 -0.0862 -0.1936 -0.0127
  276loPI   C4A 4410  17.112   4.185   8.354  0.4212  0.1896  0.0295
  276loPI   C5A 4411  17.207   4.230   7.916 -0.0504  0.1964  0.0914
  276loPI   C6A 4412  17.488   4.483   7.760  0.1850 -0.2789 -0.3643
  276loPI   C1B 4413  16.872   4.041   9.370 -0.1754  0.3717 -0.1290
  276loPI   C2B 4414  16.662   3.987   9.008  0.0970 -0.1488 -0.0001
  276loPI   C3B 4415  16.730   3.933   8.565 -0.3099 -0.0717 -0.1641
  276loPI   C4B 4416  16.687   3.660   8.148 -0.2475  0.2838  0.1444
  277loPI    C1 4417   6.352   2.336  10.722  0.0601 -0.0744  0.0325
  277loPI    C2 4418   6.444   2.587  11.020 -0.0311 -0.1114  0.0923
  277loPI    C3 4419   6.383   2.199  11.097  0.0093 -0.1333  0.0153
  277loPI   PO4 4420   6.464   2.386  10.451 -0.0156 -0.0666  0.0462
  277loPI   GL1 4421   6.708   2.647  10.151 -0.2540 -0.3314  0.2375
  277loPI   GL2 4422   6.930   2.451  10.027  0.0521 -0.0224 -0.1029
  277loPI   C1A 4423   6.549   2.781   9.801 -0.1662  0.0148  0.0629
  277loPI   C2A 4424   6.522   2.743   9.456  0.3670 -0.2984  0.0897
  277loPI   C3A 4425   6.495   2.751   8.985  0.1044 -0.1160  0.2577
  277loPI   C4A 4426   6.571   2.874   8.569  0.0587 -0.1991  0.1061
  277loPI   C5A 4427   6.576   3.103   8.125  0.2569 -0.2050  0.2331
  277loPI   C6A 4428   6.679   3.347   7.784 -0.2852  0.1437  0.2929
  277loPI   C1B 4429   7.051   2.386   9.636 -0.1775  0.1599 -0.0944
  277loPI   C2B 4430   6.919   2.499   9.257  0.2404  0.0147 -0.2105
  277loPI   C3B 4431   6.941   2.552   8.790 -0.3124  0.2018 -0.5143
  277loPI   C4B 4432   6.646   2.416   8.430 -0.1874  0.3972  0.2415
  278loPI    C1 4433  17.215   2.255  10.280 -0.1776 -0.2260  0.0326
  278loPI    C2 4434  17.127   2.431  10.628 -0.0712 -0.0340 -0.0362
  278loPI    C3 4435  17.423   2.163  10.608  0.0806  0.1307 -0.0246
  278loPI   PO4 4436  17.230   2.431  10.119  0.0181  0.0900  0.1367
  278loPI   GL1 4437  17.470   2.613   9.859 -0.2183  0.0217  0.0666
  278loPI   GL2 4438  17.552   2.332   9.712  0.0578 -0.1102 -0.1016
  278loPI   C1A 4439  17.665   2.914   9.622 -0.1391 -0.0244  0.1644
  278loPI   C2A 4440  18.021   2.977   9.256  0.2227  0.2782  0.1715
  278loPI   C3A 4441  18.245   3.029   8.884 -0.0513  0.0114 -0.1387
  278loPI   C4A 4442  18.478   2.964   8.543  0.0435  0.0147  0.1357
  278loPI   C5A 4443  18.419   2.732   8.071 -0.0578 -0.2703 -0.1051
  278loPI   C6A 4444  18.052   2.425   7.973 -0.0693 -0.1512 -0.1681
  278loPI   C1B 4445  17.802   2.052   9.371 -0.0506 -0.0879 -0.1175
  278loPI   C2B 4446  17.553   1.726   9.192  0.0313  0.3020 -0.2345
  278loPI   C3B 4447  17.577   1.409   8.863 -0.2860  0.1011 -0.0482
  278loPI   C4B 4448  17.623   1.333   8.439  0.2524 -0.1975  0.4705
  279loPI    C1 4449  10.805   3.474  10.567  0.2875  0.1197  0.0573
  279loPI    C2 4450  10.853   3.082  10.632  0.1658  0.0534 -0.2384
  279loPI    C3 4451  10.934   3.345  10.923  0.0304 -0.2047  0.0370
  279loPI   PO4 4452  10.870   3.497  10.339 -0.0880 -0.0268 -0.0386
  279loPI   GL1 4453  10.877   3.518   9.942 -0.1686  0.1218 -0.2133
  279loPI   GL2 4454  10.978   3.722   9.638 -0.2328  0.2958  0.0167
  279loPI   C1A 4455  10.591   3.513   9.504 -0.0570  0.1677  0.2007
  279loPI   C2A 4456  10.583   3.478   9.064  0.0500  0.2734 -0.1153
  279loPI   C3A 4457  10.764   3.585   8.621 -0.0817  0.2485  0.1204
  279loPI   C4A 4458  10.733   3.446   8.183 -0.2817  0.0809 -0.1000
  279loPI   C5A 4459  10.749   3.478   7.785 -0.0854  0.0421  0.1051
  279loPI   C6A 4460  10.644   3.402   7.409 -0.3114 -0.0194 -0.0439
  279loPI   C1B 4461  10.999   3.778   9.146  0.1700 -0.0750 -0.1116
  279loPI   C2B 4462  11.208   3.786   8.723  0.0392  0.3427  0.0140
  279loPI   C3B 4463  11.165   3.825   8.290  0.1818 -0.1062 -0.1311
  279loPI   C4B 4464  11.083   3.852   7.959  0.2116 -0.1993 -0.1202
  280loPI    C1 4465  10.823   2.586  10.554 -0.1828 -0.0279  0.1429
  280loPI    C2 4466  10.447   2.615  10.688 -0.1571  0.1545  0.1784
  280loPI    C3 4467  10.753   2.678  10.937 -0.1056  0.2127  0.1013
  280loPI   PO4 4468  10.855   2.715  10.322  0.3363  0.0680  0.0127
  280loPI   GL1 4469  10.740   2.655   9.972 -0.1656  0.0325  0.2410
  280loPI   GL2 4470  10.827   2.506   9.734 -0.2740 -0.1019  0.0421
  280loPI   C1A 4471  10.669   2.955   9.645 -0.0454 -0.1283 -0.2291
  280loPI   C2A 4472  10.608   3.012   9.266 -0.2142  0.1674  0.3552
  280loPI   C3A 4473  10.671   2.983   8.877  0.0808  0.0309  0.1797
  280loPI   C4A 4474  10.707   2.959   8.384  0.0395  0.2601  0.1833
  280loPI   C5A 4475  10.761   3.007   7.948  0.1120 -0.1144 -0.0606
  280loPI   C6A 4476  10.636   2.918   7.483  0.3818  0.0885  0.0179
  280loPI   C1B 4477  10.629   2.524   9.306 -0.1635 -0.1825  0.1680
  280loPI   C2B 4478  10.694   2.478   8.911 -0.0856 -0.0693 -0.1554
  280loPI   C3B 4479  10.773   2.534   8.487 -0.0431  0.2398  0.4047
  280loPI   C4B 4480  10.832   2.512   8.128  0.4799 -0.0974  0.0493
  281loPI    C1 4481   6.627  10.709  10.811  0.0501 -0.0693 -0.1004
  281loPI    C2 4482   7.023  10.659  10.831  0.0478 -0.1044 -0.1431
  281loPI    C3 4483   6.829  10.838  11.131  0.0736 -0.2356 -0.0472
  281loPI   PO4 4484   6.627  10.737  10.521  0.1098 -0.0101  0.3312
  281loPI   GL1 4485   6.715  10.586  10.029  0.0041  0.1250 -0.1580
  281loPI   GL2 4486   6.468  10.437   9.919 -0.1130 -0.0099 -0.2069
  281loPI   C1A 4487   6.801  10.685   9.623 -0.2452 -0.2167 -0.0773
  281loPI   C2A 4488   6.775  10.706   9.218 -0.1942  0.3435  0.0457
  281loPI   C3A 4489   6.857  10.658   8.845 -0.2750  0.2000 -0.2627
  281loPI   C4A 4490   6.749  10.634   8.376 -0.1342  0.0356  0.1425
  281loPI   C5A 4491   6.539  10.882   8.072 -0.0415 -0.1110  0.2389
  281loPI   C6A 4492   6.399  11.095   7.765  0.3001 -0.1244  0.0606
  281loPI   C1B 4493   6.389  10.457   9.520 -0.2378  0.0937  0.0945
  281loPI   C2B 4494   6.272  10.456   9.126  0.1242  0.2490  0.2019
  281loPI   C3B 4495   6.321  10.453   8.709  0.0910  0.1603 -0.0709
  281loPI   C4B 4496   6.271  10.467   8.297 -0.0956  0.0617 -0.1588
  282loPI    C1 4497  13.035  11.834  10.206 -0.0836 -0.1120  0.0277
  282loPI    C2 4498  13.208  12.103  10.447 -0.0688  0.0075 -0.1146
  282loPI    C3 4499  12.966  11.823  10.600 -0.0850  0.1018  0.0345
  282loPI   PO4 4500  12.821  11.979  10.073  0.0977  0.2006  0.2307
  282loPI   GL1 4501  12.938  12.137   9.742 -0.0489 -0.0304 -0.0286
  282loPI   GL2 4502  13.257  12.172   9.917  0.1601  0.3155 -0.2032
  282loPI   C1A 4503  13.021  12.084   9.352  0.3142  0.0892  0.2768
  282loPI   C2A 4504  13.079  11.984   8.876  0.0151 -0.2077 -0.1861
  282loPI   C3A 4505  13.017  11.913   8.482  0.0577  0.2134 -0.0438
  282loPI   C4A 4506  13.179  11.821   8.154  0.2343  0.2175 -0.1672
  282loPI   C5A 4507  13.603  11.979   7.967 -0.1886 -0.1153  0.1347
  282loPI   C6A 4508  13.699  11.828   7.624  0.0956 -0.1422 -0.2976
  282loPI   C1B 4509  13.459  12.296   9.532  0.1239 -0.2211  0.0289
  282loPI   C2B 4510  13.580  12.587   9.150 -0.2966 -0.0583 -0.2301
  282loPI   C3B 4511  13.695  12.687   8.788  0.2387  0.1474 -0.0484
  282loPI   C4B 4512  13.582  12.547   8.376  0.1226  0.2056 -0.1474
  283loPI    C1 4513  18.439  17.718  10.248 -0.0776  0.1822 -0.0443
  283loPI    C2 4514  18.788  17.831  10.408 -0.0154 -0.1396  0.0540
  283loPI    C3 4515  18.445  17.935  10.584  0.0419 -0.1405  0.1668
  283loPI   PO4 4516  18.409  17.775  10.077  0.0422  0.0644 -0.1456
  283loPI   GL1 4517  18.533  17.667   9.659 -0.0546  0.1216 -0.2177
  283loPI   GL2 4518  18.229  17.398   9.741  0.0318  0.0962 -0.2488
  283loPI   C1A 4519  18.772  17.724   9.208  0.1879  0.0702 -0.2257
  283loPI   C2A 4520  18.757  17.532   8.757  0.2083  0.3493 -0.0998
  283loPI   C3A 4521  18.893  17.587   8.350  0.0061 -0.2935 -0.0522
  283loPI   C4A 4522  19.021  17.522   7.895 -0.1378 -0.1015 -0.0424
  283loPI   C5A 4523  19.315  17.775   7.553  0.1503 -0.1734  0.1553
  283loPI   C6A 4524  19.456  17.604   7.118 -0.2675 -0.0429  0.1568
  283loPI   C1B 4525  18.249  17.435   9.283  0.1054 -0.2377 -0.4850
  283loPI   C2B 4526  18.278  17.377   8.907  0.0108 -0.2296  0.0573
  283loPI   C3B 4527  18.429  17.365   8.476  0.1440 -0.1992 -0.1607
  283loPI   C4B 4528  18.296  17.348   8.024  0.0502 -0.1380  0.0400
  284loPI    C1 4529   9.053   5.630  10.611  0.0038 -0.0870  0.1712
  284loPI    C2 4530   9.130   5.279  10.787 -0.2864 -0.1345  0.2086
  284loPI    C3 4531   8.864   5.531  10.949  0.1020  0.2172  0.3187
  284loPI   PO4 4532   9.170   5.524  10.339  0.1778 -0.1621  0.4152
  284loPI   GL1 4533   8.901   5.239  10.012  0.0748 -0.0837  0.2697
  284loPI   GL2 4534   9.198   5.220   9.881  0.1718 -0.2092  0.0673
  284loPI   C1A 4535   8.900   5.493   9.643 -0.2773 -0.1032  0.2829
  284loPI   C2A 4536   8.896   5.489   9.228  0.0951 -0.2116 -0.3990
  284loPI   C3A 4537   8.801   5.527   8.809  0.2133  0.2036 -0.0457
  284loPI   C4A 4538   8.757   5.590   8.376 -0.2666 -0.1139  0.0773
  284loPI   C5A 4539   8.713   5.745   7.986 -0.1747 -0.0759 -0.3403
  284loPI   C6A 4540   8.714   6.191   7.871 -0.3024 -0.2296  0.2688
  284loPI   C1B 4541   9.295   5.146   9.400 -0.1000 -0.0363 -0.0052
  284loPI   C2B 4542   9.245   5.223   8.920 -0.2478 -0.0107  0.0237
  284loPI   C3B 4543   9.360   5.375   8.629 -0.0785 -0.1223  0.1088
  284loPI   C4B 4544   9.181   5.349   8.312 -0.0158 -0.0019  0.0742
  285loPI    C1 4545  10.191  17.900   9.861  0.0524 -0.0259  0.0869
  285loPI    C2 4546   9.916  18.021  10.125 -0.1046  0.2035 -0.1770
  285loPI    C3 4547  10.202  18.273  10.004  0.1185  0.0208 -0.0392
  285loPI   PO4 4548  10.266  17.606  10.017  0.2155  0.1429  0.1125
  285loPI   GL1 4549  10.347  17.452   9.628 -0.1971 -0.0610 -0.1080
  285loPI   GL2 4550  10.038  17.329   9.554 -0.0269 -0.1214  0.4017
  285loPI   C1A 4551  10.343  17.775   9.226 -0.0571 -0.0748 -0.0063
  285loPI   C2A 4552  10.411  18.013   8.805 -0.2125 -0.4581 -0.0192
  285loPI   C3A 4553  10.603  17.970   8.326 -0.0323  0.2644 -0.1673
  285loPI   C4A 4554  10.417  17.884   7.942 -0.1410  0.2391 -0.1293
  285loPI   C5A 4555  10.027  17.829   7.793  0.0758  0.1771  0.3897
  285loPI   C6A 4556  10.100  17.647   7.436 -0.1212  0.3048 -0.0575
  285loPI   C1B 4557  10.235  17.143   9.199  0.1109 -0.0232 -0.2149
  285loPI   C2B 4558  10.236  17.123   8.871 -0.1590  0.1350  0.0956
  285loPI   C3B 4559  10.054  17.042   8.536  0.1376 -0.0642 -0.1491
  285loPI   C4B 4560   9.954  17.056   8.140  0.2152 -0.0668  0.0373
  286loPI    C1 4561  12.174  16.412  10.194  0.0886 -0.0213  0.0769
  286loPI    C2 4562  12.511  16.577  10.055  0.0490  0.1278  0.1564
  286loPI    C3 4563  12.406  16.628  10.438 -0.0031 -0.0182  0.1621
  286loPI   PO4 4564  12.069  16.176  10.125  0.2008 -0.0885 -0.1044
  286loPI   GL1 4565  11.799  16.101   9.776 -0.4908 -0.1051 -0.0562
  286loPI   GL2 4566  11.910  16.044   9.507  0.0175  0.2575 -0.0398
  286loPI   C1A 4567  11.572  16.438   9.521 -0.3045 -0.0428  0.0234
  286loPI   C2A 4568  11.432  16.637   9.096 -0.0044  0.0488  0.1885
  286loPI   C3A 4569  11.374  16.710   8.649  0.3510  0.2473 -0.4645
  286loPI   C4A 4570  11.434  16.885   8.317  0.2530 -0.2082  0.0795
  286loPI   C5A 4571  11.567  17.006   7.919  0.0637 -0.0891 -0.0181
  286loPI   C6A 4572  11.344  17.066   7.553 -0.0965 -0.2147 -0.0063
  286loPI   C1B 4573  11.879  16.191   9.083  0.1807  0.0303 -0.2211
  286loPI   C2B 4574  11.779  16.384   8.720  0.3691 -0.1829 -0.1118
  286loPI   C3B 4575  11.826  16.540   8.331 -0.2445  0.2804 -0.1979
  286loPI   C4B 4576  12.057  16.691   7.953  0.1269  0.2271  0.0407
  287loPI    C1 4577  14.132   0.317  10.145  0.1201  0.1037  0.0842
  287loPI    C2 4578  14.003   0.074  10.436 -0.0123  0.0082 -0.0529
  287loPI    C3 4579  14.346   0.275  10.480 -0.0524  0.0269  0.1863
  287loPI   PO4 4580  14.185   0.241   9.781  0.2926  0.4489 -0.0170
  287loPI   GL1 4581  14.012   0.264   9.433  0.4609  0.3119 -0.2316
  287loPI   GL2 4582  13.773   0.375   9.513 -0.1314 -0.0751 -0.0086
  287loPI   C1A 4583  14.259   0.113   9.079  0.0403 -0.0685 -0.1785
  287loPI   C2A 4584  14.388   0.088   8.720 -0.1689 -0.2173 -0.1876
  287loPI   C3A 4585  14.555  -0.108   8.300 -0.0276  0.0230 -0.0719
  287loPI   C4A 4586  14.806  -0.137   7.893 -0.2223  0.1359 -0.2371
  287loPI   C5A 4587  14.815  -0.284   7.551  0.1626  0.0181 -0.0096
  287loPI   C6A 4588  14.786  -0.678   7.354  0.2047 -0.1254  0.0446
  287loPI   C1B 4589  13.750   0.501   9.029  0.4181 -0.2331 -0.1895
  287loPI   C2B 4590  13.490   0.393   8.750 -0.1854  0.0621 -0.2193
  287loPI   C3B 4591  13.642   0.459   8.266  0.2427 -0.2247  0.1310
  287loPI   C4B 4592  13.875   0.554   7.900 -0.0963  0.2095  0.0048
  288loPI    C1 4593  16.954  10.649  10.535  0.2613 -0.1643  0.1233
  288loPI    C2 4594  17.077  10.798  10.885 -0.3216 -0.0913  0.3082
  288loPI    C3 4595  16.928  10.428  10.867  0.0089 -0.2179  0.0697
  288loPI   PO4 4596  16.855  10.872  10.408 -0.0796 -0.1609 -0.2759
  288loPI   GL1 4597  16.900  11.088  10.066  0.1952 -0.0062 -0.2903
  288loPI   GL2 4598  17.178  10.985  10.020 -0.0780  0.0933  0.0584
  288loPI   C1A 4599  16.698  11.276   9.744  0.0686  0.1842 -0.4452
  288loPI   C2A 4600  16.631  11.297   9.220 -0.2466  0.1692 -0.0632
  288loPI   C3A 4601  16.517  11.309   8.760  0.0293  0.1284  0.0779
  288loPI   C4A 4602  16.336  11.422   8.283 -0.0543  0.1128 -0.2145
  288loPI   C5A 4603  15.917  11.558   8.155 -0.0839  0.4489 -0.2438
  288loPI   C6A 4604  15.518  11.394   8.273  0.0666 -0.1069 -0.0669
  288loPI   C1B 4605  17.040  10.947   9.589  0.1453 -0.0651 -0.0787
  288loPI   C2B 4606  17.127  10.983   9.098 -0.1483 -0.0194  0.0954
  288loPI   C3B 4607  17.022  10.866   8.747 -0.1430  0.2281  0.2088
  288loPI   C4B 4608  16.885  10.780   8.291  0.1616 -0.2977 -0.1256
  289loPI    C1 4609   6.552   8.656  10.638 -0.1764 -0.1836 -0.0531
  289loPI    C2 4610   6.736   8.791  10.967  0.0276  0.1091 -0.2810
  289loPI    C3 4611   6.339   8.744  10.965  0.0255  0.0936  0.0079
  289loPI   PO4 4612   6.538   8.810  10.487  0.0957 -0.0808  0.0155
  289loPI   GL1 4613   6.525   8.719  10.036 -0.1624 -0.7269  0.1950
  289loPI   GL2 4614   6.213   8.855  10.111 -0.1321 -0.2034  0.1812
  289loPI   C1A 4615   6.703   8.551   9.633 -0.2094  0.3427 -0.3868
  289loPI   C2A 4616   6.653   8.582   9.174 -0.1058  0.0550  0.3070
  289loPI   C3A 4617   6.718   8.577   8.736 -0.2088  0.2094 -0.0691
  289loPI   C4A 4618   6.783   8.549   8.312 -0.3500  0.0180 -0.2460
  289loPI   C5A 4619   6.896   8.296   7.950 -0.0960 -0.2882  0.2735
  289loPI   C6A 4620   6.979   8.315   7.487 -0.1818 -0.1181 -0.0558
  289loPI   C1B 4621   6.233   8.884   9.696 -0.1009  0.2878 -0.0248
  289loPI   C2B 4622   6.230   8.808   9.245 -0.0472  0.0118 -0.0166
  289loPI   C3B 4623   6.221   8.856   8.850 -0.1544  0.0092 -0.0560
  289loPI   C4B 4624   6.391   8.881   8.326  0.2601 -0.1636  0.0730
  290loPI    C1 4625   4.260  11.703  10.835 -0.0980 -0.0147 -0.0889
  290loPI    C2 4626   3.998  11.412  10.919 -0.0821  0.0428  0.1685
  290loPI    C3 4627   4.059  11.708  11.181  0.1449  0.1005  0.0532
  290loPI   PO4 4628   4.211  11.733  10.547  0.1275  0.1174  0.1251
  290loPI   GL1 4629   4.195  11.770  10.175 -0.0495 -0.0796 -0.0050
  290loPI   GL2 4630   4.441  12.015  10.108  0.2801  0.2298  0.1146
  290loPI   C1A 4631   4.455  11.526   9.916 -0.1267  0.1014 -0.3053
  290loPI   C2A 4632   4.407  11.570   9.491 -0.1413 -0.3680 -0.2110
  290loPI   C3A 4633   4.548  11.558   9.008  0.0962 -0.1813 -0.2392
  290loPI   C4A 4634   4.505  11.516   8.619 -0.0797 -0.4084 -0.1835
  290loPI   C5A 4635   4.644  11.390   8.212  0.1087  0.3329  0.1442
  290loPI   C6A 4636   4.781  11.099   8.096 -0.1615 -0.3182 -0.1795
  290loPI   C1B 4637   4.454  12.048   9.647 -0.0595  0.0836  0.1467
  290loPI   C2B 4638   4.482  12.002   9.175  0.0687 -0.1381  0.4694
  290loPI   C3B 4639   4.514  12.045   8.728 -0.0864  0.0527  0.1557
  290loPI   C4B 4640   4.593  11.906   8.268  0.1666 -0.2124  0.2042
  291loPI    C1 4641   2.813   7.365  10.958  0.0604 -0.0034  0.3108
  291loPI    C2 4642   2.430   7.279  11.035 -0.0406  0.1720  0.0224
  291loPI    C3 4643   2.698   7.283  11.332 -0.2664  0.0761  0.2309
  291loPI   PO4 4644   2.746   7.252  10.650 -0.0466 -0.0752  0.2230
  291loPI   GL1 4645   2.702   7.055  10.283 -0.2034 -0.1564 -0.4985
  291loPI   GL2 4646   2.607   6.737  10.351 -0.1257 -0.0067  0.2534
  291loPI   C1A 4647   2.559   6.965   9.818  0.2098  0.0500  0.1798
  291loPI   C2A 4648   2.493   6.878   9.419  0.2492 -0.3887  0.1273
  291loPI   C3A 4649   2.473   6.943   9.008  0.0590  0.0941  0.0041
  291loPI   C4A 4650   2.523   7.016   8.503  0.1928 -0.0539 -0.2312
  291loPI   C5A 4651   2.249   6.914   8.261 -0.1892 -0.1964  0.0623
  291loPI   C6A 4652   1.973   6.793   7.893  0.0656 -0.0614 -0.2320
  291loPI   C1B 4653   2.975   6.640  10.044 -0.2960 -0.0190 -0.2501
  291loPI   C2B 4654   2.972   6.694   9.589  0.1528  0.0422 -0.0795
  291loPI   C3B 4655   2.915   6.641   9.160 -0.0839 -0.0409  0.5990
  291loPI   C4B 4656   2.919   6.645   8.707 -0.2410 -0.1348  0.4007
  292loPI    C1 4657  13.200  10.318  10.187 -0.0863  0.0690 -0.2379
  292loPI    C2 4658  13.167  10.683  10.349 -0.1975  0.0034 -0.1102
  292loPI    C3 4659  13.294  10.376  10.572 -0.0540 -0.0267 -0.2313
  292loPI   PO4 4660  13.332  10.351   9.961 -0.0361 -0.3548  0.2501
  292loPI   GL1 4661  13.397  10.565   9.554 -0.0075 -0.1939 -0.0480
  292loPI   GL2 4662  13.528  10.272   9.488  0.1812  0.1130 -0.3002
  292loPI   C1A 4663  13.205  10.568   9.167  0.0495  0.0082  0.2439
  292loPI   C2A 4664  12.911  10.613   8.836 -0.0150  0.2730 -0.0476
  292loPI   C3A 4665  12.848  10.546   8.412  0.1718  0.0254  0.0050
  292loPI   C4A 4666  12.724  10.558   8.068  0.1149 -0.1640  0.0360
  292loPI   C5A 4667  12.877  10.486   7.770 -0.1952 -0.3543  0.2429
  292loPI   C6A 4668  12.981  10.556   7.416  0.0252 -0.1340  0.0490
  292loPI   C1B 4669  13.434  10.038   9.138  0.1599  0.2073  0.2862
  292loPI   C2B 4670  13.452   9.983   8.753 -0.4503 -0.0196 -0.0040
  292loPI   C3B 4671  13.499   9.876   8.389  0.1552  0.2844  0.1668
  292loPI   C4B 4672  13.274   9.628   8.080  0.0398 -0.0947 -0.1992
  293loPI    C1 4673   1.387  17.210  10.592  0.0646 -0.3478  0.0040
  293loPI    C2 4674   1.455  17.497  10.862  0.1533 -0.2213 -0.1513
  293loPI    C3 4675   1.371  17.125  10.983 -0.4401 -0.0301  0.0607
  293loPI   PO4 4676   1.647  17.282  10.425 -0.0821  0.0272  0.0261
  293loPI   GL1 4677   1.841  17.466  10.098 -0.1177  0.0561 -0.0128
  293loPI   GL2 4678   1.738  17.244   9.927  0.0585  0.1947  0.1775
  293loPI   C1A 4679   2.050  17.623   9.694 -0.1291 -0.0731 -0.0818
  293loPI   C2A 4680   2.019  17.765   9.285 -0.1091  0.0405 -0.0206
  293loPI   C3A 4681   1.972  17.405   8.976 -0.1012 -0.3484  0.0407
  293loPI   C4A 4682   1.849  17.401   8.567  0.2122  0.0047  0.0499
  293loPI   C5A 4683   2.049  17.300   8.191 -0.0068  0.2102  0.1757
  293loPI   C6A 4684   2.457  17.307   7.960  0.0028  0.2436 -0.1246
  293loPI   C1B 4685   1.863  17.203   9.451  0.2555 -0.2043  0.1355
  293loPI   C2B 4686   2.064  16.946   9.096  0.2762  0.4350  0.2047
  293loPI   C3B 4687   1.928  16.922   8.668 -0.0569  0.2683 -0.0302
  293loPI   C4B 4688   1.802  16.657   8.410 -0.2443 -0.1729  0.3813
  294loPI    C1 4689  17.901   4.253  10.382 -0.0032 -0.1363  0.0316
  294loPI    C2 4690  17.999   4.506  10.676  0.0239  0.1057 -0.1820
  294loPI    C3 4691  17.954   4.116  10.754  0.0211  0.1684  0.1429
  294loPI   PO4 4692  18.041   4.251  10.160  0.4565 -0.2580  0.1758
  294loPI   GL1 4693  18.101   4.387   9.869 -0.0205 -0.3639 -0.0606
  294loPI   GL2 4694  18.330   4.522   9.737 -0.3416  0.0028  0.2666
  294loPI   C1A 4695  17.927   4.679   9.487  0.0896 -0.0479 -0.0542
  294loPI   C2A 4696  18.056   4.788   9.031 -0.0649 -0.0898 -0.1046
  294loPI   C3A 4697  18.283   4.766   8.547  0.1744 -0.2998 -0.0734
  294loPI   C4A 4698  18.369   5.006   8.203 -0.2126  0.4001  0.0860
  294loPI   C5A 4699  18.427   5.284   7.984  0.0964  0.0189  0.1154
  294loPI   C6A 4700  18.214   5.509   7.618 -0.0843 -0.0219 -0.0768
  294loPI   C1B 4701  18.285   4.342   9.325 -0.2458 -0.0805 -0.0342
  294loPI   C2B 4702  18.185   4.222   8.994 -0.2556 -0.1206  0.3233
  294loPI   C3B 4703  18.199   3.902   8.644 -0.0059 -0.3381 -0.1564
  294loPI   C4B 4704  18.139   3.833   8.180  0.2469  0.1614  0.0174
  295loPI    C1 4705   3.954  16.914  10.615  0.1022  0.0894 -0.1890
  295loPI    C2 4706   3.997  17.157  10.929 -0.0791  0.0746 -0.1516
  295loPI    C3 4707   3.850  16.789  10.980  0.2429 -0.0640 -0.2001
  295loPI   PO4 4708   3.984  17.194  10.459 -0.1714 -0.4313  0.3348
  295loPI   GL1 4709   4.029  17.208  10.041  0.0433  0.2610 -0.2369
  295loPI   GL2 4710   3.763  17.485   9.748 -0.0732  0.0848 -0.2221
  295loPI   C1A 4711   4.025  17.115   9.610  0.2957 -0.0242 -0.1377
  295loPI   C2A 4712   4.069  17.163   9.082  0.0326 -0.1408  0.0953
  295loPI   C3A 4713   4.182  17.117   8.575 -0.1158  0.3528  0.0146
  295loPI   C4A 4714   4.451  17.269   8.115 -0.1574  0.0205 -0.0147
  295loPI   C5A 4715   4.760  17.331   7.866 -0.1974 -0.5524 -0.1365
  295loPI   C6A 4716   5.140  17.163   7.729  0.3832  0.0199 -0.3900
  295loPI   C1B 4717   3.810  17.623   9.212  0.2382 -0.0241  0.1867
  295loPI   C2B 4718   3.869  17.498   8.690  0.1625  0.0937  0.1653
  295loPI   C3B 4719   3.773  17.379   8.302 -0.0963 -0.2845  0.0367
  295loPI   C4B 4720   3.462  17.442   7.982 -0.0705 -0.2856  0.0542
  296loPI    C1 4721   5.658  13.382  10.824 -0.3070  0.1319 -0.3117
  296loPI    C2 4722   5.705  13.770  10.908  0.0860  0.0538 -0.1473
  296loPI    C3 4723   5.513  13.531  11.165  0.0965  0.0819 -0.1135
  296loPI   PO4 4724   5.476  13.312  10.666  0.0705  0.1215  0.0424
  296loPI   GL1 4725   5.467  13.171  10.256 -0.0513  0.1449  0.0717
  296loPI   GL2 4726   5.543  13.421  10.018 -0.0232  0.2230 -0.2011
  296loPI   C1A 4727   5.282  13.032   9.804 -0.1485 -0.1136  0.1929
  296loPI   C2A 4728   5.475  13.025   9.445  0.0312 -0.1686  0.1342
  296loPI   C3A 4729   5.432  13.016   8.962 -0.1620 -0.0897 -0.1006
  296loPI   C4A 4730   5.340  13.012   8.596  0.2466 -0.1176 -0.1382
  296loPI   C5A 4731   5.294  12.987   8.086 -0.1082 -0.0376  0.3207
  296loPI   C6A 4732   5.235  12.576   7.772  0.1670  0.0901 -0.2097
  296loPI   C1B 4733   5.559  13.578   9.567  0.0673  0.1442 -0.2986
  296loPI   C2B 4734   5.541  13.663   9.188 -0.1323  0.0584 -0.0430
  296loPI   C3B 4735   5.413  13.575   8.747 -0.0278 -0.2396 -0.3810
  296loPI   C4B 4736   5.346  13.438   8.372 -0.0776  0.2103 -0.0807
  297loPI    C1 4737   7.670   8.140  10.837  0.5249 -0.2083  0.1304
  297loPI    C2 4738   7.810   8.003  11.186  0.1921 -0.1938  0.2734
  297loPI    C3 4739   7.438   7.912  11.070  0.1086  0.2454  0.1772
  297loPI   PO4 4740   7.688   8.068  10.617  0.3231 -0.0550  0.0701
  297loPI   GL1 4741   7.632   8.042  10.175  0.2321  0.3899 -0.1322
  297loPI   GL2 4742   7.414   7.699  10.175 -0.0916  0.0300 -0.2442
  297loPI   C1A 4743   7.575   7.996   9.702  0.0662  0.2050 -0.0429
  297loPI   C2A 4744   7.497   8.139   9.288 -0.2342 -0.1331  0.0067
  297loPI   C3A 4745   7.610   8.078   8.891 -0.1202 -0.0784 -0.1284
  297loPI   C4A 4746   7.588   8.042   8.472  0.3098 -0.0080 -0.0936
  297loPI   C5A 4747   7.612   8.157   8.042  0.0176 -0.3289 -0.0412
  297loPI   C6A 4748   7.189   7.949   7.761  0.1291  0.0387  0.0609
  297loPI   C1B 4749   7.214   7.723   9.868 -0.1845 -0.0171  0.1621
  297loPI   C2B 4750   7.083   7.656   9.553  0.2885  0.1387  0.3940
  297loPI   C3B 4751   7.082   7.860   9.186 -0.1705 -0.0502  0.1746
  297loPI   C4B 4752   7.085   7.782   8.730  0.2620  0.3279 -0.1818
  298loPI    C1 4753   6.104  12.697  10.516  0.0538  0.1473  0.0214
  298loPI    C2 4754   6.125  12.829  10.893  0.2128 -0.0802  0.0944
  298loPI    C3 4755   5.802  12.908  10.671  0.2700  0.3606  0.1595
  298loPI   PO4 4756   6.353  12.790  10.401 -0.0540  0.1427 -0.2547
  298loPI   GL1 4757   6.483  12.948  10.024 -0.2502  0.1651 -0.1390
  298loPI   GL2 4758   6.796  13.072   9.916  0.3258  0.1763 -0.0010
  298loPI   C1A 4759   6.364  12.978   9.654  0.1136  0.1778 -0.4147
  298loPI   C2A 4760   6.409  13.001   9.289 -0.0977  0.0298 -0.0810
  298loPI   C3A 4761   6.357  13.025   8.847 -0.2509 -0.1180  0.0911
  298loPI   C4A 4762   6.327  13.007   8.399  0.2759 -0.0387 -0.2143
  298loPI   C5A 4763   6.241  13.120   8.078 -0.0199  0.1013 -0.3475
  298loPI   C6A 4764   6.214  13.004   7.620 -0.1664 -0.0686  0.2283
  298loPI   C1B 4765   6.812  13.195   9.552 -0.0832 -0.1100 -0.1097
  298loPI   C2B 4766   6.824  13.257   9.092  0.0680  0.1520 -0.3644
  298loPI   C3B 4767   6.698  13.335   8.637 -0.1204 -0.0284 -0.1648
  298loPI   C4B 4768   6.625  13.409   8.161 -0.3142  0.0502 -0.1509
  299loPI    C1 4769  11.898  15.179  10.176 -0.0819  0.1435  0.1124
  299loPI    C2 4770  12.012  14.875  10.410  0.0227  0.0839 -0.0151
  299loPI    C3 4771  11.891  15.219  10.574 -0.0734 -0.0179  0.1291
  299loPI   PO4 4772  12.070  15.257  10.043  0.1678 -0.0937 -0.0533
  299loPI   GL1 4773  12.160  14.941   9.704 -0.0070 -0.1996  0.0663
  299loPI   GL2 4774  11.911  14.962   9.617 -0.1001 -0.0273 -0.0289
  299loPI   C1A 4775  12.369  14.937   9.357  0.1844  0.0013  0.1729
  299loPI   C2A 4776  12.257  14.925   8.919  0.2036  0.2502  0.1979
  299loPI   C3A 4777  12.198  15.043   8.487 -0.1632 -0.3495 -0.1258
  299loPI   C4A 4778  12.195  15.185   8.155 -0.2497 -0.2291 -0.5135
  299loPI   C5A 4779  12.065  15.328   7.759 -0.3910 -0.1590  0.0996
  299loPI   C6A 4780  11.897  15.531   7.445  0.0281  0.1950 -0.1560
  299loPI   C1B 4781  11.800  14.973   9.165  0.0940  0.3720 -0.0677
  299loPI   C2B 4782  11.801  14.768   8.847  0.2510 -0.0379 -0.0188
  299loPI   C3B 4783  11.918  14.640   8.380  0.0894 -0.1283  0.0408
  299loPI   C4B 4784  11.896  14.714   7.926  0.0739  0.0622  0.2846
  300loPI    C1 4785  15.463  14.387  10.821  0.2266  0.1925 -0.1738
  300loPI    C2 4786  15.762  14.599  10.981  0.0581  0.2197  0.1140
  300loPI    C3 4787  15.389  14.742  10.990  0.0262  0.1660 -0.2024
  300loPI   PO4 4788  15.543  14.214  10.644 -0.1158  0.0161  0.2155
  300loPI   GL1 4789  15.763  14.076  10.340  0.0033 -0.0244  0.1429
  300loPI   GL2 4790  15.568  14.325  10.103  0.2434 -0.0546 -0.1942
  300loPI   C1A 4791  16.037  14.231  10.053 -0.3202 -0.2563  0.0501
  300loPI   C2A 4792  16.329  14.228   9.649 -0.2440  0.1546 -0.0560
  300loPI   C3A 4793  16.257  14.201   9.185 -0.2775  0.0848 -0.2119
  300loPI   C4A 4794  16.418  14.133   8.780  0.0850 -0.0378 -0.2571
  300loPI   C5A 4795  16.580  14.052   8.373 -0.3442  0.2521 -0.1214
  300loPI   C6A 4796  16.779  13.790   8.128  0.2781 -0.0121 -0.0964
  300loPI   C1B 4797  15.754  14.390   9.624  0.0670  0.0625  0.3865
  300loPI   C2B 4798  15.787  14.336   9.230 -0.1092  0.3301 -0.1476
  300loPI   C3B 4799  15.860  14.185   8.780  0.1503 -0.3509  0.1420
  300loPI   C4B 4800  15.871  13.976   8.356  0.1802  0.1466  0.1934
  301loPI    C1 4801  13.841   3.463  10.416  0.1753  0.0611 -0.0162
  301loPI    C2 4802  13.464   3.516  10.540  0.1097 -0.2000 -0.0973
  301loPI    C3 4803  13.663   3.184  10.641  0.2254 -0.1874 -0.2790
  301loPI   PO4 4804  13.855   3.482  10.130  0.2163  0.2113 -0.0615
  301loPI   GL1 4805  13.896   3.484   9.649  0.1780  0.2949  0.0480
  301loPI   GL2 4806  14.174   3.583   9.750  0.0248  0.0601 -0.0729
  301loPI   C1A 4807  13.647   3.277   9.426  0.2729  0.0367 -0.1331
  301loPI   C2A 4808  13.510   3.231   9.044  0.2635  0.0136 -0.2234
  301loPI   C3A 4809  13.423   3.403   8.604 -0.0871  0.0295 -0.0935
  301loPI   C4A 4810  13.325   3.248   8.154 -0.1762  0.3923 -0.0659
  301loPI   C5A 4811  13.302   2.943   7.835  0.0208 -0.1316 -0.0806
  301loPI   C6A 4812  13.617   2.755   7.548 -0.0323 -0.3720 -0.1682
  301loPI   C1B 4813  14.262   3.671   9.223 -0.0187 -0.1012  0.2766
  301loPI   C2B 4814  14.578   3.834   8.888  0.2428  0.0812  0.1856
  301loPI   C3B 4815  14.886   3.786   8.572  0.1177 -0.0979 -0.1033
  301loPI   C4B 4816  14.885   3.813   8.238  0.0674 -0.1859 -0.0212
  302loPI    C1 4817   6.639  12.055  10.984 -0.1637 -0.1202  0.0994
  302loPI    C2 4818   6.876  11.908  11.270  0.1171 -0.1485 -0.1424
  302loPI    C3 4819   6.896  12.296  11.174 -0.1741 -0.0798  0.0629
  302loPI   PO4 4820   6.646  11.937  10.777  0.0770 -0.0949  0.0749
  302loPI   GL1 4821   6.523  11.884  10.283  0.0364 -0.1368 -0.0743
  302loPI   GL2 4822   6.806  11.985  10.125 -0.0385  0.1713  0.2047
  302loPI   C1A 4823   6.238  11.907   9.915 -0.3243 -0.3024 -0.0965
  302loPI   C2A 4824   6.411  11.914   9.422 -0.0818 -0.1941  0.0551
  302loPI   C3A 4825   6.311  11.923   9.076 -0.0514  0.1018 -0.2554
  302loPI   C4A 4826   6.391  12.034   8.648 -0.4075  0.0408  0.2311
  302loPI   C5A 4827   6.311  12.014   8.203 -0.2057  0.1934  0.0849
  302loPI   C6A 4828   5.953  11.842   7.790 -0.1872  0.0307  0.1654
  302loPI   C1B 4829   6.919  12.174   9.693  0.3220  0.0246 -0.2075
  302loPI   C2B 4830   6.867  12.301   9.328 -0.0843  0.1313  0.0316
  302loPI   C3B 4831   6.783  12.277   8.944  0.1638  0.2638  0.0212
  302loPI   C4B 4832   6.824  12.217   8.433  0.1340  0.0055 -0.0317
  303loPI    C1 4833  14.869   3.884  10.578  0.0713  0.0252  0.0063
  303loPI    C2 4834  14.640   4.188  10.703  0.2618  0.1495  0.0573
  303loPI    C3 4835  14.747   3.900  10.959 -0.0270 -0.0328 -0.0225
  303loPI   PO4 4836  14.765   3.780  10.405 -0.0780  0.0939  0.0852
  303loPI   GL1 4837  14.665   3.702   9.959 -0.1408 -0.3509  0.1791
  303loPI   GL2 4838  14.808   4.016   9.871 -0.2932  0.2346  0.1686
  303loPI   C1A 4839  14.641   3.640   9.549  0.0210 -0.1322  0.4175
  303loPI   C2A 4840  14.753   3.482   9.149  0.1113 -0.1448  0.1421
  303loPI   C3A 4841  14.537   3.325   8.862  0.0401  0.1266  0.0043
  303loPI   C4A 4842  14.467   3.451   8.338 -0.0919  0.2375  0.2609
  303loPI   C5A 4843  14.365   3.352   7.884 -0.1718 -0.1334  0.2880
  303loPI   C6A 4844  14.151   3.438   7.436  0.1287 -0.0510  0.1133
  303loPI   C1B 4845  15.055   3.915   9.535  0.0582 -0.1357 -0.3626
  303loPI   C2B 4846  15.091   3.943   9.108  0.0699 -0.3061  0.1477
  303loPI   C3B 4847  15.340   3.846   8.866  0.1314  0.0572  0.1550
  303loPI   C4B 4848  15.458   3.620   8.480 -0.1240  0.3529  0.1782
  304loPI    C1 4849  17.766   8.935  10.775 -0.0554 -0.3550  0.0976
  304loPI    C2 4850  17.720   8.550  10.876  0.0765 -0.3072  0.3499
  304loPI    C3 4851  17.511   8.833  11.066 -0.1123 -0.2618  0.0805
  304loPI   PO4 4852  17.786   8.892  10.523  0.1222  0.3634  0.0537
  304loPI   GL1 4853  17.861   8.888  10.156  0.1513 -0.0432 -0.0846
  304loPI   GL2 4854  17.696   8.641  10.004  0.1814  0.1072  0.0281
  304loPI   C1A 4855  18.011   8.928   9.758  0.0916  0.0808  0.1452
  304loPI   C2A 4856  18.007   8.884   9.314 -0.2254 -0.3788 -0.3955
  304loPI   C3A 4857  18.015   8.769   8.913  0.0161 -0.3162 -0.0717
  304loPI   C4A 4858  18.064   8.803   8.435  0.2089  0.6057 -0.1461
  304loPI   C5A 4859  18.021   8.775   7.995  0.2907  0.2080 -0.2393
  304loPI   C6A 4860  17.848   8.415   7.768  0.0210  0.0442 -0.2186
  304loPI   C1B 4861  17.527   8.580   9.557 -0.2842 -0.0773  0.0658
  304loPI   C2B 4862  17.563   8.674   9.173  0.1102  0.1912 -0.4027
  304loPI   C3B 4863  17.548   8.631   8.764 -0.1989 -0.2306 -0.1116
  304loPI   C4B 4864  17.650   8.537   8.238 -0.0932 -0.0256  0.3771
  305loPI    C1 4865   7.402  13.961  10.571 -0.1413 -0.1666 -0.0399
  305loPI    C2 4866   7.580  13.676  10.354 -0.1170 -0.2343  0.0684
  305loPI    C3 4867   7.737  13.788  10.705 -0.0390  0.0234 -0.0462
  305loPI   PO4 4868   7.476  14.160  10.504 -0.1820  0.0844  0.2653
  305loPI   GL1 4869   7.789  14.122  10.203  0.2650 -0.1773 -0.1781
  305loPI   GL2 4870   7.688  14.176   9.969 -0.3839  0.0529  0.1857
  305loPI   C1A 4871   7.746  13.746   9.810  0.0177  0.1324  0.1553
  305loPI   C2A 4872   7.728  13.775   9.355  0.0114 -0.1144 -0.1232
  305loPI   C3A 4873   7.711  13.777   8.963  0.6360  0.2438 -0.1403
  305loPI   C4A 4874   7.632  13.811   8.498  0.2526  0.0500  0.0878
  305loPI   C5A 4875   7.546  13.833   7.935 -0.2289  0.0571 -0.0645
  305loPI   C6A 4876   7.441  13.985   7.509 -0.0813  0.2245  0.1186
  305loPI   C1B 4877   7.323  14.169   9.654  0.3478  0.0805  0.1263
  305loPI   C2B 4878   7.322  14.135   9.210 -0.0963 -0.0572  0.0677
  305loPI   C3B 4879   7.266  14.044   8.846 -0.1604  0.0806  0.2797
  305loPI   C4B 4880   7.207  14.069   8.395 -0.1930 -0.1341  0.0676
  306loPI    C1 4881   6.619  18.306  10.095 -0.0794  0.4537  0.0484
  306loPI    C2 4882   6.564  18.281  10.491  0.0032  0.3743  0.0551
  306loPI    C3 4883   6.379  18.024  10.246  0.3565  0.0874  0.0801
  306loPI   PO4 4884   6.546  18.572  10.028 -0.2310  0.1078  0.1355
  306loPI   GL1 4885   6.510  18.527   9.553 -0.0320 -0.0309  0.0453
  306loPI   GL2 4886   6.813  18.440   9.568 -0.2665 -0.0571  0.0726
  306loPI   C1A 4887   6.803  18.654   9.115  0.0101  0.1617 -0.0186
  306loPI   C2A 4888   6.799  18.468   8.729  0.1365 -0.1232 -0.0507
  306loPI   C3A 4889   6.728  18.344   8.321 -0.2502 -0.0692  0.2941
  306loPI   C4A 4890   6.786  18.499   7.974  0.4026 -0.0815  0.1078
  306loPI   C5A 4891   6.653  18.588   7.534  0.0368 -0.2668 -0.2933
  306loPI   C6A 4892   6.586  18.961   7.430 -0.0999 -0.2815  0.2562
  306loPI   C1B 4893   6.854  18.168   9.237 -0.0166  0.2113 -0.3260
  306loPI   C2B 4894   6.984  17.826   8.976  0.3334  0.0639 -0.1275
  306loPI   C3B 4895   7.333  17.859   8.761  0.0855  0.0764 -0.2996
  306loPI   C4B 4896   7.681  18.096   8.843 -0.1684 -0.2513  0.1363
  307loPI    C1 4897   3.654  13.627  10.744 -0.2729  0.0228 -0.0062
  307loPI    C2 4898   3.719  13.922  10.482 -0.4099 -0.0817 -0.1600
  307loPI    C3 4899   3.901  13.927  10.838 -0.1300  0.0013 -0.3011
  307loPI   PO4 4900   3.584  13.364  10.617 -0.1328  0.1006  0.1591
  307loPI   GL1 4901   3.564  13.136  10.220 -0.0956  0.0944 -0.0688
  307loPI   GL2 4902   3.419  13.371  10.095 -0.1060  0.1490 -0.3777
  307loPI   C1A 4903   3.647  13.158   9.761 -0.0722 -0.2643 -0.0522
  307loPI   C2A 4904   3.658  13.142   9.315 -0.2429  0.1502  0.2484
  307loPI   C3A 4905   3.573  13.063   8.930 -0.1810 -0.2083  0.4550
  307loPI   C4A 4906   3.681  13.071   8.496 -0.0896  0.1183 -0.0254
  307loPI   C5A 4907   3.651  12.954   8.136  0.1890 -0.0407 -0.0823
  307loPI   C6A 4908   3.990  13.136   7.908  0.0692  0.1519  0.1962
  307loPI   C1B 4909   3.198  13.383   9.708  0.1558  0.0751 -0.0046
  307loPI   C2B 4910   3.234  13.396   9.315  0.1313  0.2131 -0.3617
  307loPI   C3B 4911   3.210  13.309   8.812  0.1110 -0.1012 -0.2564
  307loPI   C4B 4912   3.237  13.284   8.411  0.1439 -0.1226 -0.1367
  308loPI    C1 4913  13.709  13.054  10.458 -0.2819 -0.0091  0.0613
  308loPI    C2 4914  13.739  13.335  10.741  0.0245  0.0166  0.0063
  308loPI    C3 4915  13.885  12.969  10.807  0.1759  0.0476 -0.1494
  308loPI   PO4 4916  13.555  13.174  10.259 -0.2621  0.0462  0.1202
  308loPI   GL1 4917  13.497  13.491   9.856  0.0750  0.0281  0.3208
  308loPI   GL2 4918  13.346  13.841   9.792  0.0853 -0.0980 -0.0365
  308loPI   C1A 4919  13.604  13.419   9.420  0.0960 -0.3256  0.1944
  308loPI   C2A 4920  13.673  13.507   9.069 -0.1054 -0.1888  0.1110
  308loPI   C3A 4921  13.698  13.568   8.719  0.1986  0.1659 -0.0204
  308loPI   C4A 4922  13.558  13.643   8.330  0.1181 -0.2543  0.2544
  308loPI   C5A 4923  13.740  13.611   7.963 -0.1683 -0.1068 -0.0387
  308loPI   C6A 4924  13.648  13.891   7.677 -0.2509 -0.1961  0.1968
  308loPI   C1B 4925  13.290  13.933   9.335 -0.0618 -0.2006 -0.3357
  308loPI   C2B 4926  13.286  13.886   8.880  0.1989  0.0996 -0.2198
  308loPI   C3B 4927  13.156  13.935   8.406 -0.2435  0.0948  0.0344
  308loPI   C4B 4928  13.162  13.872   7.950 -0.3387 -0.2245 -0.0657
  309loPI    C1 4929  12.419   6.897  10.384 -0.1703  0.1614  0.3150
  309loPI    C2 4930  12.413   6.521  10.519  0.1987  0.0659  0.0806
  309loPI    C3 4931  12.662   6.787  10.683  0.1289  0.1393  0.0682
  309loPI   PO4 4932  12.444   6.931  10.116 -0.2420 -0.1815 -0.1477
  309loPI   GL1 4933  12.377   6.666   9.839  0.0855  0.0947  0.0139
  309loPI   GL2 4934  12.121   6.566  10.061 -0.0186 -0.1267  0.2493
  309loPI   C1A 4935  12.519   6.640   9.403 -0.0418 -0.1917 -0.1828
  309loPI   C2A 4936  12.524   6.601   8.984  0.0126 -0.0897  0.2041
  309loPI   C3A 4937  12.446   6.628   8.543 -0.0425  0.2058  0.0484
  309loPI   C4A 4938  12.354   6.744   8.050  0.0918 -0.0593 -0.0091
  309loPI   C5A 4939  12.469   7.032   7.726  0.0614 -0.0181  0.3187
  309loPI   C6A 4940  12.262   7.078   7.284  0.1295  0.1511 -0.0664
  309loPI   C1B 4941  12.105   6.357   9.593 -0.1435  0.0304  0.1834
  309loPI   C2B 4942  12.114   6.340   9.141 -0.1024 -0.1171  0.0946
  309loPI   C3B 4943  12.023   6.439   8.780  0.2526 -0.1482  0.0061
  309loPI   C4B 4944  12.069   6.397   8.289  0.0239  0.1088  0.2763
  310loPI    C1 4945   3.075   6.900  10.893  0.0223  0.0731 -0.1302
  310loPI    C2 4946   3.065   6.520  11.017  0.3020  0.1260  0.0657
  310loPI    C3 4947   2.882   6.805  11.230  0.1143  0.1071 -0.0675
  310loPI   PO4 4948   3.268   6.923  10.760  0.0052 -0.0455  0.0084
  310loPI   GL1 4949   3.354   6.825  10.382  0.4301 -0.0460 -0.1722
  310loPI   GL2 4950   3.218   7.046  10.309  0.4714  0.0024 -0.0211
  310loPI   C1A 4951   3.450   6.744   9.950  0.1740  0.0060  0.3122
  310loPI   C2A 4952   3.445   6.868   9.486 -0.2038  0.1321 -0.4109
  310loPI   C3A 4953   3.498   6.847   8.998  0.3244 -0.1209 -0.2008
  310loPI   C4A 4954   3.349   6.812   8.587 -0.0161 -0.3201  0.0120
  310loPI   C5A 4955   3.030   6.841   8.262  0.0081  0.1329  0.4135
  310loPI   C6A 4956   2.899   7.192   8.059 -0.1811  0.0696  0.3520
  310loPI   C1B 4957   3.038   7.094   9.870 -0.3328  0.1320 -0.0417
  310loPI   C2B 4958   2.951   7.129   9.422  0.0259  0.0828 -0.0227
  310loPI   C3B 4959   3.049   7.163   8.961 -0.0127  0.1085  0.0787
  310loPI   C4B 4960   2.999   7.239   8.561  0.0349  0.0651 -0.1086
  311loPI    C1 4961  14.767   5.510  10.303 -0.0669  0.1065 -0.1708
  311loPI    C2 4962  15.112   5.356  10.171 -0.1337 -0.0632 -0.1491
  311loPI    C3 4963  15.048   5.396  10.564 -0.2112 -0.2033 -0.1466
  311loPI   PO4 4964  14.675   5.615  10.064  0.0029 -0.0081 -0.2772
  311loPI   GL1 4965  14.445   5.442   9.702 -0.1204 -0.2330  0.0106
  311loPI   GL2 4966  14.799   5.497   9.632 -0.1262  0.2267  0.1152
  311loPI   C1A 4967  14.369   5.578   9.271 -0.0477 -0.2400  0.0356
  311loPI   C2A 4968  14.084   5.551   8.898 -0.1487  0.0739 -0.0600
  311loPI   C3A 4969  13.799   5.468   8.465  0.0556 -0.0982 -0.0501
  311loPI   C4A 4970  13.842   5.299   7.995 -0.0020  0.2574  0.0801
  311loPI   C5A 4971  13.739   5.186   7.389 -0.1944 -0.2496  0.0105
  311loPI   C6A 4972  13.355   5.052   7.041 -0.1283  0.2591  0.3482
  311loPI   C1B 4973  14.804   5.357   9.127  0.1260 -0.2454 -0.1942
  311loPI   C2B 4974  14.785   5.501   8.732  0.1786  0.4941  0.3644
  311loPI   C3B 4975  14.777   5.352   8.266 -0.1132  0.0126  0.2794
  311loPI   C4B 4976  14.585   5.365   7.908  0.0600  0.1873 -0.1534
  312loPI    C1 4977   5.936  10.046  10.601  0.0078 -0.0485 -0.2071
  312loPI    C2 4978   5.902  10.187  10.974 -0.7225 -0.2181 -0.1952
  312loPI    C3 4979   6.188   9.923  10.886 -0.0837  0.3594  0.0598
  312loPI   PO4 4980   5.746  10.311  10.534 -0.3786 -0.0497 -0.2719
  312loPI   GL1 4981   5.670  10.283  10.207  0.1018 -0.0993  0.2168
  312loPI   GL2 4982   5.754  10.529  10.041  0.1635 -0.0824 -0.3392
  312loPI   C1A 4983   5.696   9.988   9.913  0.1945 -0.1957 -0.0652
  312loPI   C2A 4984   5.718  10.110   9.426  0.0827  0.1717 -0.2202
  312loPI   C3A 4985   5.890  10.154   8.959  0.4075 -0.3678  0.1383
  312loPI   C4A 4986   5.910  10.290   8.585  0.1387  0.0411 -0.0462
  312loPI   C5A 4987   5.823  10.248   8.204  0.4316  0.1158 -0.1047
  312loPI   C6A 4988   5.961  10.152   7.877  0.3072  0.0496 -0.0708
  312loPI   C1B 4989   5.923  10.602   9.646 -0.0248  0.0614  0.0039
  312loPI   C2B 4990   5.788  10.614   9.267  0.2241  0.0549 -0.1262
  312loPI   C3B 4991   5.798  10.678   8.917 -0.0887 -0.2744  0.0835
  312loPI   C4B 4992   5.881  10.782   8.527 -0.0423  0.0177 -0.0699
  313loPI    C1 4993   8.809  11.656  10.685  0.1363 -0.0417  0.1406
  313loPI    C2 4994   8.455  11.526  10.819  0.1141 -0.0148  0.1082
  313loPI    C3 4995   8.662  11.796  11.029  0.2800 -0.2920  0.3073
  313loPI   PO4 4996   8.880  11.598  10.464 -0.0942 -0.3494 -0.2448
  313loPI   GL1 4997   8.925  11.475  10.098  0.4175  0.0672 -0.1513
  313loPI   GL2 4998   8.726  11.134   9.913  0.3071 -0.5007  0.0825
  313loPI   C1A 4999   9.018  11.552   9.684  0.1385  0.1077 -0.0365
  313loPI   C2A 5000   9.108  11.446   9.242 -0.3046  0.2178 -0.2560
  313loPI   C3A 5001   9.023  11.480   8.761  0.0878  0.0731  0.2477
  313loPI   C4A 5002   9.031  11.573   8.216 -0.0024 -0.3737  0.1285
  313loPI   C5A 5003   9.255  11.230   7.911 -0.0712 -0.0029 -0.0769
  313loPI   C6A 5004   9.668  11.025   7.928  0.0551 -0.3220  0.1099
  313loPI   C1B 5005   8.660  11.222   9.496  0.1820 -0.4568  0.2622
  313loPI   C2B 5006   8.555  11.105   9.106  0.2108 -0.1708 -0.2773
  313loPI   C3B 5007   8.618  11.132   8.613  0.1350  0.0772  0.4333
  313loPI   C4B 5008   8.677  11.139   8.121 -0.3145  0.2157  0.2145
  314loPI    C1 5009   3.078  14.546  10.884 -0.1432  0.3153 -0.0900
  314loPI    C2 5010   2.737  14.349  10.815  0.0517 -0.0031 -0.1703
  314loPI    C3 5011   2.981  14.230  11.109  0.0513  0.2822 -0.0501
  314loPI   PO4 5012   3.060  14.627  10.634 -0.2082 -0.0488  0.1379
  314loPI   GL1 5013   3.184  14.667  10.191  0.0624 -0.1223 -0.0966
  314loPI   GL2 5014   3.255  14.446  10.025 -0.0270 -0.1582 -0.1836
  314loPI   C1A 5015   2.872  14.727   9.833  0.1099 -0.4283 -0.0024
  314loPI   C2A 5016   2.811  14.843   9.395  0.0552 -0.1595  0.1391
  314loPI   C3A 5017   2.828  14.764   8.984 -0.1026  0.1045  0.0552
  314loPI   C4A 5018   2.723  14.558   8.652 -0.2233  0.0376 -0.1392
  314loPI   C5A 5019   2.822  14.718   8.234  0.0430 -0.1338 -0.1075
  314loPI   C6A 5020   2.727  14.881   7.823 -0.0991  0.3056 -0.0523
  314loPI   C1B 5021   3.397  14.361   9.606  0.2418  0.1871  0.1230
  314loPI   C2B 5022   3.225  14.422   9.227  0.2407  0.3160 -0.2293
  314loPI   C3B 5023   3.253  14.372   8.821 -0.4085  0.1730  0.0702
  314loPI   C4B 5024   3.207  14.284   8.394  0.0688  0.2073 -0.1267
  315loPI    C1 5025   0.142  13.575  10.951 -0.1056  0.1689  0.2052
  315loPI    C2 5026   0.432  13.820  10.827 -0.0685  0.0333  0.0210
  315loPI    C3 5027   0.511  13.539  11.101 -0.0132 -0.0346 -0.0639
  315loPI   PO4 5028   0.016  13.582  10.692 -0.0408 -0.0426 -0.1040
  315loPI   GL1 5029   0.046  13.348  10.365  0.2122  0.0299  0.1363
  315loPI   GL2 5030  -0.297  13.184  10.373  0.0837 -0.1812  0.1798
  315loPI   C1A 5031  -0.044  13.021   9.973 -0.2576  0.1568 -0.1725
  315loPI   C2A 5032  -0.070  12.791   9.617 -0.0792 -0.0639  0.1651
  315loPI   C3A 5033  -0.042  12.702   9.144 -0.2497 -0.2025  0.1346
  315loPI   C4A 5034   0.073  12.661   8.724 -0.0746  0.2079  0.1443
  315loPI   C5A 5035   0.056  12.436   8.333  0.0432  0.0348 -0.2936
  315loPI   C6A 5036   0.064  12.610   7.848  0.1272 -0.0782 -0.0956
  315loPI   C1B 5037  -0.512  13.194  10.048 -0.1591  0.1332  0.1638
  315loPI   C2B 5038  -0.563  13.181   9.707 -0.0896  0.0816  0.2521
  315loPI   C3B 5039  -0.532  13.082   9.308 -0.1359  0.1006 -0.0247
  315loPI   C4B 5040  -0.394  12.982   8.922  0.1682 -0.2966 -0.0853
  316loPI    C1 5041   8.821  15.009  10.453  0.1199  0.2243  0.0427
  316loPI    C2 5042   8.531  15.214  10.269  0.0108  0.0134 -0.0236
  316loPI    C3 5043   8.508  15.145  10.662 -0.0677 -0.0678 -0.0421
  316loPI   PO4 5044   8.955  14.884  10.240  0.0739 -0.0497  0.0722
  316loPI   GL1 5045   9.205  14.777   9.993  0.0575  0.0049 -0.1722
  316loPI   GL2 5046   9.379  14.435   9.924  0.0173  0.2202 -0.1403
  316loPI   C1A 5047   9.084  14.763   9.575  0.2112 -0.1121  0.1190
  316loPI   C2A 5048   9.103  14.674   9.096  0.0014  0.5022  0.2337
  316loPI   C3A 5049   9.139  14.621   8.643  0.0512 -0.0076 -0.0727
  316loPI   C4A 5050   9.387  14.661   8.300  0.1843 -0.0366 -0.0008
  316loPI   C5A 5051   9.681  14.634   7.992  0.2182 -0.2183  0.2247
  316loPI   C6A 5052   9.975  14.919   7.693  0.0222  0.0985  0.2754
  316loPI   C1B 5053   9.388  14.429   9.481  0.1479 -0.0074  0.0630
  316loPI   C2B 5054   9.546  14.415   9.072 -0.0522 -0.1985  0.1451
  316loPI   C3B 5055   9.571  14.383   8.636 -0.2865 -0.1856  0.1651
  316loPI   C4B 5056   9.669  14.185   8.080  0.1320 -0.1480  0.0026
  317loPI    C1 5057  13.099  18.226  10.555 -0.0756  0.0025  0.0511
  317loPI    C2 5058  12.795  18.356  10.779 -0.0214 -0.0923  0.1807
  317loPI    C3 5059  13.162  18.331  10.936  0.1259  0.3549 -0.0745
  317loPI   PO4 5060  13.027  18.341  10.305  0.2851  0.1014  0.1230
  317loPI   GL1 5061  12.831  18.420   9.877  0.0399 -0.0659 -0.3978
  317loPI   GL2 5062  12.645  18.701   9.755  0.0093  0.4037  0.0192
  317loPI   C1A 5063  12.985  18.313   9.438  0.5498 -0.0567  0.4748
  317loPI   C2A 5064  13.303  18.423   9.018 -0.3322  0.0674  0.0388
  317loPI   C3A 5065  13.345  18.486   8.552 -0.1855  0.0924  0.1672
  317loPI   C4A 5066  13.405  18.567   8.104 -0.0327 -0.1940 -0.0237
  317loPI   C5A 5067  13.442  18.596   7.656  0.0485  0.1577 -0.1967
  317loPI   C6A 5068  13.488  18.944   7.360 -0.0338  0.0361 -0.0598
  317loPI   C1B 5069  12.479  18.350   9.553 -0.1007  0.0154 -0.1703
  317loPI   C2B 5070  12.310  18.595   9.309 -0.4199  0.3749 -0.0654
  317loPI   C3B 5071  12.321  18.836   9.045  0.2081 -0.2135  0.0818
  317loPI   C4B 5072  12.230  18.948   8.541  0.2641 -0.0231 -0.0675
  318loPI    C1 5073   2.578   0.090  10.448  0.0763 -0.2893 -0.1071
  318loPI    C2 5074   2.642   0.320  10.768 -0.0412 -0.1313 -0.1957
  318loPI    C3 5075   2.669  -0.078  10.800  0.1523 -0.1077 -0.0391
  318loPI   PO4 5076   2.608   0.326  10.231 -0.0023 -0.0559 -0.5117
  318loPI   GL1 5077   2.718   0.166   9.806  0.0013  0.1679 -0.0446
  318loPI   GL2 5078   2.656  -0.091  10.004 -0.0493  0.2355 -0.0600
  318loPI   C1A 5079   2.851   0.066   9.424 -0.0294  0.2198  0.1365
  318loPI   C2A 5080   2.902   0.113   8.942 -0.0437 -0.2047  0.1842
  318loPI   C3A 5081   2.843   0.131   8.548  0.0409  0.2301  0.0971
  318loPI   C4A 5082   2.976   0.208   8.209  0.1354 -0.2593  0.3202
  318loPI   C5A 5083   2.885   0.428   7.917 -0.2130 -0.1132 -0.0594
  318loPI   C6A 5084   2.716   0.356   7.468  0.2823 -0.1586 -0.0457
  318loPI   C1B 5085   2.547  -0.339   9.654 -0.0013 -0.1234 -0.1837
  318loPI   C2B 5086   2.609  -0.346   9.207 -0.3649  0.0741  0.2153
  318loPI   C3B 5087   2.677  -0.372   8.769 -0.0316 -0.4067 -0.2039
  318loPI   C4B 5088   2.804  -0.555   8.390 -0.1680 -0.0667  0.0403
  319loPI    C1 5089  10.475   0.867  10.408 -0.0713 -0.0486 -0.0124
  319loPI    C2 5090  10.716   0.572  10.285  0.0159  0.0180 -0.0022
  319loPI    C3 5091  10.712   0.679  10.670 -0.0408  0.0073  0.0003
  319loPI   PO4 5092  10.469   1.040  10.295  0.0639  0.0257 -0.0520
  319loPI   GL1 5093  10.759   1.104   9.977 -0.0609  0.2263  0.1055
  319loPI   GL2 5094  10.828   0.778   9.845  0.1825  0.0970 -0.2886
  319loPI   C1A 5095  10.668   1.173   9.484 -0.2780  0.3859 -0.4233
  319loPI   C2A 5096  10.310   1.181   9.228 -0.1155  0.0454 -0.2639
  319loPI   C3A 5097  10.207   1.180   8.795 -0.2666 -0.0311  0.0347
  319loPI   C4A 5098  10.194   1.340   8.352 -0.2279  0.0827 -0.1266
  319loPI   C5A 5099  10.232   1.131   7.900  0.2710 -0.1080  0.1139
  319loPI   C6A 5100  10.178   1.026   7.560 -0.2286  0.3065 -0.0875
  319loPI   C1B 5101  10.870   0.762   9.404  0.1601  0.3528 -0.0497
  319loPI   C2B 5102  10.599   0.822   9.064  0.2706  0.3032 -0.0073
  319loPI   C3B 5103  10.596   0.825   8.741 -0.0114 -0.3022  0.0797
  319loPI   C4B 5104  10.268   0.795   8.413 -0.1615  0.0890  0.0121
  320loPI    C1 5105   4.733   8.718  11.007 -0.1543 -0.1260 -0.0955
  320loPI    C2 5106   4.637   8.472  11.308 -0.1686  0.1061  0.0923
  320loPI    C3 5107   4.817   8.821  11.384  0.4637 -0.1364 -0.2187
  320loPI   PO4 5108   4.534   8.620  10.795  0.2572  0.3339 -0.4582
  320loPI   GL1 5109   4.329   8.579  10.377 -0.0241  0.2004  0.0433
  320loPI   GL2 5110   4.344   8.907  10.178  0.1180 -0.0128 -0.4068
  320loPI   C1A 5111   4.358   8.420   9.940  0.2359  0.1450  0.2186
  320loPI   C2A 5112   4.325   8.275   9.576  0.0932  0.1029  0.1846
  320loPI   C3A 5113   4.373   8.319   9.101 -0.0732 -0.2748  0.1077
  320loPI   C4A 5114   4.419   8.262   8.605 -0.0298  0.2886  0.2410
  320loPI   C5A 5115   4.693   8.257   8.279  0.0240 -0.0613 -0.1031
  320loPI   C6A 5116   5.119   8.091   8.034 -0.2113 -0.1308 -0.3264
  320loPI   C1B 5117   4.397   8.779   9.643 -0.1938  0.1276 -0.3257
  320loPI   C2B 5118   4.383   8.847   9.149  0.4063 -0.1951  0.1817
  320loPI   C3B 5119   4.499   8.867   8.686 -0.3484  0.0366 -0.0372
  320loPI   C4B 5120   4.356   8.691   8.383  0.1242 -0.3186 -0.1086
  321loPI    C1 5121   9.776   8.139  10.449 -0.0069 -0.0477  0.0635
  321loPI    C2 5122   9.943   8.127  10.812  0.0354  0.0164  0.0464
  321loPI    C3 5123   9.763   8.461  10.686  0.0051 -0.0116  0.0152
  321loPI   PO4 5124   9.724   7.884  10.401  0.1940  0.0708  0.1559
  321loPI   GL1 5125   9.834   7.616  10.079 -0.2035  0.1372 -0.2672
  321loPI   GL2 5126  10.104   7.357  10.149 -0.1400 -0.0235  0.2225
  321loPI   C1A 5127   9.782   7.679   9.541 -0.0658 -0.1935  0.0442
  321loPI   C2A 5128   9.838   7.686   9.149 -0.1325 -0.1777  0.2539
  321loPI   C3A 5129   9.879   7.789   8.742  0.3329  0.0662 -0.0118
  321loPI   C4A 5130   9.852   7.679   8.209 -0.0186 -0.0006  0.0688
  321loPI   C5A 5131   9.927   7.834   7.860  0.0294  0.0761 -0.0598
  321loPI   C6A 5132   9.930   7.985   7.491 -0.1438  0.0102 -0.4514
  321loPI   C1B 5133  10.169   7.477   9.718 -0.0588 -0.0159  0.3714
  321loPI   C2B 5134  10.324   7.375   9.335  0.1125 -0.3146  0.2907
  321loPI   C3B 5135  10.269   7.472   8.954 -0.1803 -0.1934  0.0202
  321loPI   C4B 5136  10.245   7.556   8.573  0.1455 -0.1052  0.0062
  322loPI    C1 5137   4.041  14.426  10.919  0.1440 -0.0630 -0.0318
  322loPI    C2 5138   4.311  14.178  11.079  0.3580  0.1343 -0.0819
  322loPI    C3 5139   4.307  14.564  11.183 -0.1474  0.0616  0.2028
  322loPI   PO4 5140   4.031  14.371  10.691  0.0062  0.3505 -0.0195
  322loPI   GL1 5141   4.092  14.224  10.215  0.2628  0.2272  0.1217
  322loPI   GL2 5142   4.121  14.560  10.246 -0.1814  0.1687 -0.3464
  322loPI   C1A 5143   3.820  14.228   9.947  0.0048 -0.2947  0.0280
  322loPI   C2A 5144   3.837  14.183   9.555 -0.0756  0.0961 -0.2062
  322loPI   C3A 5145   3.689  14.103   9.129 -0.1395  0.3135 -0.0803
  322loPI   C4A 5146   3.614  14.044   8.663  0.0220 -0.0819 -0.0404
  322loPI   C5A 5147   3.817  14.030   8.326  0.2202 -0.1056  0.1125
  322loPI   C6A 5148   3.932  14.354   8.022  0.0793 -0.3634  0.1666
  322loPI   C1B 5149   4.303  14.481   9.778  0.0335 -0.2098  0.1688
  322loPI   C2B 5150   4.218  14.350   9.325  0.1849 -0.1142 -0.4783
  322loPI   C3B 5151   4.131  14.402   8.939 -0.1138 -0.0055 -0.0266
  322loPI   C4B 5152   4.120  14.392   8.485 -0.0038 -0.0291 -0.1421
  323loPI    C1 5153   2.563   4.810  10.522 -0.0188 -0.1791  0.0042
  323loPI    C2 5154   2.720   4.528  10.758 -0.0124 -0.1506  0.0341
  323loPI    C3 5155   2.331   4.518  10.665  0.0226 -0.2659 -0.1045
  323loPI   PO4 5156   2.663   4.796  10.258  0.1145 -0.3170 -0.1710
  323loPI   GL1 5157   2.850   5.004   9.899 -0.0506 -0.1033 -0.1924
  323loPI   GL2 5158   3.086   4.687  10.037 -0.1476  0.4345  0.0616
  323loPI   C1A 5159   2.874   5.124   9.521 -0.2055 -0.2866 -0.0514
  323loPI   C2A 5160   2.916   5.069   9.084 -0.1969  0.0594  0.0251
  323loPI   C3A 5161   2.845   4.987   8.571  0.0644  0.1210  0.0779
  323loPI   C4A 5162   3.173   4.917   8.163  0.0506 -0.0520  0.2388
  323loPI   C5A 5163   3.216   4.546   7.791  0.2552 -0.0596  0.3991
  323loPI   C6A 5164   2.937   4.234   7.603  0.0048 -0.0188  0.1450
  323loPI   C1B 5165   3.334   4.743   9.614 -0.1490 -0.0865 -0.2874
  323loPI   C2B 5166   3.352   4.851   9.151  0.2503 -0.3329  0.2391
  323loPI   C3B 5167   3.386   4.827   8.664 -0.0918 -0.2802  0.3758
  323loPI   C4B 5168   3.657   4.758   8.320  0.1727 -0.2168 -0.2429
  324loPI    C1 5169   3.109  11.674  10.381 -0.0630 -0.3325 -0.0005
  324loPI    C2 5170   3.080  11.585  10.770 -0.3776  0.0232  0.0636
  324loPI    C3 5171   2.809  11.444  10.511 -0.3254  0.0099  0.0161
  324loPI   PO4 5172   3.400  11.645  10.272  0.0154  0.1206 -0.0890
  324loPI   GL1 5173   3.698  11.584  10.007 -0.1774  0.2584  0.1784
  324loPI   GL2 5174   3.458  11.700   9.705 -0.0423  0.1425  0.1793
  324loPI   C1A 5175   3.979  11.796   9.632  0.0308  0.2660 -0.3621
  324loPI   C2A 5176   3.964  11.837   9.155  0.0210  0.0063  0.1507
  324loPI   C3A 5177   4.086  11.772   8.784  0.0691  0.0780 -0.3400
  324loPI   C4A 5178   4.072  11.727   8.337  0.0223 -0.0270  0.0430
  324loPI   C5A 5179   4.249  11.617   7.921 -0.2445  0.1234 -0.1377
  324loPI   C6A 5180   4.486  11.277   7.755  0.3992  0.2222  0.2065
  324loPI   C1B 5181   3.585  11.549   9.312 -0.1928  0.1985  0.0616
  324loPI   C2B 5182   3.677  11.515   8.871  0.1379 -0.0968  0.0977
  324loPI   C3B 5183   3.580  11.584   8.515 -0.0350 -0.1833 -0.1720
  324loPI   C4B 5184   3.690  11.476   8.053  0.1862 -0.0088  0.2164
  325loPI    C1 5185   8.012  11.480  10.664  0.2950 -0.0731  0.1584
  325loPI    C2 5186   7.835  11.273  10.372  0.1780  0.1212  0.0892
  325loPI    C3 5187   7.761  11.182  10.754  0.3530 -0.1516  0.0617
  325loPI   PO4 5188   8.053  11.680  10.471  0.0151  0.4800 -0.0365
  325loPI   GL1 5189   8.019  11.835  10.020  0.1472  0.0659  0.1485
  325loPI   GL2 5190   8.284  12.011   9.770  0.3402 -0.0312  0.3503
  325loPI   C1A 5191   7.866  11.716   9.645  0.2752  0.0698  0.1563
  325loPI   C2A 5192   7.750  11.699   9.293  0.0168 -0.1311  0.0457
  325loPI   C3A 5193   7.697  11.558   8.979  0.1481 -0.2981  0.0208
  325loPI   C4A 5194   7.750  11.662   8.511 -0.1476 -0.1645  0.0642
  325loPI   C5A 5195   7.606  11.819   8.175 -0.1244 -0.1320 -0.0442
  325loPI   C6A 5196   7.682  12.154   7.895 -0.0835  0.5622  0.0370
  325loPI   C1B 5197   8.186  12.005   9.331  0.0191  0.1086 -0.2303
  325loPI   C2B 5198   8.077  11.841   8.938 -0.3640 -0.2467  0.0215
  325loPI   C3B 5199   8.130  11.947   8.489 -0.2273  0.0227  0.0865
  325loPI   C4B 5200   8.151  11.830   8.050  0.3605  0.0030 -0.4617
  326loPI    C1 5201   4.169   2.656  10.268  0.0542  0.0217 -0.0365
  326loPI    C2 5202   4.392   2.689  10.598 -0.0107  0.1807 -0.0072
  326loPI    C3 5203   4.110   2.405  10.573 -0.1204  0.2750  0.1424
  326loPI   PO4 5204   4.300   2.825  10.143  0.2285  0.2891  0.2740
  326loPI   GL1 5205   4.277   2.769   9.755  0.0103  0.0554  0.1018
  326loPI   GL2 5206   4.541   2.833   9.660  0.1311 -0.0853  0.3560
  326loPI   C1A 5207   4.237   2.967   9.314 -0.1200  0.0445  0.1821
  326loPI   C2A 5208   4.428   3.107   8.940  0.0293  0.3057  0.1134
  326loPI   C3A 5209   4.516   2.988   8.508 -0.2614 -0.0360 -0.2248
  326loPI   C4A 5210   4.711   3.282   8.140  0.1373 -0.2391  0.1725
  326loPI   C5A 5211   4.869   3.516   7.763 -0.0920 -0.2855 -0.0149
  326loPI   C6A 5212   5.162   3.870   7.733  0.1228 -0.0477  0.0018
  326loPI   C1B 5213   4.420   2.419   9.409 -0.0383 -0.6053 -0.3353
  326loPI   C2B 5214   4.393   2.107   8.983  0.1935  0.2469 -0.3746
  326loPI   C3B 5215   4.383   2.126   8.514 -0.0607 -0.1608  0.0232
  326loPI   C4B 5216   4.663   2.210   8.104  0.1827  0.0151  0.0063
  327loPI    C1 5217   5.300   6.248  11.010  0.0568 -0.0829  0.1978
  327loPI    C2 5218   4.944   6.319  11.179 -0.0275 -0.0277  0.0007
  327loPI    C3 5219   5.251   6.193  11.403 -0.1587 -0.0336  0.1792
  327loPI   PO4 5220   5.237   6.405  10.763  0.1202 -0.0655  0.2085
  327loPI   GL1 5221   5.491   6.211  10.432 -0.1359  0.1047 -0.1613
  327loPI   GL2 5222   5.729   6.244  10.259 -0.1115  0.0759 -0.4158
  327loPI   C1A 5223   5.254   6.188  10.027  0.3433  0.0915  0.2003
  327loPI   C2A 5224   5.172   6.316   9.583  0.1425 -0.3552  0.2840
  327loPI   C3A 5225   5.227   6.377   9.179 -0.1004  0.3140 -0.1838
  327loPI   C4A 5226   5.251   6.263   8.717  0.0855  0.2588  0.1530
  327loPI   C5A 5227   5.210   6.546   8.328 -0.3505  0.2151  0.3233
  327loPI   C6A 5228   5.334   6.749   7.963 -0.1408  0.1391 -0.2189
  327loPI   C1B 5229   5.709   6.399   9.858  0.2089  0.1378  0.0770
  327loPI   C2B 5230   5.701   6.514   9.483 -0.0014  0.1866  0.1459
  327loPI   C3B 5231   5.733   6.603   9.077  0.4218 -0.2314  0.1555
  327loPI   C4B 5232   5.712   6.476   8.717 -0.0419  0.1055  0.1887
  328loPI    C1 5233  14.046   3.975  10.251  0.0211  0.2358  0.0382
  328loPI    C2 5234  14.291   3.660  10.281 -0.0763  0.1318 -0.2272
  328loPI    C3 5235  14.247   3.910  10.591  0.2764  0.0886 -0.1382
  328loPI   PO4 5236  14.005   4.007  10.034 -0.3190 -0.0061  0.1132
  328loPI   GL1 5237  13.994   4.097   9.645  0.0090  0.0622  0.0987
  328loPI   GL2 5238  14.296   4.080   9.652 -0.0885  0.0480  0.1843
  328loPI   C1A 5239  13.776   3.871   9.372  0.1159  0.2069 -0.2155
  328loPI   C2A 5240  13.805   3.785   8.926 -0.0582  0.0058 -0.0470
  328loPI   C3A 5241  14.101   3.671   8.718 -0.0870  0.1199  0.3381
  328loPI   C4A 5242  14.037   3.595   8.251 -0.1341  0.2457  0.2749
  328loPI   C5A 5243  13.883   3.344   7.895  0.0941 -0.2039  0.2433
  328loPI   C6A 5244  13.633   3.325   7.514  0.3430  0.0257  0.0330
  328loPI   C1B 5245  14.210   4.161   9.165 -0.0773  0.2584 -0.3122
  328loPI   C2B 5246  14.215   4.173   8.686 -0.1901  0.1284  0.1941
  328loPI   C3B 5247  14.354   4.073   8.321 -0.1445  0.1692  0.1790
  328loPI   C4B 5248  14.471   3.857   7.951  0.1614 -0.2537  0.1814
  329loPI    C1 5249   0.513   9.171  10.784 -0.2934 -0.1600  0.1299
  329loPI    C2 5250   0.721   9.318  11.093 -0.0273  0.0909 -0.1611
  329loPI    C3 5251   0.795   8.948  10.959 -0.3469 -0.1312  0.2537
  329loPI   PO4 5252   0.302   9.517  10.772  0.1183  0.1006  0.1118
  329loPI   GL1 5253   0.163   9.808  10.543  0.1296 -0.1734  0.3253
  329loPI   GL2 5254   0.083  10.105  10.418 -0.2197 -0.0735  0.1525
  329loPI   C1A 5255   0.302   9.776  10.062 -0.0768  0.2447 -0.1262
  329loPI   C2A 5256   0.316   9.869   9.679 -0.5145 -0.2882 -0.2487
  329loPI   C3A 5257   0.164   9.887   9.208  0.0609  0.2086 -0.2522
  329loPI   C4A 5258   0.241   9.897   8.796  0.1929  0.2045 -0.0659
  329loPI   C5A 5259   0.265   9.956   8.329 -0.1677  0.0431 -0.0756
  329loPI   C6A 5260   0.469   9.853   7.938  0.1014  0.0290  0.2229
  329loPI   C1B 5261  -0.077  10.147   9.900  0.2918 -0.1562  0.0420
  329loPI   C2B 5262  -0.106  10.242   9.410 -0.1333  0.0532 -0.0671
  329loPI   C3B 5263  -0.242  10.133   9.069  0.0688  0.0458  0.0949
  329loPI   C4B 5264  -0.186  10.073   8.550  0.0249 -0.0407  0.3237
  330loPI    C1 5265  15.586   3.633  10.165 -0.2139  0.4020 -0.1282
  330loPI    C2 5266  15.749   3.960  10.329 -0.2223  0.3732 -0.0625
  330loPI    C3 5267  15.467   3.756  10.527  0.3015 -0.0980  0.2270
  330loPI   PO4 5268  15.561   3.652   9.934  0.0989  0.2973 -0.0958
  330loPI   GL1 5269  15.452   3.433   9.604 -0.0665  0.0451  0.2958
  330loPI   GL2 5270  15.201   3.435   9.307 -0.2060  0.0157 -0.0684
  330loPI   C1A 5271  15.623   3.554   9.157 -0.0364 -0.0019 -0.0529
  330loPI   C2A 5272  15.798   3.562   8.838  0.1961 -0.1389  0.0797
  330loPI   C3A 5273  15.956   3.581   8.440 -0.2957 -0.1461 -0.1048
  330loPI   C4A 5274  16.196   3.501   8.183  0.3353 -0.0053 -0.1483
  330loPI   C5A 5275  16.446   3.392   7.855  0.2243 -0.0742 -0.1695
  330loPI   C6A 5276  16.572   3.525   7.394  0.0150 -0.1392  0.1413
  330loPI   C1B 5277  15.143   3.438   8.840  0.2576  0.3708  0.0040
  330loPI   C2B 5278  15.071   3.280   8.391 -0.1434 -0.0022 -0.3507
  330loPI   C3B 5279  14.874   3.181   7.902 -0.1084  0.0617  0.1706
  330loPI   C4B 5280  14.821   2.865   7.545 -0.1196 -0.2217 -0.1270
  331loPI    C1 5281   1.357   9.006  11.111  0.1789 -0.0430  0.0333
  331loPI    C2 5282   1.271   8.830  11.459  0.0831 -0.0888 -0.0134
  331loPI    C3 5283   1.197   9.220  11.408 -0.0390 -0.1138 -0.0316
  331loPI   PO4 5284   1.238   8.835  10.951  0.3556  0.1987  0.0112
  331loPI   GL1 5285   1.110   8.861  10.535  0.0019  0.0022  0.0431
  331loPI   GL2 5286   0.799   8.969  10.358 -0.0404 -0.0588 -0.0506
  331loPI   C1A 5287   1.291   8.726  10.063  0.1626  0.3205 -0.1378
  331loPI   C2A 5288   1.243   8.666   9.641 -0.0758 -0.4228 -0.1072
  331loPI   C3A 5289   1.265   8.729   9.203  0.5588  0.0590  0.0619
  331loPI   C4A 5290   1.151   8.854   8.833  0.1156 -0.1382  0.2344
  331loPI   C5A 5291   0.926   8.745   8.441 -0.0022 -0.1139  0.3773
  331loPI   C6A 5292   0.562   8.452   8.399 -0.0641  0.1001 -0.0299
  331loPI   C1B 5293   0.859   9.008   9.936  0.0435 -0.2018 -0.1499
  331loPI   C2B 5294   0.807   9.003   9.530  0.1618 -0.1081  0.3841
  331loPI   C3B 5295   0.783   9.101   9.074 -0.0643  0.0309  0.0868
  331loPI   C4B 5296   0.695   9.185   8.589 -0.0477 -0.0906 -0.0036
  332loPI    C1 5297   8.144  18.481  10.028 -0.1369 -0.1498 -0.0318
  332loPI    C2 5298   8.084  18.400  10.415 -0.0740 -0.1258 -0.0169
  332loPI    C3 5299   7.872  18.689  10.236  0.0620  0.0224  0.0593
  332loPI   PO4 5300   8.148  18.264   9.840  0.1458 -0.0884 -0.0011
  332loPI   GL1 5301   8.094  18.117   9.308  0.2417 -0.0401 -0.0695
  332loPI   GL2 5302   7.917  17.917   9.184 -0.1264  0.1185  0.1090
  332loPI   C1A 5303   8.232  18.153   8.931  0.0903  0.1091 -0.0878
  332loPI   C2A 5304   8.472  18.034   8.574 -0.2011 -0.1215  0.2806
  332loPI   C3A 5305   8.457  18.009   8.120  0.0770 -0.1012 -0.0125
  332loPI   C4A 5306   8.178  17.996   7.802  0.0949 -0.0246 -0.0125
  332loPI   C5A 5307   7.819  17.787   7.580  0.2470 -0.1052 -0.1703
  332loPI   C6A 5308   7.387  17.946   7.552  0.1020 -0.3625 -0.5733
  332loPI   C1B 5309   8.056  17.743   8.755  0.0014 -0.0862  0.1882
  332loPI   C2B 5310   7.999  18.100   8.376 -0.0503 -0.0175  0.0322
  332loPI   C3B 5311   8.118  18.390   8.174 -0.1150  0.0200  0.4017
  332loPI   C4B 5312   8.054  18.800   8.280 -0.0578 -0.0469 -0.1382
  333loPI    C1 5313   9.921   3.865  10.533 -0.1217  0.0996 -0.1946
  333loPI    C2 5314   9.588   3.714  10.694 -0.1891 -0.0500 -0.4678
  333loPI    C3 5315   9.644   4.110  10.685 -0.0548 -0.0430  0.1678
  333loPI   PO4 5316   9.978   3.825  10.305 -0.1681  0.0197 -0.0688
  333loPI   GL1 5317   9.951   3.684  10.012 -0.0704 -0.1231  0.1328
  333loPI   GL2 5318   9.687   3.496   9.830  0.0983  0.0272 -0.3981
  333loPI   C1A 5319  10.136   3.700   9.635  0.1345 -0.1755  0.4496
  333loPI   C2A 5320  10.178   3.766   9.227 -0.1205  0.0660 -0.1329
  333loPI   C3A 5321  10.196   3.757   8.929 -0.1770  0.1921 -0.1721
  333loPI   C4A 5322  10.294   3.803   8.517 -0.1329  0.2085 -0.1827
  333loPI   C5A 5323  10.340   3.756   8.140 -0.0169  0.0793 -0.0737
  333loPI   C6A 5324  10.228   3.886   7.737 -0.2280  0.1173 -0.1281
  333loPI   C1B 5325   9.660   3.441   9.410  0.1867 -0.2274 -0.2086
  333loPI   C2B 5326   9.769   3.455   8.921  0.1405 -0.2091  0.1591
  333loPI   C3B 5327   9.843   3.572   8.555  0.0995 -0.0359 -0.0913
  333loPI   C4B 5328   9.866   3.621   8.099 -0.0559  0.3941  0.0017
  334loPI    C1 5329  17.582   2.681  10.440 -0.1753 -0.0165 -0.0193
  334loPI    C2 5330  17.820   2.823  10.729 -0.0156 -0.0920 -0.1126
  334loPI    C3 5331  17.445   2.959  10.693 -0.1506 -0.3236  0.3416
  334loPI   PO4 5332  17.752   2.674  10.233 -0.1756  0.3184 -0.4646
  334loPI   GL1 5333  17.993   2.538   9.906 -0.1456  0.0417  0.0779
  334loPI   GL2 5334  18.365   2.690   9.911 -0.0783 -0.0180  0.2119
  334loPI   C1A 5335  17.901   2.542   9.432  0.2034  0.1257 -0.1497
  334loPI   C2A 5336  17.711   2.392   8.997  0.2261  0.4660  0.0306
  334loPI   C3A 5337  17.749   2.005   8.803  0.0377  0.1411  0.0755
  334loPI   C4A 5338  17.695   1.878   8.436 -0.1559 -0.1283 -0.2552
  334loPI   C5A 5339  17.668   1.625   7.950  0.1244 -0.2934 -0.0053
  334loPI   C6A 5340  17.490   1.413   7.537  0.2661  0.0324 -0.0117
  334loPI   C1B 5341  18.454   2.711   9.463  0.0874 -0.0272  0.1992
  334loPI   C2B 5342  18.450   2.580   9.054  0.1608  0.1942  0.1172
  334loPI   C3B 5343  18.373   2.510   8.626 -0.2335  0.0544 -0.1372
  334loPI   C4B 5344  18.017   2.678   8.494 -0.2224  0.0782 -0.0599
  335loPI    C1 5345   8.966  16.248  10.278  0.0177 -0.1029 -0.0918
  335loPI    C2 5346   8.923  16.421  10.636 -0.2201 -0.0447 -0.1464
  335loPI    C3 5347   8.723  16.086  10.551  0.0887 -0.2422 -0.1106
  335loPI   PO4 5348   8.968  16.481  10.172  0.2458 -0.0118  0.2307
  335loPI   GL1 5349   8.962  16.435   9.686 -0.2103  0.1489  0.3129
  335loPI   GL2 5350   9.190  16.235   9.423  0.4124  0.1994  0.0541
  335loPI   C1A 5351   8.986  16.846   9.361  0.1817 -0.1803  0.3843
  335loPI   C2A 5352   9.197  16.898   8.938  0.1818  0.1124  0.0496
  335loPI   C3A 5353   8.960  16.984   8.579 -0.1962  0.0648  0.2662
  335loPI   C4A 5354   8.899  17.106   8.237  0.1246 -0.1016 -0.2246
  335loPI   C5A 5355   8.657  17.122   7.800 -0.1016 -0.2673 -0.1788
  335loPI   C6A 5356   8.577  17.193   7.372  0.0527 -0.0536 -0.1735
  335loPI   C1B 5357   9.087  16.191   9.017 -0.2605  0.1066  0.0203
  335loPI   C2B 5358   9.065  16.059   8.536 -0.0368 -0.3315 -0.1003
  335loPI   C3B 5359   9.079  16.178   8.119 -0.0759  0.0968 -0.1110
  335loPI   C4B 5360   9.042  16.438   7.763  0.0904 -0.0878 -0.0414
  336loPI    C1 5361   4.215   1.859  10.660  0.0231  0.1314  0.0751
  336loPI    C2 5362   3.941   1.580  10.745 -0.0321  0.0906 -0.2259
  336loPI    C3 5363   3.990   1.893  10.989 -0.2934  0.0585 -0.1289
  336loPI   PO4 5364   4.020   1.920  10.380 -0.0925  0.1201 -0.0826
  336loPI   GL1 5365   4.141   2.204  10.015 -0.1388  0.0339 -0.2640
  336loPI   GL2 5366   4.379   2.056   9.813  0.3881 -0.1758  0.1400
  336loPI   C1A 5367   3.989   2.311   9.616  0.0455 -0.2790  0.2026
  336loPI   C2A 5368   3.752   2.037   9.363  0.1356  0.1641 -0.0161
  336loPI   C3A 5369   3.863   1.999   8.904  0.1166  0.0164 -0.2828
  336loPI   C4A 5370   3.906   2.222   8.559 -0.1075 -0.0841 -0.0095
  336loPI   C5A 5371   4.048   2.148   8.172  0.0947  0.1379 -0.0669
  336loPI   C6A 5372   3.894   1.792   7.882  0.2259 -0.1367  0.0052
  336loPI   C1B 5373   4.190   1.857   9.452  0.2129 -0.0066 -0.2354
  336loPI   C2B 5374   4.168   1.655   8.966  0.1888 -0.0525  0.4214
  336loPI   C3B 5375   4.074   1.681   8.608  0.0311 -0.0218  0.0925
  336loPI   C4B 5376   3.892   1.350   8.269 -0.0511 -0.3113  0.0907
  337loPI    C1 5377   4.561  14.334  10.731  0.1100  0.2909 -0.1753
  337loPI    C2 5378   4.878  14.444  10.949 -0.2208  0.1766  0.3818
  337loPI    C3 5379   4.757  14.062  10.950 -0.0048  0.0933 -0.3146
  337loPI   PO4 5380   4.594  14.334  10.521  0.1089 -0.1951 -0.0686
  337loPI   GL1 5381   4.805  14.156  10.159 -0.4820 -0.0434  0.1960
  337loPI   GL2 5382   4.566  13.953  10.150  0.0459 -0.1367  0.0366
  337loPI   C1A 5383   5.112  13.940   9.936 -0.0432 -0.0347  0.0940
  337loPI   C2A 5384   5.115  13.853   9.520  0.1219  0.1246  0.2303
  337loPI   C3A 5385   5.063  13.832   9.021  0.2077  0.3811  0.2390
  337loPI   C4A 5386   4.967  13.823   8.563  0.2529 -0.2467  0.0127
  337loPI   C5A 5387   4.891  13.861   8.113 -0.0391  0.1321  0.0429
  337loPI   C6A 5388   5.066  14.022   7.716 -0.2971 -0.0168  0.0386
  337loPI   C1B 5389   4.665  14.124   9.691 -0.0799  0.2655  0.4861
  337loPI   C2B 5390   4.682  14.096   9.234  0.0860 -0.0275  0.1411
  337loPI   C3B 5391   4.573  14.087   8.813  0.3423  0.0173 -0.0488
  337loPI   C4B 5392   4.503  14.124   8.385  0.0955 -0.0650  0.0424
  338loPI    C1 5393  17.442  10.461  10.879  0.1342  0.0080 -0.1794
  338loPI    C2 5394  17.444  10.136  11.112  0.2004  0.1078 -0.0392
  338loPI    C3 5395  17.307  10.483  11.255  0.0867  0.1314 -0.2032
  338loPI   PO4 5396  17.470  10.436  10.640 -0.0159  0.0346  0.3091
  338loPI   GL1 5397  17.405  10.581  10.145 -0.0337 -0.0592  0.1684
  338loPI   GL2 5398  17.793  10.710  10.229  0.1753 -0.2378 -0.0527
  338loPI   C1A 5399  17.430  10.691   9.736 -0.1479  0.2555 -0.0863
  338loPI   C2A 5400  17.503  10.760   9.268  0.1048  0.0969  0.2516
  338loPI   C3A 5401  17.550  10.626   8.866  0.3423 -0.2053  0.1297
  338loPI   C4A 5402  17.371  10.667   8.430  0.1353 -0.0249 -0.1275
  338loPI   C5A 5403  17.383  11.010   8.183  0.1038  0.1287  0.2121
  338loPI   C6A 5404  17.547  11.412   8.294  0.1077 -0.3669  0.1141
  338loPI   C1B 5405  17.924  10.872   9.793  0.1080 -0.0215  0.0238
  338loPI   C2B 5406  17.998  10.925   9.418  0.2526 -0.1292 -0.0328
  338loPI   C3B 5407  17.890  10.936   8.985  0.0538 -0.1637  0.1379
  338loPI   C4B 5408  17.842  10.867   8.507  0.2407  0.0712  0.0334
  339loPI    C1 5409  14.342   2.694   9.885  0.0541 -0.0700  0.0149
  339loPI    C2 5410  14.281   3.043  10.070  0.1786 -0.1250  0.1613
  339loPI    C3 5411  14.550   2.784  10.214  0.2210 -0.2023 -0.0527
  339loPI   PO4 5412  14.002   2.617   9.857  0.0112 -0.2273 -0.2502
  339loPI   GL1 5413  13.746   2.613   9.624  0.0087  0.0736  0.7328
  339loPI   GL2 5414  13.635   2.360   9.696 -0.1844 -0.2016 -0.3276
  339loPI   C1A 5415  13.950   2.649   9.118  0.1479 -0.3366  0.2000
  339loPI   C2A 5416  13.919   2.717   8.675 -0.1731  0.1723 -0.0207
  339loPI   C3A 5417  14.000   2.637   8.197 -0.1888 -0.0893  0.0701
  339loPI   C4A 5418  13.926   2.432   7.848  0.4168  0.1657  0.1573
  339loPI   C5A 5419  13.695   2.175   7.546 -0.0931 -0.0070 -0.0304
  339loPI   C6A 5420  13.507   1.772   7.336  0.0405 -0.0122 -0.1564
  339loPI   C1B 5421  13.574   2.300   9.259 -0.0223 -0.1013 -0.2480
  339loPI   C2B 5422  13.692   2.264   8.754 -0.5319  0.1104  0.1039
  339loPI   C3B 5423  13.660   2.271   8.327  0.0887 -0.0673 -0.2757
  339loPI   C4B 5424  13.663   1.907   7.987 -0.0427 -0.3300 -0.2350
  340loPI    C1 5425   0.105  15.190  10.925 -0.1848  0.0600 -0.1377
  340loPI    C2 5426  -0.220  15.033  10.753 -0.5166  0.3012  0.2514
  340loPI    C3 5427  -0.058  14.857  11.073 -0.0571 -0.0010 -0.1330
  340loPI   PO4 5428   0.311  15.269  10.663  0.0699  0.1621 -0.1331
  340loPI   GL1 5429   0.315  15.391  10.258 -0.2382  0.0537  0.1077
  340loPI   GL2 5430   0.111  15.122  10.223 -0.0803  0.1489 -0.0697
  340loPI   C1A 5431   0.176  15.430   9.807  0.2230  0.0123  0.0215
  340loPI   C2A 5432   0.124  15.501   9.373 -0.1064 -0.0609  0.2028
  340loPI   C3A 5433  -0.060  15.429   8.955 -0.1017 -0.0889  0.3831
  340loPI   C4A 5434  -0.028  15.273   8.517 -0.0801  0.0761 -0.0514
  340loPI   C5A 5435   0.161  14.978   8.191 -0.1038 -0.1671  0.0209
  340loPI   C6A 5436   0.020  14.640   7.968 -0.2341 -0.0878 -0.0582
  340loPI   C1B 5437  -0.094  15.065   9.759  0.1377 -0.2222 -0.0510
  340loPI   C2B 5438  -0.139  15.043   9.291 -0.4486 -0.2195 -0.0467
  340loPI   C3B 5439  -0.004  14.900   8.905 -0.4807 -0.4039  0.1408
  340loPI   C4B 5440   0.098  14.632   8.605  0.1587  0.1510  0.0887
  341loPI    C1 5441  18.047   9.286  11.133  0.1484  0.1206 -0.0564
  341loPI    C2 5442  18.323   9.129  11.376  0.1484 -0.1690 -0.2385
  341loPI    C3 5443  18.107   9.444  11.496  0.2991 -0.1716  0.0492
  341loPI   PO4 5444  18.151   9.296  10.840 -0.0931  0.0001 -0.0990
  341loPI   GL1 5445  18.078   9.331  10.411 -0.0829  0.0075 -0.2558
  341loPI   GL2 5446  18.426   9.347  10.403 -0.3434 -0.2034  0.2073
  341loPI   C1A 5447  18.102   9.407   9.930  0.0032 -0.1979 -0.1557
  341loPI   C2A 5448  17.903   9.350   9.483  0.1892 -0.2255 -0.4163
  341loPI   C3A 5449  17.932   9.322   8.980  0.3358  0.1855  0.1709
  341loPI   C4A 5450  18.028   9.423   8.585  0.0252 -0.2702  0.1588
  341loPI   C5A 5451  18.361   9.589   8.418  0.4146 -0.0818  0.0575
  341loPI   C6A 5452  18.540   9.613   7.998  0.1055 -0.2207  0.0996
  341loPI   C1B 5453  18.538   9.153   9.967  0.2315  0.0868 -0.2375
  341loPI   C2B 5454  18.537   9.076   9.592 -0.2298  0.2221 -0.0069
  341loPI   C3B 5455  18.400   9.041   9.113  0.2341 -0.1590  0.3714
  341loPI   C4B 5456  18.451   9.042   8.657  0.1245  0.4348 -0.0977
  342loPI    C1 5457  18.183   1.085  10.284  0.3084  0.0740  0.0236
  342loPI    C2 5458  18.123   1.480  10.275  0.5850  0.1128 -0.2667
  342loPI    C3 5459  18.366   1.321  10.550  0.1853  0.0984  0.0872
  342loPI   PO4 5460  18.286   0.835  10.085  0.2257  0.0620  0.1843
  342loPI   GL1 5461  18.491   0.723   9.676 -0.2049  0.0036  0.4212
  342loPI   GL2 5462  18.207   0.840   9.558  0.1304  0.0809 -0.3040
  342loPI   C1A 5463  18.692   0.867   9.306 -0.3098 -0.0487 -0.0008
  342loPI   C2A 5464  18.828   0.808   8.853 -0.2063  0.2162 -0.1243
  342loPI   C3A 5465  18.817   0.778   8.412 -0.1739  0.0165  0.2260
  342loPI   C4A 5466  18.771   0.705   7.942 -0.0428  0.0464  0.1585
  342loPI   C5A 5467  18.870   0.653   7.447  0.0372  0.0136 -0.1271
  342loPI   C6A 5468  19.076   0.807   7.085  0.2558 -0.2294  0.0940
  342loPI   C1B 5469  18.128   0.948   9.193 -0.1574  0.1476  0.2963
  342loPI   C2B 5470  18.348   0.882   8.851  0.0090 -0.0071  0.1052
  342loPI   C3B 5471  18.404   1.160   8.513 -0.0109  0.0525  0.1023
  342loPI   C4B 5472  18.522   1.095   8.079  0.1635 -0.2495 -0.1214
  343loPI    C1 5473   1.719   8.676  11.107  0.0392 -0.0373 -0.2162
  343loPI    C2 5474   2.089   8.619  11.248  0.0217  0.5366  0.0926
  343loPI    C3 5475   1.775   8.588  11.493 -0.1642 -0.1387 -0.2086
  343loPI   PO4 5476   1.639   8.511  10.873  0.0646  0.1031  0.1975
  343loPI   GL1 5477   1.585   8.687  10.467  0.0192  0.0998  0.0704
  343loPI   GL2 5478   1.643   8.978  10.377 -0.0237 -0.1725  0.4459
  343loPI   C1A 5479   1.757   8.484  10.104 -0.0050 -0.3309  0.1256
  343loPI   C2A 5480   1.616   8.413   9.748  0.1409 -0.3652  0.2683
  343loPI   C3A 5481   1.701   8.474   9.305 -0.0746 -0.0547 -0.0249
  343loPI   C4A 5482   1.600   8.516   8.834  0.0465 -0.0111 -0.1635
  343loPI   C5A 5483   1.389   8.595   8.511 -0.0773 -0.0700  0.0641
  343loPI   C6A 5484   1.302   8.759   8.121 -0.0340 -0.0633 -0.3891
  343loPI   C1B 5485   1.705   8.964   9.952 -0.1955  0.2228 -0.0698
  343loPI   C2B 5486   1.708   8.977   9.451 -0.4056  0.0398 -0.0289
  343loPI   C3B 5487   1.616   9.052   8.988 -0.1682 -0.0012  0.0609
  343loPI   C4B 5488   1.658   9.018   8.582  0.1044 -0.3590  0.1598
  344loPI    C1 5489   3.631  16.034  10.451  0.1465 -0.0589 -0.1913
  344loPI    C2 5490   3.323  15.784  10.501  0.0365  0.0825 -0.1564
  344loPI    C3 5491   3.258  16.176  10.458  0.2175  0.1249 -0.0552
  344loPI   PO4 5492   3.825  15.961  10.191 -0.4399  0.0976  0.2959
  344loPI   GL1 5493   3.849  15.704   9.795  0.1500  0.0482  0.2083
  344loPI   GL2 5494   4.044  15.464  10.023  0.3027 -0.1073 -0.1621
  344loPI   C1A 5495   3.726  15.585   9.467 -0.0053 -0.1657 -0.1371
  344loPI   C2A 5496   3.637  15.616   8.988 -0.1635 -0.1073 -0.1740
  344loPI   C3A 5497   3.549  15.633   8.489  0.1724  0.1812  0.0011
  344loPI   C4A 5498   3.441  15.809   8.164 -0.0576  0.0832  0.1459
  344loPI   C5A 5499   3.207  15.478   7.878  0.2840  0.1251  0.0104
  344loPI   C6A 5500   3.107  15.068   7.613 -0.0761 -0.5028 -0.1344
  344loPI   C1B 5501   4.183  15.407   9.562  0.0424 -0.0348  0.0637
  344loPI   C2B 5502   4.136  15.401   9.079 -0.1333  0.3533  0.1276
  344loPI   C3B 5503   4.085  15.493   8.639 -0.2064  0.0540 -0.0289
  344loPI   C4B 5504   3.978  15.303   8.276 -0.0815 -0.1280  0.1793
  345loPI    C1 5505   3.654   8.148  10.795  0.1870  0.2366  0.0103
  345loPI    C2 5506   3.606   8.320  11.153  0.1181  0.1526  0.0420
  345loPI    C3 5507   3.757   7.950  11.127 -0.0970  0.0664  0.0003
  345loPI   PO4 5508   3.681   8.376  10.694  0.0544  0.0889  0.1823
  345loPI   GL1 5509   3.463   8.519  10.276  0.3131 -0.1664 -0.0560
  345loPI   GL2 5510   3.449   8.893  10.206  0.0534 -0.0008 -0.0157
  345loPI   C1A 5511   3.457   8.486   9.864 -0.3305  0.1284  0.1037
  345loPI   C2A 5512   3.490   8.357   9.353 -0.0892 -0.0147 -0.1831
  345loPI   C3A 5513   3.503   8.361   8.860 -0.1754 -0.1179  0.1040
  345loPI   C4A 5514   3.677   8.279   8.458  0.0612 -0.1644 -0.0495
  345loPI   C5A 5515   4.089   8.129   8.295  0.3095  0.1906  0.0895
  345loPI   C6A 5516   4.227   7.777   8.068  0.1302  0.0468  0.1688
  345loPI   C1B 5517   3.485   8.961   9.785 -0.0602 -0.1780 -0.1536
  345loPI   C2B 5518   3.597   8.912   9.353  0.1302  0.0807  0.0758
  345loPI   C3B 5519   3.495   8.889   8.836 -0.0090  0.1159  0.1857
  345loPI   C4B 5520   3.331   8.984   8.384 -0.2480 -0.1501 -0.2452
  346loPI    C1 5521   6.990   7.397  10.892 -0.1621 -0.1472  0.2015
  346loPI    C2 5522   7.309   7.416  11.133 -0.0578 -0.1231  0.0629
  346loPI    C3 5523   6.970   7.246  11.262 -0.0106 -0.0888  0.2341
  346loPI   PO4 5524   6.967   7.593  10.716 -0.1074  0.3510  0.0966
  346loPI   GL1 5525   7.001   7.538  10.388  0.3146  0.1923 -0.3054
  346loPI   GL2 5526   6.821   7.829  10.320 -0.4242 -0.0293 -0.2518
  346loPI   C1A 5527   6.719   7.394   9.993 -0.1565  0.1095  0.0328
  346loPI   C2A 5528   6.621   7.383   9.548 -0.2048  0.2290  0.0192
  346loPI   C3A 5529   6.606   7.517   9.212  0.0310 -0.1752 -0.0239
  346loPI   C4A 5530   6.619   7.531   8.725 -0.3287  0.1362  0.2157
  346loPI   C5A 5531   6.339   7.688   8.427  0.2108 -0.2473  0.1097
  346loPI   C6A 5532   6.009   7.732   8.077 -0.3259 -0.2292 -0.1717
  346loPI   C1B 5533   6.761   7.925   9.871 -0.0440  0.2446 -0.1603
  346loPI   C2B 5534   6.625   7.983   9.428 -0.0338  0.0369 -0.0383
  346loPI   C3B 5535   6.607   8.014   8.953 -0.0010  0.1080  0.0257
  346loPI   C4B 5536   6.689   8.079   8.588 -0.1160  0.1048 -0.2029
  347loPI    C1 5537  10.543   4.331  10.278 -0.0800  0.2312 -0.0577
  347loPI    C2 5538  10.508   4.350  10.676  0.1493 -0.3136 -0.0020
  347loPI    C3 5539  10.394   4.020  10.481  0.0110 -0.0402 -0.3972
  347loPI   PO4 5540  10.469   4.462  10.174  0.2029 -0.0165 -0.1856
  347loPI   GL1 5541  10.370   4.684   9.827 -0.4944 -0.2825  0.0962
  347loPI   GL2 5542  10.673   4.957   9.757  0.0534  0.1695  0.3059
  347loPI   C1A 5543  10.280   4.773   9.379  0.2605 -0.0083  0.0205
  347loPI   C2A 5544  10.239   4.864   8.951 -0.2772 -0.1451  0.1678
  347loPI   C3A 5545  10.190   4.856   8.553  0.1205 -0.1654  0.5347
  347loPI   C4A 5546  10.172   4.825   8.100 -0.0097  0.0922  0.0475
  347loPI   C5A 5547  10.231   5.055   7.710 -0.0504 -0.2087  0.1233
  347loPI   C6A 5548  10.538   5.309   7.692 -0.1418  0.1453  0.3422
  347loPI   C1B 5549  10.669   5.133   9.341  0.2029 -0.1034  0.0434
  347loPI   C2B 5550  10.694   5.151   8.899  0.0005  0.0503  0.1472
  347loPI   C3B 5551  10.670   5.016   8.545 -0.1982 -0.0548 -0.0615
  347loPI   C4B 5552  10.603   5.077   8.170  0.2423 -0.2582  0.0672
  348loPI    C1 5553  13.704   4.326  10.473  0.3500 -0.0974 -0.1104
  348loPI    C2 5554  13.371   4.336  10.694  0.2758 -0.1105 -0.2204
  348loPI    C3 5555  13.655   4.613  10.747  0.1776 -0.0068 -0.2343
  348loPI   PO4 5556  13.625   4.370  10.189  0.1140 -0.0470 -0.0968
  348loPI   GL1 5557  13.546   4.224   9.816  0.1096  0.0309 -0.0319
  348loPI   GL2 5558  13.196   4.174   9.803 -0.0487  0.3735  0.0341
  348loPI   C1A 5559  13.576   4.306   9.366 -0.1820  0.0332  0.1930
  348loPI   C2A 5560  13.758   4.355   8.922 -0.3874  0.2281  0.0909
  348loPI   C3A 5561  13.735   4.473   8.496  0.0916 -0.0376  0.0447
  348loPI   C4A 5562  13.571   4.380   8.086  0.0046 -0.0512  0.0691
  348loPI   C5A 5563  13.293   4.181   7.863 -0.2252  0.1236 -0.0924
  348loPI   C6A 5564  13.308   3.896   7.512 -0.0470  0.1604 -0.2246
  348loPI   C1B 5565  13.058   4.157   9.393 -0.1719  0.1114 -0.1320
  348loPI   C2B 5566  12.816   4.313   9.093 -0.0338  0.0992 -0.0541
  348loPI   C3B 5567  12.873   4.447   8.701  0.1016 -0.1639 -0.1329
  348loPI   C4B 5568  12.900   4.178   8.338 -0.0133  0.0544  0.0515
  349loPI    C1 5569   1.739   9.441  11.115 -0.1118  0.2075 -0.2930
  349loPI    C2 5570   1.563   9.585  11.444 -0.0422  0.0653 -0.1927
  349loPI    C3 5571   1.956   9.512  11.443 -0.0527  0.0077 -0.2877
  349loPI   PO4 5572   1.722   9.576  10.937  0.2377 -0.0140  0.2113
  349loPI   GL1 5573   1.832   9.442  10.504  0.1680  0.1487  0.0336
  349loPI   GL2 5574   2.124   9.658  10.356  0.1748 -0.4371 -0.0147
  349loPI   C1A 5575   1.653   9.528  10.069 -0.0240  0.1835  0.2141
  349loPI   C2A 5576   1.775   9.439   9.707 -0.1671  0.0009 -0.0695
  349loPI   C3A 5577   1.659   9.464   9.298  0.2460  0.1431 -0.1035
  349loPI   C4A 5578   1.699   9.576   8.811 -0.2848  0.0526  0.0362
  349loPI   C5A 5579   1.760   9.519   8.402  0.2045 -0.0186 -0.0851
  349loPI   C6A 5580   1.601   9.172   8.088  0.0220  0.2256 -0.0834
  349loPI   C1B 5581   2.160   9.296  10.020 -0.0261  0.1868  0.4150
  349loPI   C2B 5582   2.146   9.124   9.690  0.0812  0.0008  0.0595
  349loPI   C3B 5583   2.144   9.264   9.227 -0.1855 -0.1348  0.0241
  349loPI   C4B 5584   2.127   9.319   8.767  0.0396 -0.0544 -0.1414
  350loPI    C1 5585  11.150  17.690  10.094 -0.1226  0.0432  0.1994
  350loPI    C2 5586  11.250  17.430  10.380  0.0167  0.0727  0.1789
  350loPI    C3 5587  11.244  17.822  10.460  0.1217  0.0859  0.1240
  350loPI   PO4 5588  11.260  17.694   9.891  0.1695  0.0619  0.2333
  350loPI   GL1 5589  11.739  17.417   9.611  0.2310  0.2536  0.0666
  350loPI   GL2 5590  11.855  17.144   9.629  0.0555 -0.1288 -0.2998
  350loPI   C1A 5591  11.761  17.401   9.173  0.1090  0.1278  0.0162
  350loPI   C2A 5592  11.996  17.541   8.886  0.1864  0.2103  0.1284
  350loPI   C3A 5593  12.119  17.522   8.474  0.4682  0.1147 -0.2262
  350loPI   C4A 5594  12.141  17.705   8.158  0.0199 -0.0280 -0.1223
  350loPI   C5A 5595  12.407  17.637   7.952  0.1449  0.0653  0.2731
  350loPI   C6A 5596  12.829  17.742   7.781 -0.1331 -0.0412  0.2442
  350loPI   C1B 5597  11.785  16.885   9.243 -0.0610 -0.0774 -0.2324
  350loPI   C2B 5598  11.855  16.831   8.814  0.0947 -0.0466  0.1257
  350loPI   C3B 5599  11.719  17.139   8.608  0.0974  0.0279 -0.1477
  350loPI   C4B 5600  11.782  17.369   8.169  0.1485  0.1014 -0.2434
  351loPI    C1 5601   8.616  17.201   9.915  0.0618 -0.0079 -0.2369
  351loPI    C2 5602   8.968  17.044   9.807  0.0478 -0.1359 -0.1001
  351loPI    C3 5603   8.908  17.159  10.186 -0.0545 -0.1053 -0.1255
  351loPI   PO4 5604   8.575  17.350   9.786  0.1335 -0.1038  0.1391
  351loPI   GL1 5605   8.679  17.305   9.399 -0.1123  0.0068 -0.2712
  351loPI   GL2 5606   8.543  17.066   9.354 -0.0146  0.0532  0.3060
  351loPI   C1A 5607   8.908  17.287   9.024 -0.3541  0.0388  0.0825
  351loPI   C2A 5608   8.944  17.506   8.606 -0.1893 -0.0998  0.1406
  351loPI   C3A 5609   8.488  17.558   8.475 -0.0342 -0.3240 -0.0896
  351loPI   C4A 5610   8.095  17.587   8.235  0.1884  0.2693  0.0042
  351loPI   C5A 5611   7.856  17.445   7.900  0.0050  0.2679 -0.1799
  351loPI   C6A 5612   7.485  17.439   7.832  0.1364 -0.2063 -0.2265
  351loPI   C1B 5613   8.511  17.025   8.888 -0.0928  0.0580  0.1313
  351loPI   C2B 5614   8.446  17.088   8.483  0.1509 -0.2891  0.2159
  351loPI   C3B 5615   8.283  17.088   8.133  0.0372  0.1841  0.0872
  351loPI   C4B 5616   8.129  17.133   7.616 -0.0840 -0.0557  0.0411
  352loPI    C1 5617  13.507  16.907  10.007 -0.1950 -0.1192 -0.1918
  352loPI    C2 5618  13.587  16.701  10.340  0.0021 -0.0535 -0.1975
  352loPI    C3 5619  13.744  16.585   9.991  0.0522  0.0606 -0.2136
  352loPI   PO4 5620  13.276  16.960  10.064 -0.2127 -0.1503  0.0856
  352loPI   GL1 5621  12.961  16.789   9.872  0.0912  0.5188  0.2864
  352loPI   GL2 5622  12.964  16.505   9.713  0.2266  0.1170 -0.2649
  352loPI   C1A 5623  13.346  16.783   9.433 -0.1435 -0.0255 -0.1898
  352loPI   C2A 5624  13.414  16.703   9.059 -0.2114 -0.0603  0.0007
  352loPI   C3A 5625  13.649  16.646   8.630 -0.3872  0.0779 -0.1278
  352loPI   C4A 5626  13.887  16.543   8.236 -0.4250 -0.2639  0.2658
  352loPI   C5A 5627  13.890  16.750   7.800  0.6279 -0.2963 -0.0222
  352loPI   C6A 5628  14.073  16.792   7.324 -0.1513 -0.0366 -0.0391
  352loPI   C1B 5629  12.739  16.392   9.234 -0.0572 -0.1996  0.2398
  352loPI   C2B 5630  12.860  16.460   8.838 -0.2061  0.1303  0.2150
  352loPI   C3B 5631  13.164  16.700   8.570  0.1287  0.1077  0.0887
  352loPI   C4B 5632  13.437  16.849   8.221 -0.1541  0.2459 -0.0275
  353loPI    C1 5633   0.872   4.355  10.914 -0.0185 -0.0506 -0.2051
  353loPI    C2 5634   1.258   4.249  10.920  0.0147  0.0755 -0.0050
  353loPI    C3 5635   0.981   3.989  10.796  0.1515 -0.0552 -0.0394
  353loPI   PO4 5636   0.893   4.613  10.758 -0.2013 -0.0497  0.0396
  353loPI   GL1 5637   0.952   4.719  10.404 -0.2248  0.2772 -0.1221
  353loPI   GL2 5638   1.240   4.938  10.400 -0.0735  0.2995 -0.1084
  353loPI   C1A 5639   0.708   4.893  10.046 -0.0874 -0.0308  0.0156
  353loPI   C2A 5640   0.684   4.812   9.559  0.1139 -0.0350  0.2611
  353loPI   C3A 5641   0.747   4.842   9.140 -0.0657  0.0852  0.1830
  353loPI   C4A 5642   0.715   4.753   8.685  0.0564 -0.2306  0.2098
  353loPI   C5A 5643   1.017   4.887   8.353 -0.2488  0.0146  0.0267
  353loPI   C6A 5644   1.215   5.220   8.200  0.2673  0.1935  0.0762
  353loPI   C1B 5645   1.023   5.247  10.178 -0.0376 -0.0756 -0.0488
  353loPI   C2B 5646   1.135   5.589   9.885  0.3199 -0.1580  0.0567
  353loPI   C3B 5647   1.125   5.654   9.511  0.0021  0.2017  0.4575
  353loPI   C4B 5648   1.129   5.646   8.963 -0.1494 -0.3456  0.1534
  354loPI    C1 5649   9.888   5.358  10.485  0.0474 -0.0481  0.0607
  354loPI    C2 5650   9.665   5.243  10.796  0.0286 -0.2698 -0.0328
  354loPI    C3 5651  10.060   5.288  10.839 -0.0206  0.0539  0.1147
  354loPI   PO4 5652   9.715   5.557  10.335  0.0061 -0.0335  0.2631
  354loPI   GL1 5653   9.501   5.623   9.978  0.3134  0.0021  0.0285
  354loPI   GL2 5654   9.261   5.719   9.883 -0.0617  0.0433  0.1688
  354loPI   C1A 5655   9.812   5.616   9.668 -0.2010 -0.0439 -0.0662
  354loPI   C2A 5656   9.824   5.535   9.274  0.2404  0.2988 -0.0342
  354loPI   C3A 5657   9.734   5.571   8.932 -0.1034  0.1986  0.3551
  354loPI   C4A 5658   9.730   5.642   8.472  0.1840  0.2419  0.0710
  354loPI   C5A 5659   9.412   5.722   8.068  0.2199  0.1047  0.1958
  354loPI   C6A 5660   9.157   5.455   7.757  0.1723  0.1218  0.3184
  354loPI   C1B 5661   9.344   5.724   9.475 -0.0916  0.2879  0.1108
  354loPI   C2B 5662   9.233   5.773   9.039 -0.1956  0.0569 -0.1027
  354loPI   C3B 5663   9.182   5.901   8.623  0.4144  0.2820  0.1929
  354loPI   C4B 5664   9.073   6.044   8.186 -0.0761 -0.2502  0.1265
  355loPI    C1 5665   1.062   9.759  10.616 -0.1253  0.0844 -0.1570
  355loPI    C2 5666   1.426   9.695  10.465 -0.1256 -0.2074 -0.0408
  355loPI    C3 5667   1.384   9.909  10.800 -0.0671 -0.1264 -0.0846
  355loPI   PO4 5668   0.885   9.433  10.578 -0.0056 -0.3218  0.0814
  355loPI   GL1 5669   0.800   9.454  10.139  0.0748  0.2108  0.0080
  355loPI   GL2 5670   1.185   9.334  10.134  0.1458 -0.0526  0.0292
  355loPI   C1A 5671   0.867   9.461   9.692 -0.0199  0.0507  0.2897
  355loPI   C2A 5672   0.767   9.562   9.233  0.0180 -0.2753 -0.1752
  355loPI   C3A 5673   0.836   9.579   8.798  0.2305  0.0541  0.2509
  355loPI   C4A 5674   0.804   9.676   8.335  0.2433 -0.1254 -0.1505
  355loPI   C5A 5675   0.935   9.488   7.958 -0.2122 -0.1563  0.2353
  355loPI   C6A 5676   0.737   9.304   7.532 -0.1061  0.0594  0.0068
  355loPI   C1B 5677   1.284   9.175   9.727 -0.4640  0.0607  0.0887
  355loPI   C2B 5678   1.236   9.212   9.339  0.1320 -0.0545 -0.0327
  355loPI   C3B 5679   1.241   9.333   8.885  0.1607  0.1477  0.0775
  355loPI   C4B 5680   1.208   9.197   8.390 -0.3824 -0.2140  0.1007
  356loPI    C1 5681   6.083   0.409  10.206 -0.1600 -0.2608  0.2099
  356loPI    C2 5682   6.477   0.418  10.269 -0.1336  0.5100  0.0308
  356loPI    C3 5683   6.225   0.437  10.579 -0.0409 -0.0150  0.1480
  356loPI   PO4 5684   6.071   0.226   9.967 -0.1597 -0.0987 -0.1381
  356loPI   GL1 5685   5.859   0.359   9.647  0.1313  0.4384  0.0448
  356loPI   GL2 5686   5.640   0.534   9.874  0.0078  0.0355  0.1278
  356loPI   C1A 5687   5.811   0.226   9.134 -0.0381  0.0761 -0.0905
  356loPI   C2A 5688   5.851   0.059   8.736  0.0342  0.1516 -0.0941
  356loPI   C3A 5689   5.803   0.110   8.305  0.0151 -0.0930 -0.1829
  356loPI   C4A 5690   5.919   0.228   7.966 -0.0355  0.1392 -0.1788
  356loPI   C5A 5691   6.122   0.224   7.518  0.3448  0.0682 -0.1925
  356loPI   C6A 5692   6.237   0.285   7.066 -0.0928  0.0691  0.2318
  356loPI   C1B 5693   5.470   0.598   9.434  0.0529  0.0220 -0.0611
  356loPI   C2B 5694   5.230   0.817   9.026 -0.0203 -0.3891 -0.1879
  356loPI   C3B 5695   5.182   0.752   8.535 -0.0636 -0.2024  0.0162
  356loPI   C4B 5696   5.038   0.916   8.139  0.0046 -0.1515 -0.3253
  357loPI    C1 5697   1.369   2.394  10.591 -0.1335 -0.2263  0.1908
  357loPI    C2 5698   1.453   2.717  10.812  0.0294 -0.0718 -0.0912
  357loPI    C3 5699   1.573   2.355  10.933 -0.1667 -0.0326  0.2339
  357loPI   PO4 5700   1.393   2.507  10.322  0.1766 -0.1050 -0.0708
  357loPI   GL1 5701   1.285   2.854   9.995  0.0107 -0.0156  0.0620
  357loPI   GL2 5702   1.149   3.104  10.009  0.1945  0.0217 -0.0678
  357loPI   C1A 5703   1.232   2.708   9.645  0.1796  0.0984 -0.0038
  357loPI   C2A 5704   1.230   2.729   9.190 -0.0902  0.1057  0.1714
  357loPI   C3A 5705   1.203   2.891   8.835 -0.2033 -0.0110 -0.2480
  357loPI   C4A 5706   1.152   2.937   8.399  0.0322 -0.2957  0.0171
  357loPI   C5A 5707   1.320   3.029   7.966  0.2640  0.0247 -0.2473
  357loPI   C6A 5708   1.390   3.351   7.664 -0.0381 -0.2501 -0.1308
  357loPI   C1B 5709   0.843   3.099   9.627 -0.3006 -0.0320 -0.0859
  357loPI   C2B 5710   0.661   3.339   9.297  0.3642 -0.0625 -0.0273
  357loPI   C3B 5711   0.418   3.687   9.177 -0.1082  0.1809  0.1696
  357loPI   C4B 5712   0.075   3.996   9.032  0.0291  0.3078  0.1104
  358loPI    C1 5713   2.737   1.958  10.568 -0.0893  0.0772 -0.0835
  358loPI    C2 5714   2.702   1.616  10.774 -0.1062  0.0006 -0.2127
  358loPI    C3 5715   2.549   1.955  10.921  0.0088 -0.0249 -0.0311
  358loPI   PO4 5716   2.626   1.897  10.343  0.0650 -0.0801  0.1023
  358loPI   GL1 5717   2.646   1.879   9.895  0.0157 -0.5310 -0.0915
  358loPI   GL2 5718   2.462   1.592   9.782  0.1963  0.0285  0.0163
  358loPI   C1A 5719   2.628   2.182   9.561 -0.2620 -0.0890 -0.1692
  358loPI   C2A 5720   2.460   2.295   9.120 -0.2405 -0.0544  0.0451
  358loPI   C3A 5721   2.240   2.545   8.856 -0.2269  0.2155  0.1465
  358loPI   C4A 5722   2.238   2.321   8.442  0.0767 -0.1969 -0.0340
  358loPI   C5A 5723   1.945   2.337   8.146 -0.1079  0.1827  0.0662
  358loPI   C6A 5724   1.559   2.376   7.918 -0.1810  0.0658 -0.1777
  358loPI   C1B 5725   2.664   1.445   9.554  0.3218  0.0900 -0.2090
  358loPI   C2B 5726   2.658   1.451   9.025  0.2157 -0.1936 -0.0021
  358loPI   C3B 5727   2.525   1.460   8.563  0.1616 -0.0304  0.2364
  358loPI   C4B 5728   2.636   1.489   8.175 -0.3601  0.3538 -0.1172
  359loPI    C1 5729  10.802  13.274  10.552  0.5610  0.0616 -0.0231
  359loPI    C2 5730  10.966  13.056  10.845 -0.0164 -0.0163  0.2551
  359loPI    C3 5731  10.934  13.452  10.885  0.1681  0.0082  0.1671
  359loPI   PO4 5732  10.955  13.148  10.334 -0.2215 -0.1394 -0.1441
  359loPI   GL1 5733  11.062  13.025   9.904 -0.2303  0.0069  0.0644
  359loPI   GL2 5734  10.836  12.764  10.017  0.1450  0.1393  0.2199
  359loPI   C1A 5735  10.844  13.141   9.569 -0.0808 -0.0431  0.1093
  359loPI   C2A 5736  10.872  13.126   9.120 -0.0107 -0.0549 -0.1667
  359loPI   C3A 5737  10.974  13.135   8.597  0.0414  0.0144 -0.3165
  359loPI   C4A 5738  10.912  13.147   8.190 -0.0558  0.0052  0.0636
  359loPI   C5A 5739  11.070  12.966   7.844 -0.1325  0.1950 -0.1060
  359loPI   C6A 5740  11.044  13.063   7.420  0.1174  0.1852 -0.0843
  359loPI   C1B 5741  10.816  12.685   9.567  0.1907  0.0544 -0.0240
  359loPI   C2B 5742  10.964  12.633   9.157 -0.0237 -0.2794  0.4821
  359loPI   C3B 5743  10.950  12.605   8.751 -0.0409 -0.3089  0.2454
  359loPI   C4B 5744  11.013  12.609   8.315 -0.2646 -0.0895 -0.1466
  360loPI    C1 5745   9.975  12.944  10.561  0.0539  0.0048  0.1298
  360loPI    C2 5746  10.317  13.083  10.715  0.1098  0.0325 -0.0173
  360loPI    C3 5747  10.102  12.812  10.916  0.2841 -0.0813  0.0172
  360loPI   PO4 5748   9.966  13.089  10.335  0.2239  0.1730 -0.0801
  360loPI   GL1 5749  10.059  13.245   9.998 -0.3045  0.2913 -0.1785
  360loPI   GL2 5750   9.994  13.558  10.183  0.0458  0.2086 -0.1521
  360loPI   C1A 5751  10.041  13.105   9.561 -0.0784 -0.1676  0.2525
  360loPI   C2A 5752  10.002  13.145   9.104 -0.0969 -0.2494  0.0050
  360loPI   C3A 5753   9.972  13.148   8.767 -0.1699 -0.0398  0.0957
  360loPI   C4A 5754  10.158  13.083   8.368 -0.2767  0.1151  0.0674
  360loPI   C5A 5755  10.062  13.114   8.021  0.2147  0.2466 -0.1113
  360loPI   C6A 5756  10.059  12.926   7.525  0.2116 -0.0956 -0.3678
  360loPI   C1B 5757   9.973  13.587   9.687 -0.1296 -0.0460 -0.1261
  360loPI   C2B 5758   9.878  13.617   9.274  0.0198 -0.1888 -0.0553
  360loPI   C3B 5759  10.038  13.632   8.915 -0.0191 -0.0272 -0.0062
  360loPI   C4B 5760  10.122  13.660   8.522 -0.0746 -0.2472 -0.2800
  361loPI    C1 5761   7.266   6.848  11.307 -0.0595 -0.0104  0.2475
  361loPI    C2 5762   7.082   6.516  11.432 -0.4137  0.1370  0.1298
  361loPI    C3 5763   7.093   6.840  11.667 -0.0486  0.0386  0.2540
  361loPI   PO4 5764   7.224   6.852  11.105 -0.0761 -0.0700 -0.0827
  361loPI   GL1 5765   7.206   6.709  10.726 -0.3380  0.0783  0.0584
  361loPI   GL2 5766   7.200   7.079  10.492  0.1970 -0.1963 -0.4399
  361loPI   C1A 5767   7.016   6.467  10.333 -0.0698 -0.0613  0.2871
  361loPI   C2A 5768   7.038   6.510   9.860 -0.0197  0.4092  0.0490
  361loPI   C3A 5769   7.018   6.739   9.442  0.0705  0.1071 -0.0763
  361loPI   C4A 5770   7.019   6.715   8.998  0.0850 -0.1817 -0.2339
  361loPI   C5A 5771   7.034   6.702   8.566 -0.3847  0.1799 -0.3127
  361loPI   C6A 5772   6.713   6.602   8.213  0.0979 -0.0817 -0.1587
  361loPI   C1B 5773   7.091   7.091  10.082 -0.2667  0.0509 -0.0093
  361loPI   C2B 5774   7.132   7.184   9.650  0.0156 -0.0482  0.1587
  361loPI   C3B 5775   7.082   7.210   9.204 -0.0086 -0.0294 -0.1082
  361loPI   C4B 5776   7.002   7.295   8.865  0.1175 -0.0615 -0.0762
  362loPI    C1 5777   2.310  12.685  10.672 -0.0596 -0.0875  0.0932
  362loPI    C2 5778   2.649  12.898  10.682 -0.1515  0.0749 -0.1487
  362loPI    C3 5779   2.447  12.826  11.020 -0.0242  0.2178 -0.0411
  362loPI   PO4 5780   2.279  12.759  10.429  0.1238  0.0548  0.3110
  362loPI   GL1 5781   2.125  12.930  10.032 -0.0118  0.1030  0.1528
  362loPI   GL2 5782   2.272  13.147  10.128  0.0579  0.0392  0.3534
  362loPI   C1A 5783   2.325  13.023   9.647  0.1411 -0.0853  0.0719
  362loPI   C2A 5784   2.218  12.966   9.318  0.2625 -0.1016  0.0039
  362loPI   C3A 5785   2.187  12.899   8.931 -0.1835  0.0064  0.0627
  362loPI   C4A 5786   2.209  12.877   8.440 -0.2342  0.0705 -0.1200
  362loPI   C5A 5787   2.279  12.953   7.998  0.1635 -0.0421  0.0157
  362loPI   C6A 5788   2.527  13.259   7.760  0.0302 -0.0961 -0.3385
  362loPI   C1B 5789   2.416  13.490   9.833 -0.0326  0.2287  0.1493
  362loPI   C2B 5790   2.300  13.482   9.461 -0.1334 -0.1146  0.2391
  362loPI   C3B 5791   2.294  13.387   8.968  0.0992 -0.2208 -0.1824
  362loPI   C4B 5792   2.230  13.344   8.542  0.1362 -0.1943 -0.0908
  363loPI    C1 5793   9.887   3.332  10.430 -0.2671  0.4495 -0.0896
  363loPI    C2 5794   9.593   3.236  10.683  0.0034 -0.0971  0.0325
  363loPI    C3 5795   9.970   3.261  10.815  0.0948  0.0015 -0.2409
  363loPI   PO4 5796   9.799   3.121  10.188  0.2595 -0.0953  0.4124
  363loPI   GL1 5797   9.650   3.008   9.767  0.0978 -0.0323 -0.1627
  363loPI   GL2 5798   9.301   3.166   9.779 -0.1414 -0.0951 -0.2097
  363loPI   C1A 5799   9.735   2.944   9.315  0.0224 -0.1030 -0.0864
  363loPI   C2A 5800   9.692   2.919   8.927 -0.1701 -0.4174  0.0533
  363loPI   C3A 5801   9.837   3.053   8.505  0.1696  0.4038 -0.1926
  363loPI   C4A 5802   9.763   3.042   8.107  0.1929  0.0857  0.2448
  363loPI   C5A 5803   9.748   3.130   7.717 -0.1941 -0.0119  0.0733
  363loPI   C6A 5804   9.537   2.780   7.487 -0.1580  0.3128 -0.2006
  363loPI   C1B 5805   9.192   3.161   9.348  0.0495 -0.1065 -0.1049
  363loPI   C2B 5806   9.223   3.270   9.023 -0.1412 -0.1175  0.1491
  363loPI   C3B 5807   9.335   3.266   8.581  0.4798 -0.2387  0.1928
  363loPI   C4B 5808   9.370   3.391   8.118  0.0386  0.2644  0.1546
  364loPI    C1 5809   9.619   6.872  10.528 -0.1365 -0.1050 -0.1798
  364loPI    C2 5810   9.368   6.987  10.817 -0.0153 -0.0753 -0.0853
  364loPI    C3 5811   9.659   6.725  10.898  0.1443  0.0863 -0.1312
  364loPI   PO4 5812   9.662   7.131  10.444 -0.2092  0.1381 -0.0568
  364loPI   GL1 5813   9.576   7.168  10.071  0.3228  0.2008 -0.2484
  364loPI   GL2 5814   9.313   7.101   9.845  0.0164  0.2107 -0.0437
  364loPI   C1A 5815   9.744   7.149   9.678 -0.0324 -0.1766 -0.1756
  364loPI   C2A 5816   9.887   7.136   9.256 -0.2666 -0.0823 -0.1041
  364loPI   C3A 5817   9.632   7.260   8.821 -0.2771  0.0514  0.0597
  364loPI   C4A 5818   9.595   7.272   8.378  0.3018 -0.1433  0.0050
  364loPI   C5A 5819   9.555   7.255   7.920 -0.3078 -0.0141 -0.2229
  364loPI   C6A 5820   9.504   6.818   7.744  0.0806  0.0176  0.0377
  364loPI   C1B 5821   9.369   6.941   9.448  0.2214  0.0247  0.0637
  364loPI   C2B 5822   9.281   6.981   8.990 -0.0147  0.2182 -0.4597
  364loPI   C3B 5823   9.207   7.038   8.592 -0.0353  0.0314  0.0838
  364loPI   C4B 5824   9.196   6.985   8.175  0.1288 -0.0451  0.1121
  365loPI    C1 5825  10.702  12.352  10.546  0.1506  0.0140 -0.1373
  365loPI    C2 5826  10.369  12.557  10.632  0.2097  0.0078  0.1145
  365loPI    C3 5827  10.704  12.752  10.533  0.1525  0.0164 -0.0664
  365loPI   PO4 5828  10.611  12.130  10.320 -0.0775  0.1111  0.1718
  365loPI   GL1 5829  10.438  12.026   9.934 -0.1081 -0.1588  0.0546
  365loPI   GL2 5830  10.122  12.078   9.836 -0.1593  0.1137 -0.1028
  365loPI   C1A 5831  10.342  12.209   9.401 -0.0526 -0.1266  0.2542
  365loPI   C2A 5832  10.615  12.295   9.011  0.0046 -0.2502 -0.2105
  365loPI   C3A 5833  10.435  12.295   8.633  0.3885 -0.2835 -0.0946
  365loPI   C4A 5834  10.328  12.043   8.280  0.1771  0.0079 -0.0630
  365loPI   C5A 5835  10.244  11.676   8.122 -0.2089  0.2435 -0.0631
  365loPI   C6A 5836  10.195  11.356   7.737 -0.0187 -0.3817  0.0531
  365loPI   C1B 5837   9.880  11.982   9.492 -0.1667  0.2198  0.0783
  365loPI   C2B 5838   9.964  12.019   9.105 -0.0847 -0.1862  0.2704
  365loPI   C3B 5839  10.016  12.063   8.736  0.0657  0.0613 -0.3894
  365loPI   C4B 5840   9.844  11.946   8.302  0.2928 -0.1525 -0.1241
  366loPI    C1 5841   5.887  17.173  10.378 -0.0917 -0.0562  0.2696
  366loPI    C2 5842   5.808  16.782  10.411 -0.2393 -0.0580 -0.0643
  366loPI    C3 5843   5.683  17.036  10.694 -0.1686 -0.2465  0.1389
  366loPI   PO4 5844   6.060  17.161  10.172  0.1084 -0.1552  0.0248
  366loPI   GL1 5845   6.081  17.187   9.773  0.2015 -0.0836 -0.2378
  366loPI   GL2 5846   5.992  17.391   9.673  0.0557  0.1131  0.0676
  366loPI   C1A 5847   6.315  17.214   9.328  0.2405 -0.1776 -0.1724
  366loPI   C2A 5848   6.185  17.240   8.811 -0.4763  0.0583 -0.0007
  366loPI   C3A 5849   6.307  17.195   8.461  0.0267 -0.1907 -0.0048
  366loPI   C4A 5850   6.343  17.159   8.054  0.0382  0.2606  0.0320
  366loPI   C5A 5851   6.068  16.960   7.745 -0.1330  0.2347 -0.0181
  366loPI   C6A 5852   5.830  16.624   7.601  0.1506  0.4418 -0.2375
  366loPI   C1B 5853   5.788  17.440   9.342 -0.3255  0.2497  0.2448
  366loPI   C2B 5854   5.658  17.382   8.952 -0.2881 -0.1840  0.1549
  366loPI   C3B 5855   5.608  17.357   8.554 -0.1615 -0.1315 -0.0556
  366loPI   C4B 5856   5.827  17.229   8.172  0.4417 -0.2512 -0.0437
  367loPI    C1 5857   2.434   9.873  10.798 -0.2639 -0.0267 -0.0277
  367loPI    C2 5858   2.269   9.508  10.796 -0.3851  0.0281 -0.1124
  367loPI    C3 5859   2.143   9.784  11.057  0.0300 -0.1342  0.2731
  367loPI   PO4 5860   2.359  10.031  10.615 -0.2340 -0.0970 -0.0303
  367loPI   GL1 5861   2.092  10.165  10.229 -0.1409  0.1003  0.1390
  367loPI   GL2 5862   2.119  10.493  10.092 -0.5655 -0.0018 -0.2623
  367loPI   C1A 5863   2.085   9.895   9.885 -0.1718  0.0098 -0.0139
  367loPI   C2A 5864   2.087   9.736   9.444  0.0252  0.0362  0.1036
  367loPI   C3A 5865   2.166   9.719   9.011 -0.0252  0.0502  0.1491
  367loPI   C4A 5866   2.174   9.796   8.613  0.0728 -0.3468  0.1914
  367loPI   C5A 5867   2.163   9.792   8.108 -0.2187 -0.2046 -0.0742
  367loPI   C6A 5868   2.346   9.950   7.673 -0.1856 -0.0472 -0.0580
  367loPI   C1B 5869   2.200  10.320   9.656  0.0833 -0.0035 -0.1468
  367loPI   C2B 5870   2.168  10.205   9.180 -0.1244 -0.0292  0.1887
  367loPI   C3B 5871   2.274  10.264   8.693  0.0854  0.1701 -0.3250
  367loPI   C4B 5872   2.403  10.242   8.324  0.0576  0.1128 -0.1077
  368loPI    C1 5873  17.158  17.550  10.147 -0.1576  0.2203  0.0952
  368loPI    C2 5874  17.461  17.691  10.367  0.0503  0.0396 -0.0706
  368loPI    C3 5875  17.123  17.903  10.332  0.0719  0.1414  0.2941
  368loPI   PO4 5876  17.154  17.123  10.194 -0.1223  0.1559  0.0171
  368loPI   GL1 5877  17.144  16.889   9.788  0.2068  0.0212  0.1168
  368loPI   GL2 5878  17.493  16.942   9.856  0.2115  0.0416  0.0392
  368loPI   C1A 5879  17.286  16.855   9.324  0.0749  0.1004 -0.0511
  368loPI   C2A 5880  17.390  16.839   8.842  0.2387 -0.3418  0.0471
  368loPI   C3A 5881  17.454  17.010   8.482 -0.2069 -0.0287  0.1290
  368loPI   C4A 5882  17.437  16.850   8.103  0.0026 -0.5476 -0.4491
  368loPI   C5A 5883  17.216  16.650   7.810  0.1222  0.2606  0.1130
  368loPI   C6A 5884  16.816  16.762   7.679 -0.0128  0.1917 -0.2700
  368loPI   C1B 5885  17.726  16.705   9.600 -0.0552  0.0666  0.1543
  368loPI   C2B 5886  17.695  16.645   9.127  0.0565  0.0097 -0.0208
  368loPI   C3B 5887  17.812  16.710   8.731  0.0505 -0.1656 -0.1023
  368loPI   C4B 5888  17.771  16.567   8.300 -0.1057  0.1890 -0.0536
  369loPI    C1 5889   6.984  15.208  10.295 -0.0136  0.1657 -0.0568
  369loPI    C2 5890   6.704  15.424  10.110 -0.3059  0.0499  0.2413
  369loPI    C3 5891   6.915  15.585  10.409 -0.2275  0.0578  0.1817
  369loPI   PO4 5892   7.037  15.032  10.084  0.2932 -0.0657  0.4553
  369loPI   GL1 5893   6.929  14.887   9.792  0.1429  0.0769  0.1157
  369loPI   GL2 5894   6.922  14.524   9.705  0.2320 -0.1254  0.2397
  369loPI   C1A 5895   6.762  14.908   9.398  0.0322  0.0989 -0.0768
  369loPI   C2A 5896   6.732  14.788   8.965  0.0968  0.0034  0.2528
  369loPI   C3A 5897   6.715  14.774   8.527  0.2600 -0.1739 -0.0327
  369loPI   C4A 5898   6.756  14.989   8.166  0.2168 -0.0312  0.2224
  369loPI   C5A 5899   6.633  15.340   7.984  0.3398  0.2517 -0.3975
  369loPI   C6A 5900   6.773  15.644   7.782 -0.2952 -0.0103  0.1269
  369loPI   C1B 5901   6.884  14.367   9.343 -0.0959 -0.0273  0.0750
  369loPI   C2B 5902   6.830  14.332   8.904  0.1910 -0.0280 -0.1274
  369loPI   C3B 5903   6.747  14.298   8.452 -0.2519 -0.0346 -0.1403
  369loPI   C4B 5904   6.558  14.409   8.091  0.0686  0.1371 -0.0049
  370loPI    C1 5905   7.990   8.919  10.388 -0.1321  0.0607 -0.0091
  370loPI    C2 5906   8.049   8.828  10.773 -0.0432 -0.1081 -0.0615
  370loPI    C3 5907   7.855   8.572  10.534  0.0301 -0.0692 -0.1633
  370loPI   PO4 5908   7.971   9.230  10.436 -0.1300 -0.4409 -0.1007
  370loPI   GL1 5909   8.017   9.473  10.108 -0.3853  0.1468  0.2317
  370loPI   GL2 5910   8.158   9.663  10.084 -0.0818  0.2453  0.1741
  370loPI   C1A 5911   8.021   9.364   9.698 -0.2795  0.0595  0.2515
  370loPI   C2A 5912   8.083   9.379   9.216 -0.1827  0.2829 -0.1423
  370loPI   C3A 5913   8.048   9.387   8.708 -0.0173 -0.3387 -0.0018
  370loPI   C4A 5914   8.087   9.315   8.332  0.3143 -0.2273 -0.0331
  370loPI   C5A 5915   8.252   9.102   7.990 -0.1988  0.1554 -0.0167
  370loPI   C6A 5916   8.144   8.960   7.680 -0.2229 -0.1840  0.2786
  370loPI   C1B 5917   8.187   9.920   9.750  0.2642  0.1000  0.0020
  370loPI   C2B 5918   8.131   9.811   9.384  0.1988  0.1003  0.0824
  370loPI   C3B 5919   8.144   9.817   8.885  0.0019 -0.2931 -0.0980
  370loPI   C4B 5920   8.096   9.982   8.472 -0.0049 -0.0391  0.1372
  371loPI    C1 5921   7.232  17.794  10.145  0.3450 -0.0095  0.1172
  371loPI    C2 5922   6.967  17.962  10.393 -0.0905 -0.1046 -0.2679
  371loPI    C3 5923   7.256  17.726  10.538 -0.0073  0.2634  0.1914
  371loPI   PO4 5924   7.303  17.882   9.959 -0.1378  0.1904  0.0763
  371loPI   GL1 5925   7.264  17.759   9.530 -0.3036  0.3328  0.1616
  371loPI   GL2 5926   7.470  17.752   9.275 -0.0141 -0.0352  0.2590
  371loPI   C1A 5927   7.137  17.360   9.084 -0.4016  0.0414 -0.1695
  371loPI   C2A 5928   7.149  17.415   8.643 -0.1803  0.1691  0.1776
  371loPI   C3A 5929   7.106  17.585   8.257 -0.0541  0.0743 -0.4691
  371loPI   C4A 5930   6.983  17.988   7.918  0.0540 -0.1714  0.2051
  371loPI   C5A 5931   7.222  18.346   7.824 -0.0265  0.3173 -0.0921
  371loPI   C6A 5932   7.540  18.646   7.694 -0.0140  0.1936  0.1471
  371loPI   C1B 5933   7.634  17.477   8.894  0.2603  0.2514 -0.1882
  371loPI   C2B 5934   7.587  17.523   8.481 -0.0316 -0.1036  0.2986
  371loPI   C3B 5935   7.553  17.845   8.115 -0.0892  0.2177 -0.1628
  371loPI   C4B 5936   7.680  18.218   7.815 -0.0620  0.1799 -0.0844
  372loPI    C1 5937   3.045  12.506  10.662 -0.1908 -0.0338  0.0315
  372loPI    C2 5938   2.681  12.392  10.782 -0.0199 -0.2458  0.3640
  372loPI    C3 5939   2.937  12.553  11.044  0.0309  0.1650  0.0728
  372loPI   PO4 5940   3.028  12.631  10.462 -0.2305 -0.0778 -0.0682
  372loPI   GL1 5941   3.128  12.581   9.980 -0.0647 -0.1937  0.0258
  372loPI   GL2 5942   3.293  12.898   9.878  0.1950 -0.1994  0.4812
  372loPI   C1A 5943   3.129  12.310   9.628  0.1589  0.2827  0.1070
  372loPI   C2A 5944   3.121  12.394   9.195 -0.0878 -0.1736  0.4249
  372loPI   C3A 5945   3.061  12.318   8.854 -0.1013 -0.1116 -0.2173
  372loPI   C4A 5946   3.129  12.346   8.516 -0.2497  0.0485 -0.2330
  372loPI   C5A 5947   3.064  12.306   8.138 -0.0652 -0.1337  0.2261
  372loPI   C6A 5948   3.176  12.211   7.773  0.2215 -0.1587  0.0494
  372loPI   C1B 5949   3.175  12.866   9.422  0.2791 -0.2085  0.2484
  372loPI   C2B 5950   3.046  12.837   9.071 -0.1438 -0.1660  0.2854
  372loPI   C3B 5951   3.123  12.835   8.628  0.1090  0.0566  0.0675
  372loPI   C4B 5952   3.164  12.751   8.202  0.1609  0.0001 -0.1836
  373loPI    C1 5953   0.725  13.446  10.601 -0.0835 -0.2385  0.3003
  373loPI    C2 5954   0.814  13.063  10.524 -0.0308 -0.2285  0.3109
  373loPI    C3 5955   0.767  13.186  10.902 -0.1183 -0.2399  0.3040
  373loPI   PO4 5956   0.555  13.477  10.415  0.0141  0.1942  0.0228
  373loPI   GL1 5957   0.635  13.620  10.064 -0.1879  0.2246 -0.0733
  373loPI   GL2 5958   0.280  13.502   9.945 -0.0621  0.2554 -0.0798
  373loPI   C1A 5959   1.039  13.863  10.002 -0.3609 -0.1650  0.2607
  373loPI   C2A 5960   1.344  13.916   9.658  0.1129  0.1776  0.0852
  373loPI   C3A 5961   1.372  13.852   9.225 -0.1316  0.2276 -0.0035
  373loPI   C4A 5962   1.431  13.869   8.762 -0.0345 -0.1891  0.1653
  373loPI   C5A 5963   1.343  13.935   8.442 -0.0883 -0.1935  0.5743
  373loPI   C6A 5964   1.406  14.141   8.099  0.1101  0.2023 -0.0644
  373loPI   C1B 5965   0.397  13.528   9.416 -0.0934 -0.0248 -0.0296
  373loPI   C2B 5966   0.567  13.440   8.998  0.1001  0.3262 -0.0838
  373loPI   C3B 5967   0.651  13.282   8.576 -0.1902  0.1297  0.2630
  373loPI   C4B 5968   0.673  13.525   8.251 -0.0358  0.1874  0.1885
  374loPI    C1 5969   6.282  13.806  10.635 -0.3075  0.1563 -0.0967
  374loPI    C2 5970   6.520  14.087  10.791 -0.0648 -0.0729 -0.0478
  374loPI    C3 5971   6.261  13.892  11.025 -0.2059  0.0809 -0.0741
  374loPI   PO4 5972   6.427  13.744  10.353 -0.2252 -0.3211  0.1762
  374loPI   GL1 5973   6.203  13.536  10.056 -0.2095  0.2967  0.1536
  374loPI   GL2 5974   6.387  13.421   9.857 -0.1564 -0.1003 -0.3031
  374loPI   C1A 5975   5.972  13.709   9.807 -0.0870  0.0451  0.4323
  374loPI   C2A 5976   6.061  13.823   9.295  0.0572 -0.0103  0.2287
  374loPI   C3A 5977   5.906  13.795   8.918 -0.0181 -0.1245  0.0216
  374loPI   C4A 5978   5.853  13.774   8.497 -0.2224  0.0564 -0.0965
  374loPI   C5A 5979   5.619  13.900   8.163  0.0821 -0.2207 -0.0362
  374loPI   C6A 5980   5.406  14.251   8.120 -0.1406 -0.1980 -0.0016
  374loPI   C1B 5981   6.358  13.461   9.492  0.0900  0.0833  0.0313
  374loPI   C2B 5982   6.409  13.503   9.058 -0.0163 -0.2540  0.2470
  374loPI   C3B 5983   6.270  13.596   8.637 -0.3259 -0.0616  0.1434
  374loPI   C4B 5984   6.201  13.613   8.161  0.0840  0.0059 -0.2125
  375loPI    C1 5985   4.797   3.992  10.603 -0.1513  0.1180  0.1064
  375loPI    C2 5986   4.499   3.725  10.612  0.0939 -0.1622  0.0944
  375loPI    C3 5987   4.848   3.641  10.788  0.2420  0.0707 -0.0818
  375loPI   PO4 5988   4.914   4.009  10.291  0.1625 -0.0221  0.1318
  375loPI   GL1 5989   4.741   4.282  10.011  0.2283  0.1272  0.1244
  375loPI   GL2 5990   4.487   4.404   9.934 -0.1807 -0.0738 -0.0142
  375loPI   C1A 5991   4.935   4.173   9.627 -0.1233  0.1696 -0.2612
  375loPI   C2A 5992   5.047   4.291   9.231  0.0883  0.1519 -0.1496
  375loPI   C3A 5993   5.119   4.135   8.944  0.2080  0.0915  0.0523
  375loPI   C4A 5994   5.134   4.215   8.472  0.0475  0.0407  0.2051
  375loPI   C5A 5995   5.362   4.205   8.077  0.0381  0.1104  0.1014
  375loPI   C6A 5996   5.249   4.349   7.640 -0.1342  0.1601 -0.0969
  375loPI   C1B 5997   4.484   4.406   9.492 -0.0309 -0.5121  0.1977
  375loPI   C2B 5998   4.204   4.355   9.089  0.0309  0.0129  0.0859
  375loPI   C3B 5999   4.279   4.234   8.580  0.0689 -0.0838 -0.2100
  375loPI   C4B 6000   4.212   4.358   8.154 -0.0153  0.1587  0.2114
  376loPI    C1 6001   2.350   3.652  10.554  0.4458  0.1399  0.1818
  376loPI    C2 6002   2.010   3.570  10.749  0.2625  0.1886 -0.1110
  376loPI    C3 6003   2.360   3.439  10.892  0.0704 -0.3057 -0.0762
  376loPI   PO4 6004   2.376   3.703  10.291 -0.1282  0.1769  0.1301
  376loPI   GL1 6005   2.429   3.582   9.932 -0.1868  0.1534 -0.0012
  376loPI   GL2 6006   2.562   3.855   9.806 -0.0889  0.1795  0.1810
  376loPI   C1A 6007   2.196   3.642   9.545  0.2270 -0.2940  0.1073
  376loPI   C2A 6008   2.111   3.859   9.129 -0.2200 -0.0588 -0.1667
  376loPI   C3A 6009   2.064   4.076   8.668  0.0642  0.2697  0.0440
  376loPI   C4A 6010   1.759   4.370   8.484  0.2517 -0.1617 -0.3354
  376loPI   C5A 6011   1.825   4.729   8.167  0.1786 -0.2018  0.0084
  376loPI   C6A 6012   1.541   4.899   8.010  0.1214  0.0729 -0.0395
  376loPI   C1B 6013   2.614   3.724   9.381  0.0160 -0.0990 -0.1028
  376loPI   C2B 6014   2.927   3.467   9.054 -0.0331 -0.1490  0.0725
  376loPI   C3B 6015   3.156   3.680   8.657  0.2276  0.0027  0.0784
  376loPI   C4B 6016   3.098   3.696   8.314 -0.2316 -0.2181 -0.0240
  377loPI    C1 6017   4.505  13.023  10.544  0.0645  0.3610 -0.0591
  377loPI    C2 6018   4.319  12.765  10.786  0.0612  0.2846 -0.1428
  377loPI    C3 6019   4.609  13.000  10.930 -0.0165  0.3183 -0.0397
  377loPI   PO4 6020   4.466  12.905  10.330  0.4838  0.2489  0.1266
  377loPI   GL1 6021   4.529  13.136   9.998 -0.0607  0.2661  0.1500
  377loPI   GL2 6022   4.541  13.442  10.191 -0.1821  0.2876 -0.0828
  377loPI   C1A 6023   4.493  13.090   9.613 -0.3749 -0.0278 -0.0554
  377loPI   C2A 6024   4.593  13.107   9.204 -0.2105 -0.3128 -0.0911
  377loPI   C3A 6025   4.472  13.074   8.852  0.2807  0.0557 -0.5160
  377loPI   C4A 6026   4.413  12.964   8.394  0.0299  0.1725 -0.0615
  377loPI   C5A 6027   4.369  12.845   7.891  0.1276 -0.0573  0.3575
  377loPI   C6A 6028   4.384  12.520   7.442  0.2760  0.2338 -0.0502
  377loPI   C1B 6029   4.592  13.637   9.745  0.4378  0.0338 -0.0534
  377loPI   C2B 6030   4.722  13.608   9.255 -0.0343  0.2846 -0.3294
  377loPI   C3B 6031   4.614  13.629   8.921  0.1972  0.0566  0.2477
  377loPI   C4B 6032   4.550  13.553   8.442  0.0465 -0.0931 -0.1359
  378loPI    C1 6033  13.137  11.319  10.146 -0.0969 -0.0035 -0.1692
  378loPI    C2 6034  12.840  11.057  10.198 -0.0565 -0.0276 -0.0576
  378loPI    C3 6035  13.013  11.228  10.515  0.0042  0.0365 -0.1252
  378loPI   PO4 6036  13.059  11.423   9.883 -0.0473 -0.0036  0.1369
  378loPI   GL1 6037  13.010  11.639   9.514  0.1412  0.4022 -0.1803
  378loPI   GL2 6038  13.329  11.782   9.603  0.0301 -0.4301 -0.0594
  378loPI   C1A 6039  13.114  11.491   9.083 -0.0274 -0.2936 -0.2232
  378loPI   C2A 6040  13.340  11.114   9.006 -0.2882  0.4206 -0.0598
  378loPI   C3A 6041  13.484  10.782   8.769  0.0664 -0.0276  0.2558
  378loPI   C4A 6042  13.502  10.470   8.509  0.0302 -0.1326  0.0906
  378loPI   C5A 6043  13.733  10.488   8.059  0.1178 -0.3922 -0.0378
  378loPI   C6A 6044  14.091  10.170   7.773 -0.1182  0.1514  0.2383
  378loPI   C1B 6045  13.441  11.912   9.160 -0.1337  0.1762 -0.2819
  378loPI   C2B 6046  13.475  11.618   8.800 -0.1929  0.0019  0.2228
  378loPI   C3B 6047  13.219  11.399   8.465  0.1254 -0.2871 -0.3625
  378loPI   C4B 6048  13.254  11.274   8.059 -0.2540  0.1424 -0.0746
  379loPI    C1 6049   7.518  16.846   9.833  0.1107 -0.3261 -0.1230
  379loPI    C2 6050   7.750  17.027  10.104 -0.0185  0.3264 -0.4281
  379loPI    C3 6051   7.450  16.791  10.223  0.2908  0.1255 -0.0213
  379loPI   PO4 6052   7.674  16.677   9.678 -0.1051 -0.2470 -0.3065
  379loPI   GL1 6053   7.601  16.320   9.515 -0.1896  0.1131  0.2074
  379loPI   GL2 6054   7.782  16.164   9.311 -0.1013 -0.4245  0.1595
  379loPI   C1A 6055   7.310  16.370   9.111 -0.3289  0.2000 -0.2048
  379loPI   C2A 6056   7.261  16.241   8.717 -0.3296 -0.0069  0.1228
  379loPI   C3A 6057   7.230  16.163   8.285  0.0927  0.1853  0.0379
  379loPI   C4A 6058   7.113  16.307   7.861  0.0121 -0.1530 -0.1257
  379loPI   C5A 6059   7.150  16.545   7.516  0.2265  0.1829 -0.1161
  379loPI   C6A 6060   7.491  16.901   7.481  0.1482  0.0593  0.3286
  379loPI   C1B 6061   7.761  16.038   8.959  0.1928  0.1850  0.2063
  379loPI   C2B 6062   7.657  15.857   8.551 -0.1868 -0.1804 -0.0744
  379loPI   C3B 6063   7.511  15.696   8.198  0.2025  0.2163  0.1405
  379loPI   C4B 6064   7.237  15.801   7.889 -0.1754  0.0644  0.0589
  380loPI    C1 6065   0.314   6.662  10.665  0.1973  0.1832  0.0108
  380loPI    C2 6066   0.506   6.873  10.946  0.1121  0.0910  0.1393
  380loPI    C3 6067   0.323   6.530  11.043  0.0649  0.0688 -0.0252
  380loPI   PO4 6068   0.174   6.821  10.506 -0.0850  0.2942 -0.1116
  380loPI   GL1 6069   0.146   6.812  10.123 -0.0719  0.0779 -0.0074
  380loPI   GL2 6070  -0.140   6.938  10.069  0.4863  0.1460 -0.1382
  380loPI   C1A 6071   0.235   6.561   9.857 -0.3601 -0.0854 -0.2778
  380loPI   C2A 6072   0.228   6.644   9.426  0.0122  0.2812  0.0617
  380loPI   C3A 6073   0.386   6.702   8.976  0.2268 -0.0297  0.3280
  380loPI   C4A 6074   0.268   6.673   8.514 -0.3586  0.0266 -0.0454
  380loPI   C5A 6075   0.565   6.758   8.157 -0.0709  0.6013  0.0669
  380loPI   C6A 6076   0.962   6.873   7.820 -0.1522 -0.3509 -0.0339
  380loPI   C1B 6077  -0.285   6.925   9.616 -0.0054  0.0163 -0.0032
  380loPI   C2B 6078  -0.170   6.903   9.195 -0.2253  0.0397  0.2129
  380loPI   C3B 6079  -0.225   7.023   8.829  0.4169  0.3070  0.0291
  380loPI   C4B 6080  -0.324   6.966   8.338  0.2478  0.0780 -0.2964
  381loPI    C1 6081   1.982  12.037  10.983  0.2449  0.0229  0.0894
  381loPI    C2 6082   1.770  12.312  11.181  0.0958 -0.0006 -0.0358
  381loPI    C3 6083   2.154  12.380  11.095 -0.0364  0.3326 -0.3935
  381loPI   PO4 6084   1.781  12.006  10.776 -0.0447  0.1842 -0.0379
  381loPI   GL1 6085   1.749  12.025  10.227  0.0167  0.1386 -0.0584
  381loPI   GL2 6086   1.763  11.695  10.071  0.1183  0.2052  0.1736
  381loPI   C1A 6087   1.730  12.141   9.818 -0.0739 -0.2416  0.2843
  381loPI   C2A 6088   1.739  12.101   9.361  0.1474 -0.1582 -0.2446
  381loPI   C3A 6089   1.823  12.092   8.944  0.0515 -0.0101  0.1047
  381loPI   C4A 6090   1.886  12.154   8.411 -0.3530  0.3234  0.1756
  381loPI   C5A 6091   1.858  12.043   7.959 -0.4511  0.1163  0.1566
  381loPI   C6A 6092   1.601  11.716   7.894  0.1201  0.0857  0.2168
  381loPI   C1B 6093   1.764  11.664   9.606  0.1155 -0.2790 -0.0619
  381loPI   C2B 6094   1.717  11.624   9.209  0.0039 -0.2967  0.2704
  381loPI   C3B 6095   1.858  11.550   8.776 -0.2227 -0.2770  0.3713
  381loPI   C4B 6096   1.934  11.523   8.309  0.1156  0.4646 -0.1407
  382loPI    C1 6097  11.837  13.319  10.577 -0.0279  0.1720  0.2308
  382loPI    C2 6098  11.912  13.205  10.953 -0.0621  0.0221  0.1930
  382loPI    C3 6099  12.079  13.538  10.808  0.0545  0.0107  0.2991
  382loPI   PO4 6100  11.952  13.167  10.301  0.0172 -0.1257  0.2843
  382loPI   GL1 6101  12.135  13.066   9.911  0.0610  0.2323  0.1502
  382loPI   GL2 6102  12.357  13.219   9.755  0.0062 -0.0739  0.1210
  382loPI   C1A 6103  11.916  13.119   9.480  0.0039  0.1916  0.2779
  382loPI   C2A 6104  11.910  12.971   9.044  0.1789 -0.1790  0.3079
  382loPI   C3A 6105  11.851  12.967   8.522  0.1636 -0.2631  0.0827
  382loPI   C4A 6106  12.079  12.941   8.271  0.1831  0.0275 -0.3486
  382loPI   C5A 6107  11.987  12.689   7.906 -0.1407 -0.0761  0.1020
  382loPI   C6A 6108  11.800  12.217   7.854 -0.2546 -0.3289  0.1323
  382loPI   C1B 6109  12.638  13.129   9.395 -0.0441 -0.0359 -0.2198
  382loPI   C2B 6110  12.944  13.023   9.003  0.4258 -0.0219 -0.0607
  382loPI   C3B 6111  13.066  12.934   8.520  0.1323  0.0453 -0.1082
  382loPI   C4B 6112  13.271  12.921   8.136 -0.0859  0.0084 -0.1266
  383loPI    C1 6113   6.371   8.284  10.976 -0.2229  0.1148  0.1615
  383loPI    C2 6114   6.447   8.051  11.293 -0.1862 -0.1329 -0.0257
  383loPI    C3 6115   6.696   8.350  11.200 -0.0929 -0.1816  0.0660
  383loPI   PO4 6116   6.330   8.211  10.748 -0.0774  0.2179  0.1338
  383loPI   GL1 6117   6.036   8.167  10.440 -0.1939  0.0793  0.0799
  383loPI   GL2 6118   6.273   8.310  10.241  0.0370  0.0015 -0.3110
  383loPI   C1A 6119   5.850   8.003   9.980  0.3732  0.0581 -0.1965
  383loPI   C2A 6120   5.755   8.066   9.540  0.0222 -0.0810  0.0071
  383loPI   C3A 6121   5.768   8.131   9.169 -0.0745  0.1464 -0.1314
  383loPI   C4A 6122   5.699   8.034   8.846  0.0258 -0.1710  0.3486
  383loPI   C5A 6123   5.862   8.041   8.463 -0.1190  0.0620  0.3461
  383loPI   C6A 6124   5.915   8.358   8.146 -0.4463  0.0422  0.5675
  383loPI   C1B 6125   6.233   8.391   9.781  0.0825  0.2019 -0.1454
  383loPI   C2B 6126   6.271   8.341   9.376 -0.0203  0.0612 -0.1312
  383loPI   C3B 6127   6.232   8.310   8.965  0.0204 -0.1242 -0.0325
  383loPI   C4B 6128   6.191   8.373   8.637  0.3960 -0.1240 -0.3725
  384loPI    C1 6129   6.973   5.071  10.610 -0.2065 -0.0358  0.2212
  384loPI    C2 6130   6.619   5.253  10.651  0.0344  0.5437 -0.1399
  384loPI    C3 6131   6.885   5.263  10.949 -0.2803  0.0119  0.1755
  384loPI   PO4 6132   7.132   5.215  10.495  0.3033 -0.1366  0.1238
  384loPI   GL1 6133   7.240   5.405  10.223  0.3231  0.2445 -0.4298
  384loPI   GL2 6134   6.966   5.387  10.046 -0.2891  0.3061  0.0169
  384loPI   C1A 6135   7.434   5.286   9.734  0.2033  0.3260  0.0130
  384loPI   C2A 6136   7.466   5.269   9.360  0.2381  0.0693  0.0733
  384loPI   C3A 6137   7.460   5.439   8.977  0.1769 -0.1024  0.0278
  384loPI   C4A 6138   7.436   5.316   8.542  0.1389  0.0534  0.1811
  384loPI   C5A 6139   7.325   5.043   8.198 -0.1336  0.2185  0.1348
  384loPI   C6A 6140   7.191   5.039   7.706  0.3741 -0.0525  0.0397
  384loPI   C1B 6141   6.942   5.493   9.645 -0.3554  0.1845  0.1882
  384loPI   C2B 6142   6.996   5.625   9.154 -0.0478 -0.0393  0.1444
  384loPI   C3B 6143   7.028   5.641   8.692  0.1301  0.0127  0.0111
  384loPI   C4B 6144   6.914   5.729   8.259  0.0528  0.3068  0.0665
  385loPI    C1 6145   0.963  14.291  10.377 -0.3249 -0.0239  0.0032
  385loPI    C2 6146   0.786  14.251  10.733  0.2603 -0.0905  0.2982
  385loPI    C3 6147   0.782  13.947  10.474 -0.3249  0.0203  0.1633
  385loPI   PO4 6148   0.880  14.470  10.264  0.3717  0.0728  0.0169
  385loPI   GL1 6149   0.736  14.532   9.875  0.2158  0.2304 -0.2128
  385loPI   GL2 6150   0.553  14.226   9.998  0.0009  0.2717 -0.1238
  385loPI   C1A 6151   0.533  14.472   9.524 -0.2554 -0.1254  0.0003
  385loPI   C2A 6152   0.514  14.511   8.972 -0.1849 -0.2738  0.1431
  385loPI   C3A 6153   0.495  14.375   8.634  0.0489  0.0609  0.1485
  385loPI   C4A 6154   0.451  14.480   8.160 -0.1651  0.0231  0.0409
  385loPI   C5A 6155   0.493  14.727   7.842  0.1189 -0.0636 -0.0781
  385loPI   C6A 6156   0.591  14.841   7.452  0.2614 -0.2765 -0.1751
  385loPI   C1B 6157   0.580  13.955   9.670 -0.2646  0.2919  0.2511
  385loPI   C2B 6158   0.885  13.647   9.481  0.3506 -0.0429  0.3586
  385loPI   C3B 6159   0.987  13.614   8.990 -0.0833 -0.1045  0.1708
  385loPI   C4B 6160   1.005  13.639   8.610 -0.1419 -0.0852  0.2399
  386loPI    C1 6161   8.902  15.718  10.274  0.3431  0.2820  0.5271
  386loPI    C2 6162   9.130  15.393  10.320  0.1565  0.1071  0.2544
  386loPI    C3 6163   8.857  15.486  10.597  0.1649 -0.0059  0.3015
  386loPI   PO4 6164   8.801  15.720  10.081 -0.0506 -0.0890  0.3173
  386loPI   GL1 6165   8.970  15.876   9.733  0.1904 -0.0863  0.0735
  386loPI   GL2 6166   8.708  16.001   9.494 -0.1323  0.1950 -0.0341
  386loPI   C1A 6167   9.110  15.784   9.372  0.2926  0.0243 -0.1246
  386loPI   C2A 6168   9.014  15.638   8.926  0.1194 -0.2255  0.2579
  386loPI   C3A 6169   8.992  15.555   8.536  0.1069  0.2704 -0.2246
  386loPI   C4A 6170   9.046  15.669   8.054 -0.0841 -0.4091  0.0360
  386loPI   C5A 6171   9.023  15.882   7.735 -0.1424 -0.1278  0.1578
  386loPI   C6A 6172   8.997  16.139   7.384 -0.0895  0.2501  0.2614
  386loPI   C1B 6173   8.633  15.989   9.076  0.1212  0.0007 -0.3436
  386loPI   C2B 6174   8.612  15.850   8.694 -0.0839  0.0752  0.0518
  386loPI   C3B 6175   8.591  15.878   8.274 -0.1297 -0.1319  0.0301
  386loPI   C4B 6176   8.423  15.675   7.945 -0.3949 -0.1477  0.1813
  387loPI    C1 6177  15.679  18.236  10.223 -0.3167  0.1484  0.1209
  387loPI    C2 6178  16.045  18.256  10.383 -0.0152 -0.2280 -0.4860
  387loPI    C3 6179  15.727  18.193  10.618  0.3023  0.0878  0.0482
  387loPI   PO4 6180  15.770  18.182   9.937  0.1658 -0.0073 -0.4132
  387loPI   GL1 6181  15.554  17.911   9.614 -0.3855 -0.1237  0.0060
  387loPI   GL2 6182  15.289  18.091   9.766  0.2148 -0.4343 -0.0339
  387loPI   C1A 6183  15.825  17.986   9.318 -0.1635  0.1129  0.2737
  387loPI   C2A 6184  16.111  18.118   8.956 -0.1059  0.1573  0.0570
  387loPI   C3A 6185  16.346  17.957   8.608  0.0647  0.1088  0.0905
  387loPI   C4A 6186  16.629  18.032   8.286  0.0580 -0.0074 -0.1862
  387loPI   C5A 6187  16.887  17.793   8.017 -0.0902 -0.0599 -0.1421
  387loPI   C6A 6188  16.841  17.533   7.654  0.1237 -0.0443 -0.0295
  387loPI   C1B 6189  15.301  18.217   9.351  0.0427  0.1235  0.0479
  387loPI   C2B 6190  15.456  18.403   9.035  0.1999 -0.0507  0.1493
  387loPI   C3B 6191  15.438  18.482   8.608 -0.2361 -0.0365 -0.0735
  387loPI   C4B 6192  15.115  18.460   8.335 -0.0305  0.0343 -0.0930
  388loPI    C1 6193  14.315  15.290  10.583 -0.0387 -0.1620  0.1585
  388loPI    C2 6194  14.212  15.634  10.760 -0.0031 -0.0970  0.0539
  388loPI    C3 6195  14.293  15.311  10.982  0.3925  0.0794  0.1761
  388loPI   PO4 6196  14.300  15.321  10.324 -0.1357 -0.2467 -0.5135
  388loPI   GL1 6197  14.387  15.557   9.891 -0.1731  0.3370  0.0617
  388loPI   GL2 6198  14.221  15.765   9.806 -0.3407 -0.0910 -0.0986
  388loPI   C1A 6199  14.189  15.520   9.395  0.0457  0.2676 -0.1229
  388loPI   C2A 6200  13.830  15.359   9.251 -0.1846  0.3531 -0.1129
  388loPI   C3A 6201  13.644  15.526   8.863 -0.1199 -0.3016  0.0241
  388loPI   C4A 6202  13.564  15.717   8.450  0.2526  0.3268  0.3634
  388loPI   C5A 6203  13.668  15.626   8.011  0.2593 -0.1877 -0.1020
  388loPI   C6A 6204  13.972  15.716   7.702  0.2307 -0.2038 -0.1223
  388loPI   C1B 6205  14.400  16.036   9.640 -0.0648  0.2476 -0.5508
  388loPI   C2B 6206  14.522  16.079   9.207 -0.1956 -0.3697  0.0755
  388loPI   C3B 6207  14.587  15.732   8.976  0.2948  0.0734  0.0580
  388loPI   C4B 6208  14.226  15.328   8.885 -0.3294 -0.2086 -0.1315
  389loPI    C1 6209   3.429   4.862  10.333  0.1652  0.2850  0.2047
  389loPI    C2 6210   3.147   4.717  10.577  0.2422  0.0512  0.1566
  389loPI    C3 6211   3.390   4.467  10.380 -0.0292  0.2194 -0.4143
  389loPI   PO4 6212   3.454   5.185  10.500  0.2333 -0.1665 -0.2559
  389loPI   GL1 6213   3.425   5.544  10.244  0.2019 -0.2153  0.3049
  389loPI   GL2 6214   3.448   5.823  10.166  0.3187  0.0939 -0.6918
  389loPI   C1A 6215   3.390   5.363   9.774  0.1918 -0.2608 -0.0010
  389loPI   C2A 6216   3.402   5.247   9.344  0.1535  0.0690 -0.2263
  389loPI   C3A 6217   3.360   5.264   8.897  0.1738 -0.0647 -0.1745
  389loPI   C4A 6218   3.482   5.314   8.497 -0.0626  0.3028  0.2539
  389loPI   C5A 6219   3.712   5.625   8.270  0.2410  0.0722  0.1786
  389loPI   C6A 6220   4.026   5.681   7.862 -0.1378 -0.1743  0.0116
  389loPI   C1B 6221   3.327   5.890   9.715 -0.1671 -0.0347 -0.0337
  389loPI   C2B 6222   3.385   5.744   9.252 -0.0337 -0.1286  0.0175
  389loPI   C3B 6223   3.380   5.778   8.754  0.0450  0.1862  0.3283
  389loPI   C4B 6224   3.166   5.643   8.299  0.2617  0.1847 -0.1106
  390loPI    C1 6225   2.883   4.274  10.299  0.2559 -0.0030 -0.0092
  390loPI    C2 6226   2.670   4.029  10.532 -0.0981  0.3696  0.0706
  390loPI    C3 6227   3.058   4.090  10.608 -0.0281 -0.0833  0.1066
  390loPI   PO4 6228   2.789   4.200  10.092  0.1755 -0.0873  0.1938
  390loPI   GL1 6229   2.608   4.533   9.862  0.1905 -0.0684  0.2037
  390loPI   GL2 6230   2.361   4.344   9.834  0.0640 -0.0466 -0.0786
  390loPI   C1A 6231   2.410   4.819   9.668 -0.2149 -0.2070 -0.0919
  390loPI   C2A 6232   2.440   4.883   9.218  0.2332 -0.0784  0.2646
  390loPI   C3A 6233   2.459   4.696   8.762  0.0264  0.0061  0.0806
  390loPI   C4A 6234   2.292   4.508   8.446 -0.1883  0.1183 -0.0547
  390loPI   C5A 6235   2.126   4.403   8.010 -0.0222 -0.2284  0.0005
  390loPI   C6A 6236   1.722   4.168   7.970 -0.2396 -0.0482  0.1337
  390loPI   C1B 6237   2.217   4.320   9.437  0.2718  0.0321  0.0142
  390loPI   C2B 6238   2.371   4.234   9.006 -0.1943  0.3420 -0.2548
  390loPI   C3B 6239   2.581   4.162   8.561  0.1317  0.0148  0.1771
  390loPI   C4B 6240   2.798   4.165   8.118 -0.2369 -0.0185 -0.5206
  391loPI    C1 6241   5.195   8.346  10.750 -0.2639 -0.0922  0.1296
  391loPI    C2 6242   5.183   8.540  11.099  0.0522 -0.1476  0.1740
  391loPI    C3 6243   5.070   8.157  11.080  0.0195 -0.1400  0.2123
  391loPI   PO4 6244   5.060   8.569  10.557 -0.0904  0.3667 -0.3018
  391loPI   GL1 6245   4.787   8.559  10.111 -0.1588  0.4943  0.0262
  391loPI   GL2 6246   5.107   8.721  10.112  0.0736 -0.0631 -0.1916
  391loPI   C1A 6247   4.853   8.575   9.764 -0.0351  0.1064  0.3430
  391loPI   C2A 6248   4.828   8.646   9.348  0.3591 -0.1592 -0.0739
  391loPI   C3A 6249   4.953   8.526   8.847  0.1897  0.0462  0.1869
  391loPI   C4A 6250   4.955   8.625   8.463 -0.5863 -0.2704  0.1972
  391loPI   C5A 6251   4.670   8.685   7.954  0.1630 -0.0377 -0.2902
  391loPI   C6A 6252   4.203   8.534   7.850 -0.0417 -0.1739 -0.3108
  391loPI   C1B 6253   5.268   8.893   9.764 -0.1816 -0.1352 -0.1059
  391loPI   C2B 6254   5.389   8.909   9.287  0.2454 -0.1158  0.0488
  391loPI   C3B 6255   5.321   8.848   8.881  0.1479  0.1300  0.0589
  391loPI   C4B 6256   5.344   8.926   8.360 -0.0428  0.0685  0.0490
  392loPI    C1 6257  11.677   5.392  10.552 -0.1768  0.1448  0.0509
  392loPI    C2 6258  11.333   5.275  10.721 -0.1572  0.0603  0.0326
  392loPI    C3 6259  11.682   5.180  10.892 -0.1231 -0.3521 -0.2494
  392loPI   PO4 6260  11.566   5.359  10.258 -0.2672 -0.0923 -0.0734
  392loPI   GL1 6261  11.472   5.617   9.946  0.0164  0.0866  0.5236
  392loPI   GL2 6262  11.276   5.825   9.881  0.0703  0.0332 -0.1099
  392loPI   C1A 6263  11.651   5.579   9.598 -0.1271 -0.1371  0.0710
  392loPI   C2A 6264  11.558   5.650   9.221 -0.2489 -0.0068 -0.0285
  392loPI   C3A 6265  11.580   5.619   8.782  0.0632  0.3534  0.4302
  392loPI   C4A 6266  11.426   5.637   8.359 -0.1486  0.0589 -0.1392
  392loPI   C5A 6267  11.346   5.739   7.983  0.0809 -0.0958 -0.1938
  392loPI   C6A 6268  11.026   6.087   7.907  0.0584 -0.1653  0.1578
  392loPI   C1B 6269  11.135   5.845   9.475  0.0768 -0.3959 -0.1898
  392loPI   C2B 6270  11.187   5.943   9.112  0.4468  0.0555 -0.1176
  392loPI   C3B 6271  11.131   5.906   8.767  0.3706 -0.1526  0.1237
  392loPI   C4B 6272  10.859   5.832   8.410  0.0362 -0.2677 -0.1428
  393loPI    C1 6273  11.696   0.084  10.438  0.3642 -0.1917  0.0264
  393loPI    C2 6274  11.917   0.354  10.244  0.0971 -0.0213 -0.0456
  393loPI    C3 6275  11.719   0.459  10.575  0.1717 -0.1882  0.0527
  393loPI   PO4 6276  11.546  -0.014  10.276  0.1450 -0.0763 -0.1976
  393loPI   GL1 6277  11.729  -0.105   9.866 -0.2009 -0.1017  0.4662
  393loPI   GL2 6278  11.402  -0.104   9.724  0.1844 -0.3753 -0.2218
  393loPI   C1A 6279  12.102   0.163   9.753  0.5173  0.0255 -0.3539
  393loPI   C2A 6280  12.377   0.472   9.538 -0.0915  0.1523 -0.2441
  393loPI   C3A 6281  12.570   0.845   9.197 -0.0267 -0.2251  0.0852
  393loPI   C4A 6282  12.601   1.039   8.739  0.0337 -0.1366 -0.3409
  393loPI   C5A 6283  12.967   1.066   8.487  0.3007  0.1295  0.3588
  393loPI   C6A 6284  13.122   1.177   8.099  0.1473 -0.2259 -0.2339
  393loPI   C1B 6285  11.882  -0.197   9.399  0.3357 -0.0036 -0.0992
  393loPI   C2B 6286  12.105  -0.419   9.080 -0.0317 -0.0346 -0.0864
  393loPI   C3B 6287  12.440  -0.584   8.706 -0.0553 -0.1471 -0.2374
  393loPI   C4B 6288  12.557  -0.603   8.322  0.1124 -0.0317  0.0488
  394loPI    C1 6289  11.915   8.340  10.481 -0.1794 -0.0991 -0.0597
  394loPI    C2 6290  12.090   8.621  10.256  0.0132 -0.3158 -0.1849
  394loPI    C3 6291  11.879   8.726  10.579  0.1868 -0.0356 -0.1596
  394loPI   PO4 6292  11.757   8.196  10.250  0.1323  0.0876  0.1039
  394loPI   GL1 6293  11.830   8.217   9.832  0.0693 -0.2151  0.1912
  394loPI   GL2 6294  11.918   7.902   9.648 -0.0260 -0.0582 -0.0956
  394loPI   C1A 6295  11.539   8.157   9.442 -0.2106  0.0900 -0.0592
  394loPI   C2A 6296  11.641   8.218   9.036 -0.1649 -0.2079  0.3801
  394loPI   C3A 6297  11.620   8.346   8.601 -0.2917 -0.0876 -0.3441
  394loPI   C4A 6298  11.566   8.461   8.178  0.1425 -0.0665  0.0145
  394loPI   C5A 6299  11.425   8.787   7.859 -0.1989 -0.0994  0.0295
  394loPI   C6A 6300  11.094   9.006   7.710 -0.2113  0.0315  0.0810
  394loPI   C1B 6301  11.951   7.882   9.211  0.0770  0.4302 -0.1293
  394loPI   C2B 6302  12.034   8.082   8.750  0.0672  0.1305  0.1075
  394loPI   C3B 6303  12.000   8.232   8.304 -0.0318  0.0274  0.2075
  394loPI   C4B 6304  12.235   8.222   7.979  0.0385  0.2054  0.0894
  395loPI    C1 6305  11.680  13.911  10.471  0.1258  0.0620  0.0075
  395loPI    C2 6306  12.067  13.986  10.540  0.0959  0.1969  0.0321
  395loPI    C3 6307  11.815  13.938  10.847  0.0925  0.1105  0.0161
  395loPI   PO4 6308  11.709  13.669  10.256  0.1619  0.2354  0.2123
  395loPI   GL1 6309  11.751  13.407   9.854  0.0123 -0.0808 -0.0524
  395loPI   GL2 6310  12.031  13.601   9.817  0.1042 -0.2208  0.0132
  395loPI   C1A 6311  11.654  13.571   9.463  0.1255  0.1899  0.0536
  395loPI   C2A 6312  11.732  13.573   9.077  0.1979  0.1861  0.0290
  395loPI   C3A 6313  11.938  13.457   8.712  0.4043 -0.1055 -0.2970
  395loPI   C4A 6314  12.272  13.498   8.363  0.0704  0.0910  0.1436
  395loPI   C5A 6315  12.456  13.275   7.993  0.1025  0.1402 -0.0880
  395loPI   C6A 6316  12.390  12.890   7.683  0.0889  0.2081  0.2197
  395loPI   C1B 6317  12.180  13.643   9.487  0.0955 -0.0139 -0.0111
  395loPI   C2B 6318  12.278  13.344   9.134 -0.0123 -0.1416  0.0313
  395loPI   C3B 6319  12.309  13.123   8.709 -0.0744  0.1867  0.0559
  395loPI   C4B 6320  12.629  13.168   8.419  0.1423 -0.0480 -0.1043
  396loPI    C1 6321   4.826  14.907  10.650 -0.3321  0.1470  0.0614
  396loPI    C2 6322   5.056  15.219  10.749  0.0299  0.0536 -0.4487
  396loPI    C3 6323   4.684  15.279  10.616 -0.0974  0.2300 -0.0290
  396loPI   PO4 6324   5.040  14.725  10.516  0.0087 -0.1246 -0.0337
  396loPI   GL1 6325   4.954  14.625  10.121 -0.3151  0.1130  0.0106
  396loPI   GL2 6326   4.816  14.561   9.905 -0.2130  0.0051 -0.3062
  396loPI   C1A 6327   5.123  14.932   9.668  0.1619  0.0130  0.0031
  396loPI   C2A 6328   5.059  14.881   9.161  0.1171 -0.1503  0.2838
  396loPI   C3A 6329   5.033  14.923   8.798 -0.2054 -0.0199  0.6122
  396loPI   C4A 6330   4.886  14.971   8.377  0.0905 -0.0311 -0.0115
  396loPI   C5A 6331   5.118  14.980   7.966 -0.2773  0.0542  0.1786
  396loPI   C6A 6332   5.462  14.699   7.755  0.0836 -0.4289  0.1933
  396loPI   C1B 6333   4.680  14.627   9.416 -0.1098 -0.0953  0.0192
  396loPI   C2B 6334   4.568  14.635   9.004 -0.2319  0.1804 -0.0957
  396loPI   C3B 6335   4.602  14.602   8.630 -0.0726  0.1257  0.1866
  396loPI   C4B 6336   4.512  14.611   8.186 -0.3045 -0.0200  0.2115
  397loPI    C1 6337  16.659   6.457  10.422  0.0803 -0.0730 -0.1918
  397loPI    C2 6338  16.414   6.144  10.373 -0.0735  0.0253 -0.0605
  397loPI    C3 6339  16.425   6.337  10.723  0.2206 -0.0004 -0.0529
  397loPI   PO4 6340  16.512   6.592  10.190 -0.0774 -0.1845 -0.0639
  397loPI   GL1 6341  16.533   6.496   9.699  0.1622 -0.0017  0.0698
  397loPI   GL2 6342  16.310   6.659   9.743  0.0932 -0.0051  0.3294
  397loPI   C1A 6343  16.653   6.423   9.290 -0.3214  0.0009  0.2042
  397loPI   C2A 6344  16.629   6.443   8.889  0.0788  0.1686  0.2861
  397loPI   C3A 6345  16.423   6.516   8.536 -0.5190 -0.0546  0.0959
  397loPI   C4A 6346  16.325   6.493   8.146 -0.0940 -0.0586 -0.0199
  397loPI   C5A 6347  15.953   6.324   7.933 -0.0841 -0.1585  0.1589
  397loPI   C6A 6348  15.847   5.964   7.551  0.3220  0.1805 -0.2250
  397loPI   C1B 6349  16.173   6.743   9.401  0.0060  0.2319  0.1801
  397loPI   C2B 6350  16.115   6.634   8.985  0.0351 -0.2008 -0.1540
  397loPI   C3B 6351  15.987   6.703   8.567  0.0269 -0.2124 -0.0918
  397loPI   C4B 6352  15.561   6.659   8.298  0.3212  0.0518 -0.0756
  398loPI    C1 6353  11.395   8.963  10.465 -0.2455  0.0819  0.0550
  398loPI    C2 6354  11.528   9.261  10.697 -0.0972 -0.0310  0.1170
  398loPI    C3 6355  11.266   8.996  10.842 -0.1006 -0.0285  0.1153
  398loPI   PO4 6356  11.360   9.065  10.273 -0.0822  0.2511 -0.2493
  398loPI   GL1 6357  11.224   9.140   9.932  0.3014 -0.0509 -0.2679
  398loPI   GL2 6358  11.505   9.066   9.782  0.0619  0.0179 -0.0475
  398loPI   C1A 6359  11.192   9.466   9.606 -0.0089 -0.0939  0.0993
  398loPI   C2A 6360  11.261   9.629   9.246  0.0022  0.0449 -0.0218
  398loPI   C3A 6361  11.065   9.969   9.013  0.0310  0.0095  0.0795
  398loPI   C4A 6362  10.764   9.859   8.668  0.0517  0.5304  0.1928
  398loPI   C5A 6363  10.713   9.617   8.332 -0.2622 -0.2762  0.1304
  398loPI   C6A 6364  10.799   9.285   8.028 -0.0223 -0.0789  0.0763
  398loPI   C1B 6365  11.235   9.074   9.363  0.2386 -0.0980  0.2626
  398loPI   C2B 6366  11.200   9.055   9.022 -0.1459  0.1861  0.2650
  398loPI   C3B 6367  11.317   9.048   8.569 -0.2502  0.1212  0.1066
  398loPI   C4B 6368  11.321   9.273   8.100 -0.2516 -0.3601  0.1386
  399loPI    C1 6369  15.298  10.499  10.372 -0.2240 -0.0340  0.1064
  399loPI    C2 6370  15.164  10.818  10.171  0.1610 -0.0646 -0.2114
  399loPI    C3 6371  15.557  10.768  10.227  0.0699 -0.1067  0.4793
  399loPI   PO4 6372  15.173  10.290  10.201 -0.7022  0.0830 -0.1453
  399loPI   GL1 6373  15.161  10.308   9.765 -0.1489  0.1806  0.3709
  399loPI   GL2 6374  15.465  10.100   9.642  0.0331  0.1823 -0.0270
  399loPI   C1A 6375  15.174  10.479   9.299  0.0851  0.5281  0.2309
  399loPI   C2A 6376  15.336  10.523   8.839  0.1365 -0.3771 -0.0028
  399loPI   C3A 6377  15.179  10.616   8.473  0.1204  0.2183  0.0002
  399loPI   C4A 6378  15.197  10.626   8.022 -0.1291 -0.0265  0.0481
  399loPI   C5A 6379  15.466  10.418   7.675  0.1592 -0.1572  0.0448
  399loPI   C6A 6380  15.761  10.493   7.380 -0.1266  0.0943 -0.2266
  399loPI   C1B 6381  15.287   9.991   9.203 -0.1591 -0.0510 -0.3265
  399loPI   C2B 6382  15.270  10.037   8.726  0.6031 -0.0803  0.2734
  399loPI   C3B 6383  15.295  10.016   8.268 -0.2227  0.0838  0.1623
  399loPI   C4B 6384  15.114  10.108   7.877 -0.0268 -0.0667 -0.0027
  400loPI    C1 6385  11.031  14.079  10.477  0.2291  0.1334 -0.0481
  400loPI    C2 6386  11.282  13.957  10.763  0.2515  0.1537 -0.0590
  400loPI    C3 6387  11.105  14.315  10.791 -0.0512 -0.0064  0.1271
  400loPI   PO4 6388  10.761  13.852  10.473 -0.0574  0.1763 -0.3308
  400loPI   GL1 6389  10.795  13.504  10.059 -0.0448 -0.0379  0.2141
  400loPI   GL2 6390  10.515  13.567  10.035 -0.3762 -0.2532 -0.3213
  400loPI   C1A 6391  10.916  13.683   9.658  0.1463 -0.0695  0.1350
  400loPI   C2A 6392  10.802  13.621   9.239  0.0322 -0.1888  0.2634
  400loPI   C3A 6393  11.010  13.547   8.885  0.0287  0.0829 -0.2749
  400loPI   C4A 6394  10.922  13.644   8.491  0.1820 -0.2437  0.0207
  400loPI   C5A 6395  10.947  13.653   8.116  0.1957  0.2240  0.2101
  400loPI   C6A 6396  10.825  13.868   7.786 -0.1993 -0.0027  0.3565
  400loPI   C1B 6397  10.468  13.451   9.622 -0.0099 -0.1262  0.0349
  400loPI   C2B 6398  10.392  13.454   9.270  0.3587  0.1339  0.1935
  400loPI   C3B 6399  10.477  13.412   8.846 -0.3625  0.2241 -0.1309
  400loPI   C4B 6400  10.529  13.413   8.362  0.0580 -0.0026 -0.1139
  401loPI    C1 6401  16.729   4.139  10.325  0.1854 -0.1218 -0.1366
  401loPI    C2 6402  16.942   4.364  10.578 -0.0803 -0.0307  0.0097
  401loPI    C3 6403  16.942   3.966  10.615 -0.0450 -0.0228  0.0955
  401loPI   PO4 6404  16.741   4.133  10.098  0.0960  0.1317 -0.1035
  401loPI   GL1 6405  16.520   4.077   9.748 -0.0784  0.3592 -0.0804
  401loPI   GL2 6406  16.641   4.442   9.649 -0.0257  0.1218  0.1904
  401loPI   C1A 6407  16.392   3.834   9.411 -0.0324 -0.0678 -0.4462
  401loPI   C2A 6408  16.186   3.805   9.080  0.1694 -0.0038 -0.3069
  401loPI   C3A 6409  16.301   3.909   8.672 -0.0760  0.1851 -0.2425
  401loPI   C4A 6410  16.311   3.931   8.267 -0.0688 -0.3233  0.0494
  401loPI   C5A 6411  16.359   3.839   7.820 -0.1411  0.0592 -0.0723
  401loPI   C6A 6412  16.090   3.682   7.527  0.0094  0.1143 -0.0560
  401loPI   C1B 6413  16.664   4.431   9.206  0.0700 -0.1140 -0.0860
  401loPI   C2B 6414  16.710   4.587   8.794  0.0382  0.1322 -0.3184
  401loPI   C3B 6415  16.709   4.443   8.423  0.1687  0.0643  0.1079
  401loPI   C4B 6416  16.721   4.189   8.008  0.0335  0.0876 -0.3352
  402loPI    C1 6417  12.288   1.430  10.326 -0.1968 -0.2119  0.1385
  402loPI    C2 6418  12.147   1.315  10.682  0.0441  0.0320  0.3168
  402loPI    C3 6419  12.528   1.431  10.646 -0.0355  0.2115  0.0227
  402loPI   PO4 6420  12.134   1.674  10.185  0.1622  0.0406  0.2211
  402loPI   GL1 6421  11.926   1.818   9.834 -0.4039 -0.2901 -0.2334
  402loPI   GL2 6422  11.699   2.104   9.797  0.3233 -0.3186  0.1226
  402loPI   C1A 6423  12.086   1.666   9.507 -0.1149  0.3083  0.2101
  402loPI   C2A 6424  11.903   1.604   9.116  0.0539 -0.1950  0.0925
  402loPI   C3A 6425  11.828   1.590   8.749  0.1477 -0.1399  0.3620
  402loPI   C4A 6426  11.458   1.493   8.507 -0.1265  0.0878  0.0688
  402loPI   C5A 6427  11.353   1.221   8.169 -0.2008  0.3479 -0.0641
  402loPI   C6A 6428  11.184   0.965   7.941 -0.0295 -0.1637 -0.0687
  402loPI   C1B 6429  11.768   2.053   9.359  0.0628  0.0912 -0.3587
  402loPI   C2B 6430  11.691   2.073   9.040 -0.0797 -0.0476 -0.3559
  402loPI   C3B 6431  11.721   2.097   8.650  0.1086  0.3243  0.1156
  402loPI   C4B 6432  11.816   2.017   8.288  0.1513 -0.2472 -0.1699
  403loPI    C1 6433  18.281  17.237  10.263 -0.0921  0.0595 -0.0446
  403loPI    C2 6434  18.112  16.909  10.418 -0.0137 -0.1106 -0.3111
  403loPI    C3 6435  17.960  17.075  10.087 -0.0614  0.1331 -0.1698
  403loPI   PO4 6436  18.500  17.172  10.196 -0.0520  0.1436  0.0522
  403loPI   GL1 6437  18.504  16.914   9.839  0.2226 -0.0171 -0.1256
  403loPI   GL2 6438  18.182  16.706   9.898  0.0697  0.3187 -0.2248
  403loPI   C1A 6439  18.581  17.170   9.510  0.0132 -0.3279  0.1145
  403loPI   C2A 6440  18.754  17.082   9.047  0.2966  0.0040 -0.3381
  403loPI   C3A 6441  18.777  16.925   8.663  0.0651  0.1426  0.0006
  403loPI   C4A 6442  18.808  17.098   8.250  0.0822  0.1740  0.4646
  403loPI   C5A 6443  19.217  16.985   7.986  0.0365  0.2614 -0.0206
  403loPI   C6A 6444  19.694  16.864   7.923  0.1793 -0.1505  0.1695
  403loPI   C1B 6445  18.182  16.921   9.485  0.1653  0.1113  0.3556
  403loPI   C2B 6446  18.314  16.897   9.005 -0.4479  0.0010 -0.1167
  403loPI   C3B 6447  18.295  16.774   8.566 -0.0945 -0.2082 -0.4810
  403loPI   C4B 6448  18.322  16.798   8.196  0.0174 -0.0027 -0.2713
  404loPI    C1 6449   4.327   9.573  11.027 -0.0436  0.2333  0.1444
  404loPI    C2 6450   4.257   9.917  11.220  0.2521  0.2374  0.2493
  404loPI    C3 6451   4.615   9.741  11.248  0.1068 -0.0755  0.1886
  404loPI   PO4 6452   4.286   9.542  10.785  0.0079 -0.1135  0.2070
  404loPI   GL1 6453   4.259   9.653  10.289 -0.0726  0.1639 -0.3145
  404loPI   GL2 6454   4.461   9.404  10.213 -0.1045 -0.3028 -0.1552
  404loPI   C1A 6455   3.976   9.741   9.988 -0.2280 -0.0555 -0.0076
  404loPI   C2A 6456   3.937   9.728   9.608  0.1102 -0.1139 -0.0174
  404loPI   C3A 6457   4.007   9.698   9.223  0.2722 -0.0997  0.1309
  404loPI   C4A 6458   4.021   9.577   8.792  0.3800 -0.0047  0.1463
  404loPI   C5A 6459   4.123   9.539   8.428  0.2059 -0.2296 -0.0372
  404loPI   C6A 6460   4.311   9.702   8.105 -0.0256  0.1766 -0.4016
  404loPI   C1B 6461   4.452   9.307   9.829  0.3489  0.0055  0.4330
  404loPI   C2B 6462   4.393   9.370   9.452 -0.1638  0.3459  0.0723
  404loPI   C3B 6463   4.468   9.373   8.964  0.0402 -0.0994 -0.0833
  404loPI   C4B 6464   4.568   9.339   8.550  0.4791  0.1683  0.0906
  405loPI    C1 6465  15.240  13.411  10.622  0.2259  0.1602  0.0269
  405loPI    C2 6466  15.277  13.804  10.687  0.0076  0.1490  0.2335
  405loPI    C3 6467  15.205  13.557  10.993 -0.1173 -0.0201  0.0694
  405loPI   PO4 6468  15.516  13.354  10.568  0.1477 -0.1266 -0.2551
  405loPI   GL1 6469  15.744  13.354  10.217  0.0126 -0.2982 -0.1525
  405loPI   GL2 6470  16.082  13.259  10.224 -0.0191  0.1862  0.1959
  405loPI   C1A 6471  15.613  13.409   9.790  0.1368  0.2453 -0.1931
  405loPI   C2A 6472  15.518  13.442   9.376  0.0891  0.3646  0.0386
  405loPI   C3A 6473  15.466  13.302   8.974 -0.0430  0.2868 -0.0307
  405loPI   C4A 6474  15.459  13.248   8.455 -0.3435 -0.0283  0.0023
  405loPI   C5A 6475  15.121  13.185   8.144 -0.3368  0.2033 -0.1140
  405loPI   C6A 6476  14.705  13.198   8.013  0.1522 -0.1654 -0.2127
  405loPI   C1B 6477  16.093  13.308   9.794 -0.0474 -0.0262 -0.1476
  405loPI   C2B 6478  16.074  13.144   9.391 -0.4533 -0.1828 -0.2854
  405loPI   C3B 6479  16.297  13.203   8.999 -0.1082 -0.1251  0.1254
  405loPI   C4B 6480  16.277  13.220   8.547  0.1005  0.1874  0.0906
  406loPI    C1 6481  13.744   1.483  10.081  0.1931  0.0471 -0.0836
  406loPI    C2 6482  13.883   1.126  10.195 -0.0626 -0.0400 -0.0380
  406loPI    C3 6483  13.811   1.408  10.469 -0.0431 -0.0189 -0.0545
  406loPI   PO4 6484  13.638   1.414   9.902 -0.0009 -0.1099 -0.2689
  406loPI   GL1 6485  13.529   1.315   9.445  0.0477 -0.3477 -0.0436
  406loPI   GL2 6486  13.932   1.307   9.355  0.1033 -0.0696  0.0558
  406loPI   C1A 6487  13.557   1.391   9.041 -0.1650 -0.0313  0.0789
  406loPI   C2A 6488  13.890   1.267   8.872  0.2682 -0.0088 -0.2602
  406loPI   C3A 6489  13.955   1.112   8.550  0.1499  0.4017  0.2634
  406loPI   C4A 6490  14.038   0.935   8.174  0.1573  0.0414  0.1130
  406loPI   C5A 6491  13.996   1.040   7.783 -0.0995 -0.0963  0.2043
  406loPI   C6A 6492  14.169   1.070   7.313  0.1446  0.4528 -0.1159
  406loPI   C1B 6493  13.645   0.915   9.245 -0.3847  0.0166  0.1525
  406loPI   C2B 6494  13.426   0.942   8.945 -0.1228  0.3094 -0.2046
  406loPI   C3B 6495  13.065   0.807   8.829 -0.0613  0.2093  0.2346
  406loPI   C4B 6496  12.634   0.544   8.820  0.1637 -0.0115 -0.1822
  407loPI    C1 6497  15.506   8.249  10.540  0.0221  0.0595  0.1345
  407loPI    C2 6498  15.621   8.023  10.850  0.0059  0.0150  0.1082
  407loPI    C3 6499  15.431   8.370  10.914  0.2439  0.1387  0.1550
  407loPI   PO4 6500  15.638   8.132  10.340  0.0144 -0.0532 -0.0665
  407loPI   GL1 6501  15.708   7.885  10.047  0.0643  0.2437 -0.1527
  407loPI   GL2 6502  16.045   7.852   9.943 -0.0138 -0.1579 -0.0250
  407loPI   C1A 6503  15.628   8.090   9.674  0.1375 -0.0190  0.0240
  407loPI   C2A 6504  15.629   8.061   9.238  0.0508  0.2823 -0.0199
  407loPI   C3A 6505  15.763   8.086   8.725 -0.0982  0.0172  0.0360
  407loPI   C4A 6506  15.700   7.996   8.332  0.0714  0.0150  0.0160
  407loPI   C5A 6507  15.526   7.941   7.976 -0.0077  0.2997 -0.0481
  407loPI   C6A 6508  15.366   8.199   7.672  0.2928  0.1335  0.2076
  407loPI   C1B 6509  16.104   7.925   9.433 -0.1721 -0.1627 -0.2007
  407loPI   C2B 6510  16.138   7.821   8.946 -0.0706 -0.4066  0.1884
  407loPI   C3B 6511  16.218   7.830   8.621 -0.0289  0.0196  0.2323
  407loPI   C4B 6512  16.077   7.636   8.325  0.4151  0.1936 -0.0962
  408loPI    C1 6513   5.705  14.668  10.707  0.1738 -0.1647  0.1681
  408loPI    C2 6514   5.663  14.534  11.082 -0.2277  0.0254  0.1955
  408loPI    C3 6515   5.774  14.913  11.016  0.1657 -0.0988  0.1179
  408loPI   PO4 6516   5.547  14.498  10.602  0.0453 -0.0657  0.0690
  408loPI   GL1 6517   5.413  14.473  10.215  0.1401  0.0032 -0.4038
  408loPI   GL2 6518   5.436  14.816  10.044  0.1828  0.1250 -0.2390
  408loPI   C1A 6519   5.336  14.366   9.849 -0.2117  0.1515  0.0845
  408loPI   C2A 6520   5.134  14.328   9.382  0.3761  0.0442 -0.1436
  408loPI   C3A 6521   5.000  14.372   8.873  0.2232 -0.1933  0.1234
  408loPI   C4A 6522   5.023  14.374   8.398  0.0183  0.0876  0.0573
  408loPI   C5A 6523   4.933  14.472   7.965  0.3979 -0.0681  0.1540
  408loPI   C6A 6524   4.871  14.431   7.550 -0.1840  0.2532 -0.3197
  408loPI   C1B 6525   5.491  14.676   9.512 -0.1655 -0.1094 -0.2540
  408loPI   C2B 6526   5.522  14.677   9.140 -0.1876  0.2830  0.0315
  408loPI   C3B 6527   5.442  14.630   8.722  0.1039 -0.1234 -0.4559
  408loPI   C4B 6528   5.359  14.730   8.326  0.0247 -0.1268  0.3446
  409loPI    C1 6529  10.061   6.389  10.937  0.1150 -0.0989 -0.0585
  409loPI    C2 6530  10.428   6.388  11.095 -0.0225  0.0638  0.2715
  409loPI    C3 6531  10.180   6.082  11.164  0.0040  0.0159  0.1574
  409loPI   PO4 6532  10.122   6.524  10.688 -0.2932 -0.0226  0.0605
  409loPI   GL1 6533  10.017   6.787  10.228  0.0723  0.1051  0.1529
  409loPI   GL2 6534  10.041   6.438  10.130 -0.1435 -0.2483 -0.2671
  409loPI   C1A 6535  10.180   7.007   9.884  0.1162 -0.0447 -0.2420
  409loPI   C2A 6536  10.293   6.842   9.449  0.0799 -0.0267  0.1670
  409loPI   C3A 6537  10.208   6.888   9.018  0.3258  0.1100  0.1227
  409loPI   C4A 6538  10.056   7.001   8.629 -0.2127 -0.1847 -0.3166
  409loPI   C5A 6539  10.080   6.932   8.198 -0.0485  0.0407  0.1223
  409loPI   C6A 6540  10.021   7.303   7.904  0.0437 -0.1196 -0.2014
  409loPI   C1B 6541  10.302   6.465   9.796 -0.0797 -0.1672 -0.2399
  409loPI   C2B 6542  10.270   6.351   9.309 -0.1801 -0.0549 -0.0131
  409loPI   C3B 6543  10.096   6.361   8.934  0.3741  0.1689 -0.0603
  409loPI   C4B 6544  10.105   6.417   8.437  0.1362 -0.1736  0.1429
  410loPI    C1 6545  11.589   4.483  10.371 -0.2973 -0.2988 -0.0147
  410loPI    C2 6546  11.685   4.793  10.605 -0.0483 -0.2213 -0.2141
  410loPI    C3 6547  11.496   4.476  10.759  0.0921 -0.1622  0.0860
  410loPI   PO4 6548  11.558   4.548  10.139 -0.0380  0.0860 -0.1789
  410loPI   GL1 6549  11.920   4.575   9.807  0.0922  0.0539 -0.3980
  410loPI   GL2 6550  11.688   4.342   9.718  0.3469  0.1478 -0.2111
  410loPI   C1A 6551  11.977   4.766   9.597  0.0423 -0.0869 -0.0356
  410loPI   C2A 6552  11.966   4.911   9.112 -0.1241  0.2973 -0.1149
  410loPI   C3A 6553  11.919   4.904   8.637 -0.2329  0.0664 -0.0705
  410loPI   C4A 6554  11.863   5.006   8.217  0.0875  0.0948 -0.0666
  410loPI   C5A 6555  11.972   5.054   7.776  0.0217 -0.0541 -0.0544
  410loPI   C6A 6556  12.016   5.318   7.365  0.0494  0.2656  0.0917
  410loPI   C1B 6557  11.922   4.334   9.319 -0.1254 -0.2893 -0.0198
  410loPI   C2B 6558  12.024   4.395   8.873 -0.1788 -0.1318 -0.0736
  410loPI   C3B 6559  12.027   4.441   8.379 -0.1393  0.1469 -0.3730
  410loPI   C4B 6560  12.018   4.437   8.006  0.1264 -0.3039  0.1898
  411loPI    C1 6561  16.890   8.341  10.599 -0.0063  0.0480 -0.0493
  411loPI    C2 6562  16.827   8.168  10.954  0.0153  0.0822 -0.0288
  411loPI    C3 6563  16.516   8.267  10.723  0.0030  0.0142 -0.0417
  411loPI   PO4 6564  17.045   8.212  10.523  0.1067  0.0885 -0.3073
  411loPI   GL1 6565  17.079   8.061  10.111  0.1646  0.0807 -0.3850
  411loPI   GL2 6566  17.185   7.828  10.226  0.3837  0.1995 -0.0812
  411loPI   C1A 6567  17.005   7.936   9.789  0.1388  0.0927  0.2223
  411loPI   C2A 6568  17.127   7.857   9.308  0.0467  0.0919  0.1998
  411loPI   C3A 6569  17.084   7.884   8.857  0.1364  0.0575  0.2331
  411loPI   C4A 6570  17.150   7.834   8.535  0.2684 -0.1206 -0.1443
  411loPI   C5A 6571  17.021   7.838   8.152  0.0873 -0.1575 -0.1350
  411loPI   C6A 6572  16.925   8.049   7.829  0.1705  0.1036 -0.0812
  411loPI   C1B 6573  17.452   7.634   9.877 -0.0819 -0.2036 -0.3275
  411loPI   C2B 6574  17.453   7.483   9.410  0.1503  0.1802 -0.3415
  411loPI   C3B 6575  17.539   7.624   9.004  0.1921 -0.2061 -0.0604
  411loPI   C4B 6576  17.535   7.510   8.622  0.2991  0.0241 -0.3870
  412loPI    C1 6577  12.927   4.579  10.440 -0.1770  0.0907 -0.0912
  412loPI    C2 6578  12.607   4.340  10.435 -0.0640 -0.0676  0.1138
  412loPI    C3 6579  12.879   4.304  10.726  0.1302  0.0795 -0.0472
  412loPI   PO4 6580  12.985   4.603  10.215 -0.1653 -0.0578 -0.0960
  412loPI   GL1 6581  12.781   4.641   9.811  0.0821  0.1002  0.0688
  412loPI   GL2 6582  12.440   4.556   9.805  0.0325  0.1794 -0.4336
  412loPI   C1A 6583  12.926   4.719   9.396 -0.1411  0.0093  0.2362
  412loPI   C2A 6584  12.927   4.909   9.047 -0.1742 -0.0169  0.0694
  412loPI   C3A 6585  12.849   5.016   8.531  0.1892 -0.0133 -0.0735
  412loPI   C4A 6586  12.869   4.956   8.054  0.0515 -0.2394 -0.0523
  412loPI   C5A 6587  12.869   4.552   7.855 -0.4417 -0.2232 -0.1078
  412loPI   C6A 6588  12.800   4.051   7.643 -0.0608 -0.1079 -0.0110
  412loPI   C1B 6589  12.423   4.545   9.304  0.3361 -0.1260 -0.1968
  412loPI   C2B 6590  12.426   4.617   8.900  0.3372 -0.7008  0.0882
  412loPI   C3B 6591  12.551   4.681   8.374  0.1899 -0.0718 -0.1394
  412loPI   C4B 6592  12.390   4.760   7.963  0.2896 -0.0013  0.0661
  413loPI    C1 6593   9.537  10.509  10.579 -0.0780  0.0270 -0.0424
  413loPI    C2 6594   9.856  10.346  10.757 -0.2170 -0.1844  0.0165
  413loPI    C3 6595   9.701  10.687  10.897 -0.2569 -0.2899  0.2337
  413loPI   PO4 6596   9.477  10.447  10.309 -0.0501  0.3301 -0.0779
  413loPI   GL1 6597   9.727  10.543   9.931 -0.1980 -0.0107  0.0901
  413loPI   GL2 6598   9.860  10.905  10.038  0.0813  0.2588  0.0342
  413loPI   C1A 6599   9.638  10.583   9.510  0.3172 -0.1607 -0.0718
  413loPI   C2A 6600   9.580  10.661   9.138  0.2375  0.0465  0.0173
  413loPI   C3A 6601   9.521  10.750   8.658 -0.0382 -0.1411  0.1154
  413loPI   C4A 6602   9.469  10.464   8.205 -0.0634 -0.1500  0.1758
  413loPI   C5A 6603   9.456  10.533   7.806  0.2763 -0.0557  0.0588
  413loPI   C6A 6604   9.675  10.715   7.463  0.0310  0.2261  0.0991
  413loPI   C1B 6605   9.732  11.052   9.699  0.0937 -0.1180 -0.2469
  413loPI   C2B 6606   9.662  11.157   9.310  0.2188  0.4950  0.0973
  413loPI   C3B 6607   9.517  11.258   8.949 -0.0809 -0.1442  0.1327
  413loPI   C4B 6608   9.474  11.199   8.441 -0.2263  0.0663 -0.2001
  414loPI    C1 6609  17.848  14.882  10.743 -0.0517 -0.0290 -0.0899
  414loPI    C2 6610  17.700  14.800  11.105 -0.0116  0.1126 -0.0411
  414loPI    C3 6611  18.056  14.653  10.997 -0.1019 -0.0731 -0.0885
  414loPI   PO4 6612  17.699  14.812  10.567  0.1580 -0.1441 -0.0925
  414loPI   GL1 6613  17.702  14.842  10.144  0.1993 -0.3188 -0.0117
  414loPI   GL2 6614  17.402  14.782   9.993  0.2391 -0.0750  0.0703
  414loPI   C1A 6615  17.797  14.943   9.821 -0.3882 -0.2088  0.1723
  414loPI   C2A 6616  17.970  14.813   9.441 -0.3587  0.0722  0.3255
  414loPI   C3A 6617  18.128  14.750   9.028  0.0021 -0.0970 -0.0437
  414loPI   C4A 6618  18.185  14.533   8.704  0.2108  0.0047  0.2890
  414loPI   C5A 6619  18.180  14.242   8.352 -0.1186  0.2288 -0.0577
  414loPI   C6A 6620  18.261  13.737   8.218 -0.0341 -0.0631 -0.2129
  414loPI   C1B 6621  17.516  14.529   9.654  0.2039 -0.0284 -0.3630
  414loPI   C2B 6622  17.669  14.557   9.158 -0.1159 -0.0966  0.3008
  414loPI   C3B 6623  17.661  14.647   8.690  0.0006 -0.4229  0.3075
  414loPI   C4B 6624  17.737  14.453   8.299  0.2158 -0.1656  0.2890
  415loPI    C1 6625   0.365  11.177  11.015 -0.1852 -0.1351 -0.0346
  415loPI    C2 6626   0.631  10.896  11.117 -0.1307 -0.0478  0.0651
  415loPI    C3 6627   0.468  11.129  11.399 -0.0563  0.1262 -0.0349
  415loPI   PO4 6628   0.381  11.089  10.710  0.3227  0.1258  0.2128
  415loPI   GL1 6629   0.550  11.099  10.304 -0.1586 -0.0881 -0.0127
  415loPI   GL2 6630   0.450  11.168  10.081  0.0567 -0.0717  0.0994
  415loPI   C1A 6631   0.974  11.086  10.073  0.2147  0.1181 -0.0567
  415loPI   C2A 6632   0.906  11.025   9.591 -0.1562 -0.0105  0.1624
  415loPI   C3A 6633   0.793  11.051   9.250 -0.0194  0.1326  0.0428
  415loPI   C4A 6634   0.743  11.146   8.808 -0.0645 -0.1981 -0.1004
  415loPI   C5A 6635   1.028  11.125   8.471 -0.1177 -0.0539  0.0749
  415loPI   C6A 6636   1.131  10.965   8.144  0.2322  0.0942  0.3693
  415loPI   C1B 6637   0.256  11.343   9.757  0.2467 -0.1269 -0.1589
  415loPI   C2B 6638   0.334  11.428   9.390  0.3358 -0.0744  0.0029
  415loPI   C3B 6639   0.294  11.427   8.983 -0.0873 -0.0506 -0.5530
  415loPI   C4B 6640   0.253  11.230   8.503 -0.2323 -0.3351 -0.0220
  416loPI    C1 6641  17.561   3.915  10.218 -0.2148  0.1039 -0.2099
  416loPI    C2 6642  17.305   4.212  10.299 -0.0235  0.1743  0.1582
  416loPI    C3 6643  17.400   3.946  10.583  0.3402  0.1713  0.0394
  416loPI   PO4 6644  17.552   3.921   9.956  0.0666  0.0515  0.1972
  416loPI   GL1 6645  17.697   3.987   9.709  0.1379 -0.2532  0.1678
  416loPI   GL2 6646  17.997   3.917   9.636 -0.2552  0.1878 -0.1011
  416loPI   C1A 6647  17.798   4.245   9.351  0.0179  0.1031  0.0744
  416loPI   C2A 6648  17.749   4.434   8.879  0.3130 -0.0769 -0.1516
  416loPI   C3A 6649  17.963   4.413   8.602  0.1499  0.1543  0.0257
  416loPI   C4A 6650  18.494   4.328   8.566  0.0236 -0.2042  0.4202
  416loPI   C5A 6651  18.959   4.313   8.422 -0.2636 -0.1178 -0.1318
  416loPI   C6A 6652  19.226   4.515   8.220  0.4600  0.2655  0.1802
  416loPI   C1B 6653  18.113   3.782   9.266 -0.0916  0.1307 -0.0651
  416loPI   C2B 6654  18.325   3.528   8.970  0.3843 -0.0842 -0.0465
  416loPI   C3B 6655  18.215   3.416   8.532 -0.1636  0.1550  0.1012
  416loPI   C4B 6656  18.126   3.147   8.171 -0.1594  0.1346 -0.0036
  417loPI    C1 6657   1.349  15.509  10.551  0.0219 -0.0242  0.1720
  417loPI    C2 6658   1.322  15.874  10.713 -0.1572 -0.0396  0.1793
  417loPI    C3 6659   1.540  15.591  10.893  0.0489  0.0856  0.1310
  417loPI   PO4 6660   1.432  15.606  10.222 -0.2320 -0.0471 -0.2340
  417loPI   GL1 6661   1.603  15.575   9.848  0.1044  0.4010  0.2813
  417loPI   GL2 6662   1.931  15.558   9.899  0.0150  0.1772  0.0984
  417loPI   C1A 6663   1.567  15.561   9.417 -0.3670  0.0234 -0.1908
  417loPI   C2A 6664   1.453  15.470   8.993 -0.0185  0.0271 -0.1964
  417loPI   C3A 6665   1.335  15.392   8.639 -0.0712 -0.0037 -0.0047
  417loPI   C4A 6666   1.265  15.466   8.191  0.1479  0.0246  0.5468
  417loPI   C5A 6667   1.256  15.473   7.757  0.1349 -0.2620 -0.0117
  417loPI   C6A 6668   1.489  15.569   7.474 -0.3968  0.0971 -0.1989
  417loPI   C1B 6669   2.007  15.333   9.516  0.0336  0.1008 -0.0758
  417loPI   C2B 6670   1.911  15.221   9.159 -0.0716 -0.1164 -0.0618
  417loPI   C3B 6671   1.873  15.247   8.696  0.0353 -0.1275 -0.2069
  417loPI   C4B 6672   1.698  15.240   8.222  0.1253  0.1389 -0.2828
  418loPI    C1 6673   9.041  12.105  10.636 -0.0119  0.0907  0.1860
  418loPI    C2 6674   9.382  12.266  10.503  0.0396  0.0397  0.2555
  418loPI    C3 6675   9.388  11.913  10.692 -0.0736 -0.0486  0.0966
  418loPI   PO4 6676   8.799  12.133  10.348 -0.1241 -0.1649 -0.3031
  418loPI   GL1 6677   8.684  12.182   9.987 -0.1567 -0.0933  0.1071
  418loPI   GL2 6678   8.803  11.957   9.861  0.1653  0.0052 -0.0115
  418loPI   C1A 6679   8.642  12.281   9.515 -0.0671 -0.0305 -0.2151
  418loPI   C2A 6680   8.615  12.231   9.075  0.2902  0.0671 -0.0019
  418loPI   C3A 6681   8.564  12.202   8.629  0.0298  0.2178  0.0560
  418loPI   C4A 6682   8.513  12.356   8.151 -0.3310  0.0115  0.1951
  418loPI   C5A 6683   8.232  12.373   7.775 -0.2374  0.5256  0.0236
  418loPI   C6A 6684   8.066  12.135   7.465  0.4373 -0.2221  0.0024
  418loPI   C1B 6685   8.603  11.748   9.485  0.0614  0.0521 -0.1415
  418loPI   C2B 6686   8.546  11.673   9.138  0.4192 -0.1552 -0.1095
  418loPI   C3B 6687   8.543  11.701   8.729 -0.1549 -0.2070  0.3752
  418loPI   C4B 6688   8.602  11.782   8.322 -0.1767  0.0806 -0.0564
  419loPI    C1 6689   7.571   9.870  10.513  0.1133  0.1470  0.0668
  419loPI    C2 6690   7.701   9.600  10.778  0.1342  0.1399  0.0493
  419loPI    C3 6691   7.582   9.961  10.903  0.1097  0.1239  0.0722
  419loPI   PO4 6692   7.730   9.804  10.326 -0.0094 -0.1218 -0.1549
  419loPI   GL1 6693   7.709   9.801   9.854 -0.2643  0.0941  0.1510
  419loPI   GL2 6694   7.605   9.556   9.803 -0.1162 -0.0740 -0.1520
  419loPI   C1A 6695   7.680  10.098   9.498  0.0533  0.1550  0.0887
  419loPI   C2A 6696   7.665  10.136   9.086 -0.1011  0.1014 -0.2605
  419loPI   C3A 6697   7.681  10.128   8.714 -0.1149  0.1022 -0.0915
  419loPI   C4A 6698   7.676  10.141   8.289  0.1035  0.3286  0.0345
  419loPI   C5A 6699   7.358  10.278   7.893  0.2340  0.5545  0.1310
  419loPI   C6A 6700   7.113  10.211   7.588 -0.0467 -0.2009  0.1687
  419loPI   C1B 6701   7.642   9.625   9.373  0.0367  0.0191 -0.1952
  419loPI   C2B 6702   7.595   9.659   8.931  0.2452 -0.1821 -0.2758
  419loPI   C3B 6703   7.650   9.626   8.450 -0.2796 -0.1610  0.1807
  419loPI   C4B 6704   7.785   9.735   7.990 -0.0207  0.0694 -0.0785
  420loPI    C1 6705  15.592   9.697  10.495  0.1615  0.2068 -0.0544
  420loPI    C2 6706  15.686   9.311  10.449  0.2105  0.2123 -0.0017
  420loPI    C3 6707  15.385   9.415  10.690  0.2786  0.2144  0.0828
  420loPI   PO4 6708  15.682   9.833  10.266 -0.1222 -0.3186  0.0500
  420loPI   GL1 6709  15.878   9.626   9.966  0.0873  0.0964 -0.1531
  420loPI   GL2 6710  16.113   9.368   9.939  0.1625 -0.0948 -0.1981
  420loPI   C1A 6711  16.014   9.879   9.584 -0.1622  0.2936  0.1284
  420loPI   C2A 6712  16.078   9.823   9.211  0.0478 -0.0203 -0.2699
  420loPI   C3A 6713  16.145   9.941   8.857 -0.1330  0.0453 -0.0457
  420loPI   C4A 6714  16.182  10.228   8.539  0.3694 -0.2030 -0.3104
  420loPI   C5A 6715  16.262  10.388   8.136  0.0810 -0.2686  0.1488
  420loPI   C6A 6716  16.142  10.589   7.729  0.3346  0.2059  0.2272
  420loPI   C1B 6717  16.025   9.344   9.496 -0.2240 -0.0631 -0.2763
  420loPI   C2B 6718  16.130   9.372   9.129 -0.1420 -0.4517  0.3315
  420loPI   C3B 6719  16.136   9.431   8.760 -0.0643  0.2195 -0.0952
  420loPI   C4B 6720  16.023   9.486   8.368 -0.3767 -0.0537 -0.0613
  421loPI    C1 6721  17.708  16.652  10.286 -0.0219  0.2463  0.1015
  421loPI    C2 6722  17.753  16.469  10.638 -0.0471  0.1652  0.0627
  421loPI    C3 6723  18.043  16.449  10.364 -0.0197  0.2440  0.0857
  421loPI   PO4 6724  17.496  16.544  10.205 -0.3525 -0.1774  0.0769
  421loPI   GL1 6725  17.377  16.455   9.944 -0.1075 -0.0812  0.0187
  421loPI   GL2 6726  17.625  16.269   9.794 -0.2749 -0.1987  0.0407
  421loPI   C1A 6727  17.188  16.387   9.525 -0.3665  0.1013 -0.2644
  421loPI   C2A 6728  17.255  16.396   9.087  0.1751  0.1417  0.2470
  421loPI   C3A 6729  17.391  16.414   8.657  0.0529  0.0159  0.0027
  421loPI   C4A 6730  17.350  16.357   8.195  0.0517 -0.0057  0.2262
  421loPI   C5A 6731  17.652  16.299   7.775  0.1767 -0.1555 -0.1626
  421loPI   C6A 6732  17.907  16.099   7.578  0.0634  0.0848 -0.1425
  421loPI   C1B 6733  17.734  16.222   9.352 -0.0210 -0.3227  0.1603
  421loPI   C2B 6734  17.783  16.212   8.905  0.0244  0.2680  0.0254
  421loPI   C3B 6735  17.678  16.043   8.436 -0.2886  0.0697  0.0854
  421loPI   C4B 6736  17.555  15.878   7.998  0.3682 -0.1118  0.1326
  422loPI    C1 6737   8.573   7.765  10.910 -0.0307  0.1672  0.0685
  422loPI    C2 6738   8.972   7.743  10.932 -0.0240  0.1924 -0.0288
  422loPI    C3 6739   8.747   7.565  11.210  0.0522  0.0325 -0.0682
  422loPI   PO4 6740   8.585   7.974  10.636  0.0026 -0.1790  0.1872
  422loPI   GL1 6741   8.589   8.016  10.166 -0.2859  0.1577 -0.2193
  422loPI   GL2 6742   8.908   7.998  10.134  0.0971  0.0543  0.0249
  422loPI   C1A 6743   8.497   7.842   9.719 -0.3503  0.0168  0.1232
  422loPI   C2A 6744   8.391   7.965   9.346  0.0595  0.2706 -0.2898
  422loPI   C3A 6745   8.254   8.058   8.922  0.1720  0.0714  0.0714
  422loPI   C4A 6746   8.387   8.030   8.556 -0.1767  0.0153 -0.2223
  422loPI   C5A 6747   8.461   8.037   8.111  0.1285  0.0193  0.0794
  422loPI   C6A 6748   8.093   7.968   7.799 -0.1624 -0.3463 -0.0014
  422loPI   C1B 6749   8.921   8.171   9.708 -0.0490 -0.0519 -0.1698
  422loPI   C2B 6750   8.982   8.296   9.289  0.2683 -0.1371 -0.1315
  422loPI   C3B 6751   8.923   8.212   8.851  0.0244  0.4292  0.1093
  422loPI   C4B 6752   8.749   8.303   8.373 -0.3039 -0.1943 -0.1860
  423loPI    C1 6753  12.084   2.638  10.350  0.1577 -0.2073 -0.1446
  423loPI    C2 6754  12.102   3.008  10.198 -0.0694 -0.0505  0.1960
  423loPI    C3 6755  12.425   2.772  10.189  0.0471  0.1147 -0.1185
  423loPI   PO4 6756  11.808   2.615  10.194  0.0993  0.0353  0.2329
  423loPI   GL1 6757  11.726   2.883   9.781 -0.1975  0.1428 -0.0693
  423loPI   GL2 6758  11.685   2.531   9.625  0.0139  0.1670  0.1590
  423loPI   C1A 6759  11.583   3.033   9.257 -0.2762 -0.1485 -0.0276
  423loPI   C2A 6760  11.590   3.038   8.807 -0.0431  0.0132 -0.0187
  423loPI   C3A 6761  11.597   3.084   8.316  0.0084 -0.0397 -0.0330
  423loPI   C4A 6762  11.678   3.097   7.957 -0.2495 -0.2106  0.0395
  423loPI   C5A 6763  11.714   3.077   7.584  0.2301 -0.1137  0.2839
  423loPI   C6A 6764  11.740   3.409   7.308  0.1067  0.1642 -0.2274
  423loPI   C1B 6765  11.666   2.524   9.283 -0.1201  0.2026 -0.0865
  423loPI   C2B 6766  11.590   2.533   8.919  0.1742  0.1020  0.1420
  423loPI   C3B 6767  11.602   2.556   8.511 -0.1511  0.0260  0.0876
  423loPI   C4B 6768  11.473   2.354   8.068 -0.1348 -0.2545  0.2430
  424loPI    C1 6769   7.355   5.541  10.870  0.0795 -0.1366  0.0536
  424loPI    C2 6770   7.524   5.797  11.127  0.1438 -0.2783  0.1543
  424loPI    C3 6771   7.162   5.647  11.204  0.0336 -0.0896  0.0121
  424loPI   PO4 6772   7.441   5.628  10.620  0.0493  0.0929 -0.4140
  424loPI   GL1 6773   7.675   5.612  10.164 -0.0766 -0.3315  0.4943
  424loPI   GL2 6774   7.846   5.343  10.087  0.1190  0.1314  0.1556
  424loPI   C1A 6775   7.513   5.805   9.839  0.3543  0.1167  0.0929
  424loPI   C2A 6776   7.425   5.742   9.408 -0.1338 -0.0672 -0.0628
  424loPI   C3A 6777   7.405   5.939   8.987 -0.0034 -0.2984  0.2355
  424loPI   C4A 6778   7.447   5.939   8.450  0.1978 -0.0035  0.1033
  424loPI   C5A 6779   7.353   6.007   8.010  0.1445 -0.2635 -0.3004
  424loPI   C6A 6780   6.956   5.974   7.777  0.1496 -0.4089 -0.0468
  424loPI   C1B 6781   7.937   5.576   9.682  0.2657 -0.2729 -0.2437
  424loPI   C2B 6782   7.865   5.643   9.355 -0.2497  0.2316 -0.2554
  424loPI   C3B 6783   7.939   5.604   8.966  0.0309 -0.2609  0.0695
  424loPI   C4B 6784   7.812   5.630   8.584  0.4034 -0.3202 -0.1577
  425loPI    C1 6785  16.816  18.230  10.165  0.0819 -0.3003 -0.0460
  425loPI    C2 6786  16.525  18.137  10.423  0.0238 -0.0403 -0.0152
  425loPI    C3 6787  16.874  18.279  10.558  0.0182  0.0304 -0.0743
  425loPI   PO4 6788  16.744  18.352   9.996 -0.0244 -0.0026  0.2818
  425loPI   GL1 6789  16.603  18.184   9.529 -0.2571 -0.4457 -0.1619
  425loPI   GL2 6790  16.381  18.058   9.390 -0.1343  0.0889  0.0224
  425loPI   C1A 6791  17.103  18.361   9.423 -0.0050  0.1115  0.0680
  425loPI   C2A 6792  17.448  18.639   9.232  0.4475  0.2104 -0.1368
  425loPI   C3A 6793  17.636  18.813   8.873  0.4058  0.1391 -0.0536
  425loPI   C4A 6794  17.701  18.931   8.472 -0.0028 -0.0611  0.2675
  425loPI   C5A 6795  17.736  19.135   8.114  0.0467  0.0990 -0.0074
  425loPI   C6A 6796  18.100  19.164   7.849  0.1896  0.0536 -0.0149
  425loPI   C1B 6797  16.702  18.120   9.063 -0.0436 -0.0592  0.0196
  425loPI   C2B 6798  16.858  18.286   8.675  0.0258 -0.1687  0.0130
  425loPI   C3B 6799  16.823  18.593   8.401  0.3695 -0.1004 -0.1078
  425loPI   C4B 6800  16.935  18.509   7.970 -0.2723 -0.3143 -0.3485
  426loPI    C1 6801  17.641   1.723  10.327  0.0930  0.0094  0.3838
  426loPI    C2 6802  17.242   1.692  10.315  0.1084 -0.0977  0.0344
  426loPI    C3 6803  17.441   1.592  10.647 -0.1369 -0.2649  0.1332
  426loPI   PO4 6804  17.684   1.686  10.045  0.0823 -0.3097  0.0223
  426loPI   GL1 6805  18.020   1.759   9.720 -0.0411  0.2555 -0.0677
  426loPI   GL2 6806  18.243   1.882  10.035  0.1133  0.1530  0.0620
  426loPI   C1A 6807  18.290   1.811   9.337  0.1013  0.1090 -0.1993
  426loPI   C2A 6808  18.285   1.966   8.851  0.1274 -0.0788  0.0221
  426loPI   C3A 6809  18.173   1.686   8.607  0.3587 -0.0580 -0.1771
  426loPI   C4A 6810  18.070   1.668   8.204  0.0561 -0.1529 -0.3786
  426loPI   C5A 6811  18.270   2.025   7.895  0.0598  0.0103 -0.4822
  426loPI   C6A 6812  18.620   2.296   7.941 -0.1530  0.0225  0.0094
  426loPI   C1B 6813  18.369   2.137   9.749  0.1957 -0.1639 -0.1616
  426loPI   C2B 6814  18.588   2.166   9.344 -0.3526  0.1594 -0.0040
  426loPI   C3B 6815  18.766   2.146   8.885  0.3084  0.1046  0.1184
  426loPI   C4B 6816  19.114   2.239   8.609  0.1472  0.2915  0.0425
  427loPI    C1 6817  10.326  11.596  10.578 -0.0086 -0.1455 -0.2240
  427loPI    C2 6818  10.415  11.943  10.757  0.1153 -0.1780 -0.2220
  427loPI    C3 6819  10.148  11.696  10.923  0.1576 -0.1637 -0.1320
  427loPI   PO4 6820  10.323  11.699  10.320 -0.2172  0.0209 -0.2205
  427loPI   GL1 6821  10.240  11.570   9.998 -0.2295  0.2519 -0.2788
  427loPI   GL2 6822  10.428  11.428   9.903  0.0119 -0.1976 -0.1971
  427loPI   C1A 6823  10.001  11.478   9.604 -0.1282 -0.2953  0.1663
  427loPI   C2A 6824  10.049  11.449   9.176 -0.0603 -0.0379  0.0127
  427loPI   C3A 6825   9.991  11.582   8.798 -0.2607 -0.0191 -0.0674
  427loPI   C4A 6826   9.898  11.445   8.402  0.0275  0.1189 -0.0666
  427loPI   C5A 6827   9.786  11.550   8.030  0.1814 -0.0665 -0.1318
  427loPI   C6A 6828   9.755  11.341   7.564 -0.4305 -0.0281  0.0623
  427loPI   C1B 6829  10.429  11.733   9.509 -0.1395  0.0668  0.0864
  427loPI   C2B 6830  10.483  11.754   9.049  0.1241  0.2498  0.2802
  427loPI   C3B 6831  10.577  11.804   8.656  0.0454 -0.1643 -0.3130
  427loPI   C4B 6832  10.762  11.662   8.252 -0.1466  0.0146 -0.0687
  428loPI    C1 6833  16.566  14.010  10.753  0.0856  0.0901 -0.1860
  428loPI    C2 6834  16.784  13.784  10.506 -0.0629 -0.1647 -0.0886
  428loPI    C3 6835  16.779  13.704  10.898  0.0490  0.1408 -0.0221
  428loPI   PO4 6836  16.322  14.004  10.605  0.1280  0.1303  0.2120
  428loPI   GL1 6837  16.371  13.846  10.246  0.1426  0.0614 -0.0601
  428loPI   GL2 6838  16.079  13.709  10.187  0.1038  0.2692 -0.1351
  428loPI   C1A 6839  16.251  13.786   9.779  0.0481  0.3179  0.1297
  428loPI   C2A 6840  16.261  13.633   9.342  0.1654 -0.2444 -0.1337
  428loPI   C3A 6841  16.351  13.673   8.887 -0.1685 -0.1192 -0.1170
  428loPI   C4A 6842  16.253  13.680   8.432  0.0488 -0.2357 -0.1775
  428loPI   C5A 6843  15.925  13.498   8.132 -0.0957 -0.0074 -0.0704
  428loPI   C6A 6844  15.550  13.337   7.972  0.1156 -0.1977 -0.0352
  428loPI   C1B 6845  15.751  13.904   9.880 -0.1014  0.1235 -0.1474
  428loPI   C2B 6846  15.878  13.928   9.481  0.1041  0.0287 -0.2304
  428loPI   C3B 6847  15.897  13.668   9.058 -0.3957 -0.0453  0.1418
  428loPI   C4B 6848  15.841  13.444   8.704 -0.0721  0.1938  0.0008
  429loPI    C1 6849  15.440   2.249  10.393 -0.1316 -0.0483 -0.1587
  429loPI    C2 6850  15.382   2.645  10.381 -0.2200 -0.0642 -0.2706
  429loPI    C3 6851  15.286   2.438  10.710  0.1813  0.0615 -0.0682
  429loPI   PO4 6852  15.404   2.171  10.106  0.4688 -0.2992 -0.0396
  429loPI   GL1 6853  15.210   2.185   9.650 -0.0553  0.2291 -0.0905
  429loPI   GL2 6854  15.125   1.991   9.386 -0.1477  0.0986  0.2248
  429loPI   C1A 6855  15.463   2.346   9.232 -0.0491 -0.2501 -0.0018
  429loPI   C2A 6856  15.494   2.475   8.824  0.2700  0.0695  0.2611
  429loPI   C3A 6857  15.263   2.608   8.404  0.3085  0.0646  0.1401
  429loPI   C4A 6858  15.362   2.901   8.039 -0.1986 -0.0618 -0.1212
  429loPI   C5A 6859  15.478   3.124   7.669  0.0332 -0.1850 -0.0790
  429loPI   C6A 6860  15.882   3.214   7.436 -0.2151  0.2387 -0.0025
  429loPI   C1B 6861  15.150   2.079   8.920 -0.0003  0.0661  0.0169
  429loPI   C2B 6862  15.184   2.088   8.439  0.0445  0.0914  0.2212
  429loPI   C3B 6863  15.349   2.330   8.051  0.0778 -0.0299  0.1965
  429loPI   C4B 6864  15.270   2.520   7.604 -0.1529  0.4172 -0.3007
  430loPI    C1 6865  18.530   0.307  10.222 -0.0578  0.3496 -0.1783
  430loPI    C2 6866  18.183   0.170  10.367  0.1168  0.1345  0.0444
  430loPI    C3 6867  18.328   0.521  10.493  0.2047  0.0084  0.3022
  430loPI   PO4 6868  18.505   0.158   9.937 -0.0009 -0.1055 -0.0795
  430loPI   GL1 6869  18.449   0.048   9.526 -0.2186 -0.2925 -0.0078
  430loPI   GL2 6870  18.329   0.280   9.515  0.1208 -0.0783  0.1124
  430loPI   C1A 6871  18.527  -0.017   9.130  0.0449 -0.0094 -0.1388
  430loPI   C2A 6872  18.507  -0.060   8.651 -0.1036  0.0796 -0.2709
  430loPI   C3A 6873  18.509  -0.205   8.199 -0.0891  0.0101  0.0326
  430loPI   C4A 6874  18.545  -0.205   7.796 -0.5326 -0.2250  0.2749
  430loPI   C5A 6875  18.539  -0.131   7.438 -0.0443  0.0686  0.1087
  430loPI   C6A 6876  18.946  -0.065   7.123  0.0008 -0.0093 -0.1283
  430loPI   C1B 6877  18.467   0.483   9.209 -0.3721  0.1439 -0.1610
  430loPI   C2B 6878  18.575   0.424   8.735 -0.0429  0.1987  0.0232
  430loPI   C3B 6879  18.617   0.320   8.372 -0.2404  0.3868 -0.1615
  430loPI   C4B 6880  18.996  -0.047   8.258  0.0623 -0.0132  0.1728
  431loPI    C1 6881   5.361  16.987  10.283  0.0577  0.1162  0.0860
  431loPI    C2 6882   5.207  16.958  10.651 -0.1142  0.1101  0.0145
  431loPI    C3 6883   5.256  17.317  10.483 -0.3350  0.0971 -0.0804
  431loPI   PO4 6884   5.211  16.800  10.125  0.0835  0.0003  0.3285
  431loPI   GL1 6885   4.955  16.825   9.770  0.1434  0.4292 -0.1867
  431loPI   GL2 6886   5.132  16.476   9.749  0.0689  0.0037 -0.1881
  431loPI   C1A 6887   4.796  16.686   9.411  0.0450  0.4271  0.0532
  431loPI   C2A 6888   4.794  16.583   9.070  0.1231  0.4784  0.0575
  431loPI   C3A 6889   4.904  16.655   8.812 -0.1232 -0.2191  0.3322
  431loPI   C4A 6890   4.900  16.608   8.411  0.0247  0.0511  0.1265
  431loPI   C5A 6891   5.125  16.610   8.080 -0.1631 -0.2791 -0.2189
  431loPI   C6A 6892   5.344  16.327   7.731  0.1506  0.0565  0.0716
  431loPI   C1B 6893   5.302  16.690   9.327 -0.1331 -0.2153 -0.0848
  431loPI   C2B 6894   5.486  16.695   8.920  0.3284 -0.1085  0.3679
  431loPI   C3B 6895   5.887  16.903   8.575  0.2086  0.1537 -0.0991
  431loPI   C4B 6896   6.046  16.793   8.232 -0.0611 -0.0264  0.0259
  432loPI    C1 6897  12.813   7.200  10.391  0.2246  0.1710 -0.1730
  432loPI    C2 6898  12.838   7.518  10.632  0.6580  0.0503 -0.0483
  432loPI    C3 6899  12.954   7.159  10.764  0.1464 -0.1718 -0.1777
  432loPI   PO4 6900  12.828   7.260  10.202  0.1262  0.2222 -0.2378
  432loPI   GL1 6901  12.743   7.274   9.873  0.3104  0.1720  0.2065
  432loPI   GL2 6902  12.985   7.501   9.730 -0.0822 -0.0526 -0.1742
  432loPI   C1A 6903  12.941   6.969   9.561  0.0523  0.2654  0.0287
  432loPI   C2A 6904  12.905   6.964   9.185 -0.1224 -0.0300 -0.0592
  432loPI   C3A 6905  12.832   6.949   8.694  0.1191  0.1000 -0.1484
  432loPI   C4A 6906  12.746   6.977   8.295  0.1530 -0.2224  0.2789
  432loPI   C5A 6907  12.924   7.009   7.920  0.1154  0.4177 -0.0378
  432loPI   C6A 6908  13.193   7.205   7.722 -0.0982  0.0191  0.2086
  432loPI   C1B 6909  12.852   7.474   9.235 -0.3148 -0.1548 -0.2007
  432loPI   C2B 6910  12.945   7.374   8.852 -0.0241 -0.1920 -0.1044
  432loPI   C3B 6911  12.830   7.615   8.512  0.0314  0.0814  0.1387
  432loPI   C4B 6912  12.753   7.445   8.158 -0.2681 -0.3038 -0.0232
  433loPI    C1 6913  10.689   9.357  10.589  0.0682 -0.5288  0.0488
  433loPI    C2 6914  11.087   9.373  10.556  0.0448 -0.0985 -0.0884
  433loPI    C3 6915  10.907   9.521  10.881 -0.0130 -0.1527 -0.0955
  433loPI   PO4 6916  10.557   9.137  10.486 -0.0421 -0.2038  0.2842
  433loPI   GL1 6917  10.376   9.171  10.179 -0.0180 -0.3609  0.0461
  433loPI   GL2 6918  10.248   8.775  10.141  0.0381  0.1632  0.1410
  433loPI   C1A 6919  10.210   9.325   9.853 -0.0210 -0.2301 -0.3307
  433loPI   C2A 6920   9.894   9.276   9.487  0.1614  0.2719  0.1895
  433loPI   C3A 6921   9.981   9.268   9.091 -0.3414 -0.1503  0.1177
  433loPI   C4A 6922   9.919   9.214   8.578  0.0493  0.0089 -0.0819
  433loPI   C5A 6923   9.798   9.403   8.194 -0.3906  0.0339 -0.2927
  433loPI   C6A 6924   9.743   9.601   7.851  0.0422  0.2535  0.0282
  433loPI   C1B 6925  10.381   8.896   9.695  0.1255  0.0546  0.0495
  433loPI   C2B 6926  10.309   8.947   9.282  0.0046 -0.1331 -0.5646
  433loPI   C3B 6927  10.396   9.136   8.780  0.3802 -0.0266  0.1047
  433loPI   C4B 6928  10.381   9.164   8.340 -0.1261 -0.1444  0.2311
  434loPI    C1 6929   9.321  17.329  10.449 -0.0753  0.0942 -0.2701
  434loPI    C2 6930   9.086  17.634  10.557 -0.1093 -0.0675  0.1291
  434loPI    C3 6931   9.437  17.577  10.741 -0.0288 -0.1748 -0.0554
  434loPI   PO4 6932   9.344  17.405  10.083 -0.4000  0.1880 -0.0679
  434loPI   GL1 6933   9.252  17.444   9.698 -0.1205 -0.0433 -0.3039
  434loPI   GL2 6934   9.162  17.307   9.397  0.1692 -0.3389  0.0592
  434loPI   C1A 6935   9.544  17.636   9.361  0.0725 -0.3107  0.4523
  434loPI   C2A 6936   9.905  17.544   9.066 -0.1107 -0.2185  0.1196
  434loPI   C3A 6937  10.147  17.540   8.633 -0.1673 -0.0009  0.0668
  434loPI   C4A 6938  10.275  17.476   8.203 -0.1717 -0.1999 -0.2229
  434loPI   C5A 6939  10.306  17.383   7.827  0.3039  0.1421  0.0536
  434loPI   C6A 6940  10.575  17.053   7.611 -0.0545 -0.3380 -0.2486
  434loPI   C1B 6941   9.368  17.375   8.944  0.0293  0.1786  0.1127
  434loPI   C2B 6942   9.661  17.475   8.634  0.2387  0.0500 -0.0638
  434loPI   C3B 6943   9.765  17.506   8.231 -0.3453  0.0531  0.0483
  434loPI   C4B 6944   9.618  17.464   7.787  0.1933 -0.0403  0.1219
  435loPI    C1 6945  11.729  17.567  10.391  0.0812  0.0557  0.1191
  435loPI    C2 6946  12.069  17.777  10.396  0.0266  0.1452  0.0908
  435loPI    C3 6947  12.022  17.467  10.644  0.1440  0.1082  0.0677
  435loPI   PO4 6948  11.634  17.677  10.189 -0.1138  0.0416 -0.0369
  435loPI   GL1 6949  11.867  17.855   9.864 -0.1156  0.1065 -0.1434
  435loPI   GL2 6950  11.684  17.978   9.587  0.2055 -0.0540  0.2103
  435loPI   C1A 6951  12.097  17.763   9.520  0.0646 -0.1929 -0.2972
  435loPI   C2A 6952  12.524  17.928   9.274  0.0701  0.0359  0.0803
  435loPI   C3A 6953  12.637  18.269   9.008 -0.2447  0.0499  0.1038
  435loPI   C4A 6954  12.524  18.571   8.683  0.1137  0.1127 -0.1357
  435loPI   C5A 6955  12.618  18.804   8.226  0.1728 -0.1859  0.0262
  435loPI   C6A 6956  12.918  18.792   7.942 -0.1414 -0.0215 -0.2052
  435loPI   C1B 6957  11.710  17.896   9.172 -0.2581 -0.0297 -0.2458
  435loPI   C2B 6958  11.909  18.023   8.677  0.4329 -0.0350  0.0173
  435loPI   C3B 6959  12.070  18.195   8.241 -0.0711  0.2204  0.0751
  435loPI   C4B 6960  12.332  18.128   7.939  0.0397 -0.0035  0.2048
  436loPI    C1 6961  11.217  11.458  10.755 -0.1506  0.0363 -0.0471
  436loPI    C2 6962  11.462  11.766  10.829 -0.0828 -0.0345  0.0247
  436loPI    C3 6963  11.154  11.691  11.074 -0.2275  0.1052 -0.1120
  436loPI   PO4 6964  11.240  11.452  10.441 -0.0917 -0.2873 -0.0982
  436loPI   GL1 6965  11.157  11.300   9.964  0.4169 -0.1240  0.0814
  436loPI   GL2 6966  11.235  11.208   9.613 -0.0597 -0.0624 -0.1354
  436loPI   C1A 6967  10.769  11.136   9.742 -0.2477 -0.0235  0.2241
  436loPI   C2A 6968  10.678  11.276   9.475 -0.0165 -0.1302 -0.3621
  436loPI   C3A 6969  10.509  11.229   9.087  0.3879  0.0226  0.1914
  436loPI   C4A 6970  10.423  11.333   8.652  0.1800 -0.5296 -0.1802
  436loPI   C5A 6971  10.339  11.188   8.289 -0.0502  0.1939  0.1096
  436loPI   C6A 6972  10.204  10.859   8.004 -0.0169  0.1623  0.0637
  436loPI   C1B 6973  11.045  10.939   9.364 -0.0623  0.2336  0.1001
  436loPI   C2B 6974  10.953  10.895   8.930  0.1285  0.1348  0.0701
  436loPI   C3B 6975  10.921  10.738   8.593 -0.2438 -0.2414  0.0777
  436loPI   C4B 6976  10.792  10.801   8.248  0.1919  0.0678  0.2475
  437loPI    C1 6977   8.123   1.362  10.601  0.0576  0.0901 -0.0094
  437loPI    C2 6978   8.250   1.541  10.936 -0.1289  0.0139  0.1035
  437loPI    C3 6979   7.883   1.383  10.920 -0.0271 -0.2135 -0.0502
  437loPI   PO4 6980   8.238   1.441  10.451 -0.1561 -0.2861  0.1173
  437loPI   GL1 6981   7.963   1.667  10.140  0.4750 -0.2986  0.1853
  437loPI   GL2 6982   8.207   1.464   9.963 -0.2301 -0.2110  0.0074
  437loPI   C1A 6983   7.948   1.830   9.699 -0.3682 -0.0897 -0.0858
  437loPI   C2A 6984   7.882   1.929   9.247 -0.2784 -0.3620 -0.1153
  437loPI   C3A 6985   7.754   2.050   8.806  0.1542  0.3496 -0.0826
  437loPI   C4A 6986   7.640   1.925   8.353 -0.3033  0.0861 -0.1937
  437loPI   C5A 6987   7.454   1.999   7.884 -0.0941 -0.6821 -0.1301
  437loPI   C6A 6988   7.215   2.143   7.493 -0.0152 -0.1237 -0.2206
  437loPI   C1B 6989   8.303   1.553   9.461  0.0468 -0.0958 -0.2811
  437loPI   C2B 6990   8.371   1.762   9.099 -0.3233 -0.2220  0.2841
  437loPI   C3B 6991   8.440   1.697   8.658 -0.1298 -0.0391  0.2118
  437loPI   C4B 6992   8.112   1.724   8.422 -0.0244  0.0522  0.1097
  438loPI    C1 6993  15.910  15.019  10.695  0.1162  0.1232 -0.1216
  438loPI    C2 6994  16.256  14.918  10.868  0.0143 -0.2410 -0.1235
  438loPI    C3 6995  15.970  15.097  11.083  0.0602 -0.2827 -0.0268
  438loPI   PO4 6996  16.050  15.034  10.424  0.1968 -0.1498  0.0080
  438loPI   GL1 6997  16.306  15.023  10.033  0.2787  0.0765 -0.0785
  438loPI   GL2 6998  15.966  15.168   9.920  0.0657 -0.0515 -0.2037
  438loPI   C1A 6999  16.069  14.724   9.789 -0.3577  0.3179 -0.0361
  438loPI   C2A 7000  16.184  14.701   9.273  0.2231 -0.2668  0.0467
  438loPI   C3A 7001  16.293  14.745   8.865 -0.2261 -0.0557  0.0051
  438loPI   C4A 7002  16.318  14.544   8.477  0.0439  0.0245 -0.0065
  438loPI   C5A 7003  16.080  14.325   8.150 -0.0973  0.0099 -0.1857
  438loPI   C6A 7004  15.769  14.022   7.888 -0.0809  0.0092 -0.0078
  438loPI   C1B 7005  15.957  15.211   9.432  0.1048 -0.0242  0.3412
  438loPI   C2B 7006  16.160  15.285   9.021  0.1887 -0.1816  0.1875
  438loPI   C3B 7007  16.327  15.284   8.603 -0.0726  0.0668  0.2289
  438loPI   C4B 7008  16.239  15.328   8.163  0.0491  0.0938 -0.2743
  439loPI    C1 7009   8.584   6.227  10.627 -0.1776  0.0383  0.1092
  439loPI    C2 7010   8.600   5.828  10.625  0.0242  0.0454  0.1415
  439loPI    C3 7011   8.487   6.022  10.956  0.2938  0.0260  0.2480
  439loPI   PO4 7012   8.487   6.159  10.282 -0.0512  0.0618  0.2842
  439loPI   GL1 7013   8.355   6.318   9.871  0.1873  0.2457 -0.3058
  439loPI   GL2 7014   8.607   6.542   9.802 -0.1167  0.2112 -0.1883
  439loPI   C1A 7015   8.320   6.280   9.446 -0.0034 -0.0032  0.0755
  439loPI   C2A 7016   8.408   6.390   9.085  0.3325 -0.1874 -0.0920
  439loPI   C3A 7017   8.293   6.502   8.659 -0.1426 -0.0382 -0.0565
  439loPI   C4A 7018   8.234   6.379   8.261  0.0352  0.1482  0.0479
  439loPI   C5A 7019   8.128   6.170   7.889 -0.3079  0.2830 -0.2465
  439loPI   C6A 7020   8.380   5.854   7.639 -0.1646  0.3615  0.0168
  439loPI   C1B 7021   8.375   6.813   9.538  0.0271  0.1664 -0.0971
  439loPI   C2B 7022   8.379   6.962   9.140 -0.0703 -0.1261  0.4519
  439loPI   C3B 7023   8.329   6.968   8.712 -0.2968  0.1335  0.2827
  439loPI   C4B 7024   8.358   7.046   8.241 -0.3743  0.0469  0.1840
  440loPI    C1 7025  16.842  13.259  10.585 -0.0750 -0.1498  0.2286
  440loPI    C2 7026  17.154  13.129  10.798  0.1189  0.1066  0.1072
  440loPI    C3 7027  16.782  13.035  10.911  0.2343 -0.1329  0.3005
  440loPI   PO4 7028  16.962  13.349  10.381 -0.1794 -0.3244  0.1893
  440loPI   GL1 7029  17.267  13.620  10.106  0.1986  0.3328 -0.0273
  440loPI   GL2 7030  17.275  13.913  10.322 -0.0384  0.1949  0.2033
  440loPI   C1A 7031  17.021  13.594   9.808 -0.4052  0.1205 -0.1027
  440loPI   C2A 7032  17.202  13.702   9.356 -0.0484  0.2308 -0.2124
  440loPI   C3A 7033  17.331  13.637   8.955 -0.0274  0.3760  0.0868
  440loPI   C4A 7034  17.644  13.543   8.606 -0.1179 -0.1383  0.1757
  440loPI   C5A 7035  17.855  13.470   8.262 -0.1280 -0.2274  0.3397
  440loPI   C6A 7036  17.948  13.339   7.940 -0.0107 -0.2514  0.0039
  440loPI   C1B 7037  17.393  14.113   9.897  0.1070  0.4176 -0.1407
  440loPI   C2B 7038  17.588  14.008   9.540  0.1487  0.0739 -0.2626
  440loPI   C3B 7039  17.717  14.003   9.161 -0.0795 -0.3792  0.1758
  440loPI   C4B 7040  17.763  14.016   8.862 -0.1182 -0.1399 -0.3319
  441loPI    C1 7041   1.237   6.879  11.098  0.0771 -0.1336  0.2063
  441loPI    C2 7042   1.522   6.651  10.934 -0.0308  0.0114 -0.1940
  441loPI    C3 7043   1.617   6.918  11.216  0.1775 -0.1609 -0.0985
  441loPI   PO4 7044   1.066   6.946  10.927 -0.1148  0.0617 -0.4119
  441loPI   GL1 7045   0.990   7.079  10.524  0.2024 -0.0997 -0.0579
  441loPI   GL2 7046   0.697   6.914  10.391 -0.1419  0.0589 -0.2246
  441loPI   C1A 7047   1.136   7.112  10.083  0.2569  0.0720  0.0392
  441loPI   C2A 7048   1.167   7.092   9.680 -0.1676 -0.1386  0.0633
  441loPI   C3A 7049   1.250   7.142   9.220 -0.0690 -0.2664 -0.2957
  441loPI   C4A 7050   1.327   7.228   8.814 -0.0140 -0.2440  0.2786
  441loPI   C5A 7051   1.594   7.148   8.559  0.0809 -0.1329 -0.2242
  441loPI   C6A 7052   1.835   7.139   8.185  0.0777 -0.0039  0.1740
  441loPI   C1B 7053   0.623   6.865   9.923  0.0913  0.2358 -0.3180
  441loPI   C2B 7054   0.673   6.911   9.593  0.2566  0.2092  0.1127
  441loPI   C3B 7055   0.765   6.978   9.197  0.1505  0.0186 -0.1358
  441loPI   C4B 7056   0.778   6.986   8.758  0.2509  0.1161 -0.1375
  442loPI    C1 7057   4.630  17.474  10.444 -0.0830 -0.0135 -0.1154
  442loPI    C2 7058   4.727  17.775  10.690 -0.2580 -0.0970  0.0586
  442loPI    C3 7059   4.894  17.414  10.738 -0.1288 -0.0572 -0.0830
  442loPI   PO4 7060   4.516  17.513  10.178 -0.2185 -0.0664 -0.1097
  442loPI   GL1 7061   4.337  17.746   9.908  0.1921 -0.0810  0.2958
  442loPI   GL2 7062   4.460  17.999   9.716 -0.2734 -0.1582  0.1689
  442loPI   C1A 7063   4.290  17.519   9.513  0.0529 -0.0013 -0.2193
  442loPI   C2A 7064   4.301  17.585   9.088  0.2765  0.0483  0.0406
  442loPI   C3A 7065   4.462  17.512   8.685  0.2691 -0.2904 -0.0784
  442loPI   C4A 7066   4.588  17.638   8.379 -0.0486 -0.1416 -0.1147
  442loPI   C5A 7067   4.566  18.092   8.282 -0.5897 -0.3572 -0.2424
  442loPI   C6A 7068   4.179  18.303   8.308 -0.3523  0.1045 -0.0626
  442loPI   C1B 7069   4.594  17.912   9.315  0.0656  0.1621  0.0325
  442loPI   C2B 7070   4.520  18.043   8.841  0.0263  0.1669 -0.0672
  442loPI   C3B 7071   4.382  18.382   8.806 -0.2844  0.0106  0.0666
  442loPI   C4B 7072   4.357  18.757   9.074 -0.1973  0.2052  0.2942
  443loPI    C1 7073   2.319   6.296  10.774  0.0294 -0.0600 -0.1184
  443loPI    C2 7074   2.044   6.038  10.639 -0.0517  0.0326 -0.1313
  443loPI    C3 7075   1.951   6.294  10.932  0.0735 -0.0538 -0.0153
  443loPI   PO4 7076   2.459   6.319  10.535  0.1380 -0.2678  0.1338
  443loPI   GL1 7077   2.672   6.236  10.135  0.1738 -0.0151 -0.0572
  443loPI   GL2 7078   2.901   6.134  10.003 -0.1978  0.2310  0.1189
  443loPI   C1A 7079   2.524   6.438   9.711 -0.0449 -0.0701  0.0667
  443loPI   C2A 7080   2.499   6.394   9.375 -0.0453  0.1593  0.0615
  443loPI   C3A 7081   2.580   6.354   8.946 -0.1649  0.4281 -0.1741
  443loPI   C4A 7082   2.487   6.407   8.486  0.0868 -0.1841 -0.0186
  443loPI   C5A 7083   2.080   6.401   8.251 -0.2623  0.1210  0.2602
  443loPI   C6A 7084   1.645   6.573   8.383  0.2197  0.0328  0.2344
  443loPI   C1B 7085   2.913   6.169   9.583 -0.3064  0.1108 -0.1341
  443loPI   C2B 7086   2.940   6.099   9.192  0.1982 -0.0351 -0.0039
  443loPI   C3B 7087   2.953   6.045   8.697 -0.1597  0.0033  0.0098
  443loPI   C4B 7088   2.996   6.319   8.317  0.0415 -0.0162 -0.1658
  444loPI    C1 7089  14.194  14.787  10.450 -0.0139  0.0749 -0.1051
  444loPI    C2 7090  13.897  14.533  10.536  0.0411  0.0476  0.0059
  444loPI    C3 7091  14.274  14.437  10.627  0.0716  0.1319 -0.0305
  444loPI   PO4 7092  14.183  14.854  10.192 -0.1381 -0.1249 -0.2137
  444loPI   GL1 7093  14.423  15.076   9.887 -0.0852 -0.0234 -0.2023
  444loPI   GL2 7094  14.789  15.189   9.892  0.2210  0.0322  0.0086
  444loPI   C1A 7095  14.563  15.250   9.485 -0.0949 -0.0412  0.0705
  444loPI   C2A 7096  14.693  15.103   9.046  0.3537  0.1697 -0.0756
  444loPI   C3A 7097  14.675  15.235   8.622  0.1774 -0.0761 -0.2178
  444loPI   C4A 7098  14.762  15.146   8.196 -0.1038 -0.2864  0.2889
  444loPI   C5A 7099  14.800  14.977   7.757  0.0031 -0.0423 -0.0349
  444loPI   C6A 7100  14.827  14.504   7.621 -0.0708  0.2103 -0.1551
  444loPI   C1B 7101  15.017  15.088   9.477 -0.0064  0.2113 -0.2139
  444loPI   C2B 7102  15.149  14.984   9.076  0.0694  0.2262 -0.0643
  444loPI   C3B 7103  15.296  14.932   8.675  0.0784  0.2630 -0.0317
  444loPI   C4B 7104  15.161  14.742   8.296  0.1932  0.1046  0.2225
  445loPI    C1 7105  15.602  17.277  10.309  0.1194 -0.0044 -0.1546
  445loPI    C2 7106  15.363  16.958  10.338  0.1682 -0.0576 -0.3235
  445loPI    C3 7107  15.630  17.035  10.626 -0.1135  0.0554 -0.0861
  445loPI   PO4 7108  15.663  17.245  10.083 -0.1460 -0.1549  0.0063
  445loPI   GL1 7109  15.643  17.408   9.696  0.3634 -0.2808  0.0995
  445loPI   GL2 7110  15.406  17.230   9.586  0.0190 -0.2276  0.1404
  445loPI   C1A 7111  15.693  17.460   9.223  0.0777 -0.0824  0.1149
  445loPI   C2A 7112  15.563  17.426   8.736  0.1379 -0.0649  0.1328
  445loPI   C3A 7113  15.280  17.562   8.428  0.0037 -0.1222  0.0032
  445loPI   C4A 7114  15.082  17.542   8.020  0.1512  0.1572 -0.0814
  445loPI   C5A 7115  14.887  17.209   7.837 -0.3201 -0.3503  0.3652
  445loPI   C6A 7116  14.987  16.764   7.564 -0.2387 -0.0661 -0.2909
  445loPI   C1B 7117  15.241  17.306   9.099  0.1054  0.2482 -0.0362
  445loPI   C2B 7118  15.041  17.182   8.642  0.1004  0.2815  0.3035
  445loPI   C3B 7119  15.244  17.054   8.266  0.0416  0.0108  0.0622
  445loPI   C4B 7120  15.313  16.986   7.857  0.1995 -0.2140 -0.1138
  446loPI    C1 7121  12.191   3.897  10.439 -0.1466  0.2346 -0.0553
  446loPI    C2 7122  12.291   3.599  10.685 -0.1248  0.2147 -0.0882
  446loPI    C3 7123  12.338   3.979  10.802 -0.0754  0.2054 -0.0774
  446loPI   PO4 7124  12.252   3.818  10.115 -0.0898  0.1825  0.4912
  446loPI   GL1 7125  12.453   3.677   9.787 -0.0356  0.1358 -0.0942
  446loPI   GL2 7126  12.774   3.776   9.611 -0.3199  0.0347 -0.3143
  446loPI   C1A 7127  12.395   3.598   9.352  0.1217 -0.2333 -0.1930
  446loPI   C2A 7128  12.442   3.533   8.935  0.1989  0.0378  0.1819
  446loPI   C3A 7129  12.453   3.637   8.571 -0.2545  0.2828 -0.1557
  446loPI   C4A 7130  12.572   3.607   8.178 -0.1005 -0.0675  0.2214
  446loPI   C5A 7131  12.902   3.654   7.977 -0.5045  0.2376 -0.1912
  446loPI   C6A 7132  13.217   3.480   7.748  0.1422 -0.1761 -0.0580
  446loPI   C1B 7133  12.832   3.807   9.104 -0.0214  0.0406  0.1978
  446loPI   C2B 7134  12.880   3.867   8.730 -0.0420  0.3444 -0.1200
  446loPI   C3B 7135  13.154   3.731   8.370  0.0312 -0.1736  0.2059
  446loPI   C4B 7136  13.509   3.806   8.126  0.1879  0.0411  0.1097
  447loPI    C1 7137  11.134   0.875  10.240  0.0497  0.1450 -0.0554
  447loPI    C2 7138  10.953   1.100  10.517 -0.0414  0.2621 -0.2085
  447loPI    C3 7139  11.231   0.834  10.626 -0.0256  0.3571 -0.0125
  447loPI   PO4 7140  11.257   1.051  10.057 -0.0328  0.3171  0.1976
  447loPI   GL1 7141  11.293   1.208   9.648  0.0489  0.0715 -0.2837
  447loPI   GL2 7142  11.078   1.424   9.751 -0.0359  0.0850 -0.1689
  447loPI   C1A 7143  11.137   1.152   9.324 -0.0628 -0.2295 -0.3609
  447loPI   C2A 7144  11.190   1.262   8.822  0.1489  0.2335 -0.1244
  447loPI   C3A 7145  10.968   1.060   8.409 -0.1192 -0.2059 -0.2933
  447loPI   C4A 7146  10.668   0.823   8.043  0.0824  0.0632  0.2609
  447loPI   C5A 7147  10.752   1.104   7.720 -0.2893 -0.1084 -0.0043
  447loPI   C6A 7148  10.873   1.369   7.408 -0.0835  0.3205  0.0719
  447loPI   C1B 7149  10.872   1.648   9.454 -0.0123 -0.1918 -0.4035
  447loPI   C2B 7150  10.774   1.564   9.139 -0.0819 -0.0634  0.2142
  447loPI   C3B 7151  10.680   1.442   8.756  0.0517  0.0900 -0.0343
  447loPI   C4B 7152  10.716   1.441   8.290  0.2287  0.2571 -0.1677
  448loPI    C1 7153  10.686   7.389  10.658  0.0567  0.0182 -0.1133
  448loPI    C2 7154  10.667   6.996  10.727  0.1634  0.0330  0.0038
  448loPI    C3 7155  10.889   7.230  10.963  0.1166  0.1610 -0.0778
  448loPI   PO4 7156  10.420   7.435  10.537 -0.0509  0.2640  0.1032
  448loPI   GL1 7157  10.615   7.453  10.136  0.3297  0.2011  0.0390
  448loPI   GL2 7158  10.665   7.143  10.191  0.0812  0.3642 -0.0049
  448loPI   C1A 7159  10.601   7.649   9.713  0.0883 -0.0711  0.2295
  448loPI   C2A 7160  10.715   7.711   9.351  0.0681 -0.2588 -0.1319
  448loPI   C3A 7161  10.735   7.787   8.970 -0.0748  0.0024  0.1961
  448loPI   C4A 7162  10.930   7.771   8.562 -0.0994 -0.1594  0.0234
  448loPI   C5A 7163  10.942   7.817   8.114 -0.2968  0.1946  0.1913
  448loPI   C6A 7164  11.272   8.069   7.869  0.0043  0.0265  0.0631
  448loPI   C1B 7165  10.605   7.152   9.735 -0.2395 -0.1149  0.1459
  448loPI   C2B 7166  10.747   7.067   9.370  0.2062 -0.0603 -0.0407
  448loPI   C3B 7167  10.671   7.161   8.927  0.0414  0.0222  0.2552
  448loPI   C4B 7168  10.706   7.301   8.443  0.1841 -0.2558 -0.2143
  449loPI    C1 7169   3.501   6.050  11.175  0.0301 -0.1971 -0.0237
  449loPI    C2 7170   3.614   5.987  11.554 -0.0783 -0.0373  0.0362
  449loPI    C3 7171   3.258   5.855  11.426 -0.1092  0.0471  0.0344
  449loPI   PO4 7172   3.535   6.313  11.096 -0.1242 -0.1926 -0.2674
  449loPI   GL1 7173   3.495   6.438  10.668 -0.1004 -0.1072 -0.1040
  449loPI   GL2 7174   3.474   6.136  10.465 -0.0979  0.6990 -0.0949
  449loPI   C1A 7175   3.711   6.491  10.230  0.0722  0.0629 -0.0619
  449loPI   C2A 7176   3.857   6.616   9.787  0.1265  0.2352 -0.2011
  449loPI   C3A 7177   3.877   6.613   9.353 -0.2815 -0.1747  0.1462
  449loPI   C4A 7178   3.917   6.575   8.965 -0.3737  0.1469  0.1254
  449loPI   C5A 7179   3.800   6.519   8.606  0.0192  0.1175 -0.0584
  449loPI   C6A 7180   3.542   6.355   8.224 -0.1403 -0.1771 -0.2211
  449loPI   C1B 7181   3.332   6.285  10.014 -0.0777  0.0217  0.1439
  449loPI   C2B 7182   3.371   6.403   9.573 -0.1261 -0.1038 -0.1154
  449loPI   C3B 7183   3.345   6.364   9.181 -0.2293 -0.0912  0.0901
  449loPI   C4B 7184   3.352   6.326   8.731 -0.2671 -0.1039  0.1078
  450loPI    C1 7185  10.204   8.457  10.489  0.1150 -0.1854 -0.2213
  450loPI    C2 7186  10.408   8.323  10.805 -0.0022 -0.0526 -0.0878
  450loPI    C3 7187  10.437   8.707  10.697 -0.0634 -0.0682 -0.1601
  450loPI   PO4 7188  10.269   8.327  10.286 -0.2260  0.1101 -0.0135
  450loPI   GL1 7189  10.249   7.941   9.884 -0.0022 -0.0543 -0.0369
  450loPI   GL2 7190  10.274   8.351   9.809 -0.1140  0.0845  0.2770
  450loPI   C1A 7191  10.246   7.856   9.408 -0.1618  0.5754  0.0998
  450loPI   C2A 7192  10.305   7.982   9.035  0.0583  0.0992  0.0720
  450loPI   C3A 7193  10.283   8.123   8.653  0.1042 -0.2071 -0.2902
  450loPI   C4A 7194  10.409   7.952   8.303  0.0361 -0.1059  0.0475
  450loPI   C5A 7195  10.439   7.631   8.036 -0.3786 -0.0728  0.0932
  450loPI   C6A 7196  10.546   7.335   7.715  0.0178 -0.0362 -0.0351
  450loPI   C1B 7197  10.362   8.483   9.473  0.0685  0.0589  0.2349
  450loPI   C2B 7198  10.260   8.486   9.035  0.0208  0.3979 -0.2182
  450loPI   C3B 7199  10.290   8.620   8.648  0.1485 -0.0678 -0.0020
  450loPI   C4B 7200  10.275   8.598   8.203  0.0223  0.2971  0.1942
  451loPI    C1 7201   1.178   1.524  10.377 -0.1331  0.0483  0.0555
  451loPI    C2 7202   0.884   1.638  10.624 -0.0967  0.2941 -0.0116
  451loPI    C3 7203   1.180   1.405  10.759 -0.2441  0.1652  0.0933
  451loPI   PO4 7204   1.115   1.582  10.111 -0.2313 -0.1255  0.1561
  451loPI   GL1 7205   1.228   1.751   9.767 -0.0888  0.0467 -0.0622
  451loPI   GL2 7206   1.498   1.833   9.711 -0.0610  0.2623 -0.1774
  451loPI   C1A 7207   1.086   1.805   9.392 -0.0288  0.4819  0.2962
  451loPI   C2A 7208   1.076   1.852   8.947 -0.0621 -0.0964  0.1765
  451loPI   C3A 7209   1.132   1.890   8.553 -0.5957  0.0055  0.2609
  451loPI   C4A 7210   0.920   2.084   8.281  0.0768 -0.2087  0.2348
  451loPI   C5A 7211   0.626   2.452   8.041  0.3010 -0.2312  0.0433
  451loPI   C6A 7212   0.466   2.565   7.674 -0.1661  0.3036  0.0327
  451loPI   C1B 7213   1.555   1.907   9.364  0.0564  0.1038 -0.2504
  451loPI   C2B 7214   1.359   2.204   9.189 -0.0549 -0.1618  0.1367
  451loPI   C3B 7215   1.312   2.350   8.796 -0.0369 -0.3135  0.1109
  451loPI   C4B 7216   1.349   2.411   8.336 -0.0094  0.2674  0.0140
  452loPI    C1 7217  14.682  17.198  10.297 -0.2658 -0.2413  0.0838
  452loPI    C2 7218  14.575  17.248  10.679 -0.0789 -0.1440  0.1250
  452loPI    C3 7219  14.872  16.997  10.586 -0.0893 -0.1278  0.0483
  452loPI   PO4 7220  14.486  17.209  10.164  0.0741 -0.1160  0.1639
  452loPI   GL1 7221  14.621  17.345   9.817  0.0308  0.2175 -0.0488
  452loPI   GL2 7222  14.362  17.420   9.736  0.1258 -0.0227  0.0282
  452loPI   C1A 7223  14.541  17.373   9.313 -0.2529 -0.1256 -0.2664
  452loPI   C2A 7224  14.694  17.469   8.890  0.1474 -0.1742  0.1839
  452loPI   C3A 7225  14.820  17.606   8.542 -0.0986  0.1047 -0.0642
  452loPI   C4A 7226  14.614  17.449   8.208 -0.0875  0.2371 -0.2265
  452loPI   C5A 7227  14.261  17.395   7.968  0.2024  0.1404  0.0010
  452loPI   C6A 7228  13.933  17.707   7.797 -0.1814 -0.2112  0.0670
  452loPI   C1B 7229  14.032  17.417   9.431 -0.2510 -0.2632  0.1129
  452loPI   C2B 7230  14.175  17.430   9.009  0.0730 -0.2476  0.0478
  452loPI   C3B 7231  14.230  17.233   8.627 -0.0213  0.1232  0.1618
  452loPI   C4B 7232  14.147  17.025   8.312 -0.3578 -0.4638 -0.0982
  453loPI    C1 7233  14.325   0.860  10.317 -0.0828  0.1554 -0.3577
  453loPI    C2 7234  14.004   0.676  10.468  0.1506 -0.0683 -0.1214
  453loPI    C3 7235  14.117   1.031  10.613  0.0418 -0.0137 -0.1690
  453loPI   PO4 7236  14.289   0.836  10.014  0.1006 -0.3157 -0.1089
  453loPI   GL1 7237  14.491   1.113   9.560 -0.2708 -0.0577 -0.0105
  453loPI   GL2 7238  14.832   1.200   9.439 -0.0132  0.0196 -0.1706
  453loPI   C1A 7239  14.531   0.904   9.183 -0.0095 -0.1477 -0.1369
  453loPI   C2A 7240  14.175   0.819   9.071 -0.2356  0.1834 -0.1246
  453loPI   C3A 7241  14.066   0.579   8.647 -0.2124  0.2623  0.0270
  453loPI   C4A 7242  14.309   0.442   8.269  0.4243 -0.0701  0.1407
  453loPI   C5A 7243  14.415   0.198   7.850 -0.0188 -0.1564  0.2399
  453loPI   C6A 7244  14.422   0.140   7.408  0.0369 -0.1035 -0.1425
  453loPI   C1B 7245  14.883   1.169   8.975 -0.0828 -0.2909  0.1830
  453loPI   C2B 7246  14.922   1.193   8.521  0.0494 -0.0985  0.2280
  453loPI   C3B 7247  14.829   1.219   8.056 -0.0612 -0.0287  0.2059
  453loPI   C4B 7248  14.462   1.124   7.755  0.0255  0.0787  0.0601
  454loPI    C1 7249   7.845  15.822  10.174 -0.2735 -0.0449  0.0283
  454loPI    C2 7250   7.817  15.642  10.530 -0.1475 -0.0735  0.0240
  454loPI    C3 7251   7.765  16.037  10.501  0.1534 -0.0240  0.1244
  454loPI   PO4 7252   7.722  15.789  10.026 -0.3434  0.0537 -0.1155
  454loPI   GL1 7253   7.743  15.629   9.648 -0.0775 -0.2214  0.0349
  454loPI   GL2 7254   7.811  15.428   9.716  0.0349  0.2852 -0.1094
  454loPI   C1A 7255   7.688  15.489   9.228  0.0057  0.0494 -0.0380
  454loPI   C2A 7256   7.645  15.389   8.815 -0.1336  0.2158  0.1243
  454loPI   C3A 7257   7.665  15.247   8.406  0.3921  0.2301 -0.0378
  454loPI   C4A 7258   7.559  15.236   7.918  0.2140 -0.1684 -0.1685
  454loPI   C5A 7259   7.417  15.285   7.665  0.0742 -0.1309  0.1737
  454loPI   C6A 7260   7.178  15.553   7.482  0.5575 -0.0773 -0.0079
  454loPI   C1B 7261   8.155  15.338   9.411 -0.1639  0.2737  0.1549
  454loPI   C2B 7262   8.093  15.123   9.066 -0.0922 -0.0016  0.1805
  454loPI   C3B 7263   8.066  15.153   8.672 -0.0328 -0.1415 -0.1685
  454loPI   C4B 7264   8.124  15.253   8.226  0.0497 -0.0335 -0.1500
  455loPI    C1 7265  15.160  15.199  10.318 -0.0508 -0.0599  0.0894
  455loPI    C2 7266  15.558  15.157  10.323 -0.0254  0.1689  0.0890
  455loPI    C3 7267  15.354  15.172  10.667 -0.0127  0.2380  0.0936
  455loPI   PO4 7268  15.211  15.382  10.020 -0.2375 -0.0373  0.0660
  455loPI   GL1 7269  15.376  15.170   9.783  0.2446  0.3140  0.0796
  455loPI   GL2 7270  15.568  14.813   9.854 -0.0281  0.0335  0.0313
  455loPI   C1A 7271  15.441  15.354   9.428  0.2295 -0.1150  0.1885
  455loPI   C2A 7272  15.657  15.256   9.027  0.1580  0.0269 -0.0405
  455loPI   C3A 7273  15.719  15.253   8.618  0.0852 -0.3372 -0.1756
  455loPI   C4A 7274  15.653  15.251   8.244  0.0852 -0.1669 -0.1624
  455loPI   C5A 7275  15.745  15.593   7.916  0.0031  0.0503  0.1513
  455loPI   C6A 7276  15.494  15.971   7.853  0.0643 -0.1933  0.2241
  455loPI   C1B 7277  15.702  14.826   9.392 -0.0328  0.3469 -0.0454
  455loPI   C2B 7278  15.745  14.703   8.939  0.2305 -0.0561 -0.0722
  455loPI   C3B 7279  15.782  14.755   8.553  0.1066  0.1542  0.1271
  455loPI   C4B 7280  15.990  14.912   8.236  0.2518  0.1693  0.1268
  456loPI    C1 7281   8.466   8.474  10.526 -0.0906 -0.1563  0.0397
  456loPI    C2 7282   8.246   8.270  10.791 -0.1970 -0.2338 -0.1062
  456loPI    C3 7283   8.484   8.568  10.914 -0.3128 -0.2105  0.0645
  456loPI   PO4 7284   8.335   8.478  10.257  0.1369 -0.0616  0.0005
  456loPI   GL1 7285   8.253   8.761   9.977 -0.0892  0.0085  0.0110
  456loPI   GL2 7286   8.386   9.126  10.075  0.2879 -0.0508  0.0545
  456loPI   C1A 7287   8.060   8.892   9.533  0.1733 -0.1518  0.1361
  456loPI   C2A 7288   8.150   8.907   9.067  0.0911  0.4600  0.1434
  456loPI   C3A 7289   8.005   8.850   8.702  0.2515 -0.0253 -0.2102
  456loPI   C4A 7290   8.032   8.745   8.285 -0.2475  0.2065  0.4036
  456loPI   C5A 7291   8.261   8.534   7.986  0.0626  0.1537 -0.1187
  456loPI   C6A 7292   8.744   8.585   7.864  0.1238  0.0383  0.1227
  456loPI   C1B 7293   8.495   9.099   9.573  0.1677 -0.0686  0.0983
  456loPI   C2B 7294   8.588   9.100   9.185  0.1104 -0.1325  0.0219
  456loPI   C3B 7295   8.485   9.075   8.708  0.0482  0.0266 -0.2239
  456loPI   C4B 7296   8.586   9.172   8.341 -0.1667  0.1542 -0.0454
  457loPI    C1 7297   9.573  13.295  10.710  0.0509 -0.2460 -0.0230
  457loPI    C2 7298   9.930  13.474  10.675 -0.1970  0.2294 -0.2154
  457loPI    C3 7299   9.845  13.258  11.001  0.1873  0.2898 -0.0701
  457loPI   PO4 7300   9.460  13.108  10.576  0.1453  0.0280  0.1596
  457loPI   GL1 7301   9.488  13.031  10.200  0.0977  0.0835 -0.2539
  457loPI   GL2 7302   9.448  13.368  10.181  0.2650  0.2304  0.1349
  457loPI   C1A 7303   9.438  12.916   9.768  0.0310 -0.1847  0.1320
  457loPI   C2A 7304   9.476  12.792   9.447  0.1533  0.0719  0.1823
  457loPI   C3A 7305   9.468  12.773   9.061 -0.1106  0.4847  0.0076
  457loPI   C4A 7306   9.504  12.843   8.565  0.2581  0.0641 -0.2161
  457loPI   C5A 7307   9.627  12.888   8.197  0.0347 -0.0836 -0.2961
  457loPI   C6A 7308   9.756  12.725   7.906 -0.2759  0.0611 -0.1579
  457loPI   C1B 7309   9.539  13.412   9.770 -0.0037  0.0694  0.0728
  457loPI   C2B 7310   9.535  13.248   9.346 -0.2496 -0.0845 -0.0198
  457loPI   C3B 7311   9.418  13.255   8.905 -0.3344  0.1462  0.2483
  457loPI   C4B 7312   9.633  13.379   8.577  0.3429 -0.0729 -0.4303
  458loPI    C1 7313  13.327   0.634   9.922  0.1592 -0.1939 -0.1025
  458loPI    C2 7314  13.577   0.887   9.740  0.0557  0.0619  0.1060
  458loPI    C3 7315  13.692   0.698  10.073 -0.0260  0.1782  0.2008
  458loPI   PO4 7316  13.131   0.618   9.767 -0.2771  0.2942 -0.1685
  458loPI   GL1 7317  12.941   0.501   9.490  0.1695 -0.1030 -0.0714
  458loPI   GL2 7318  13.077   0.887   9.375 -0.0642 -0.4273 -0.0170
  458loPI   C1A 7319  12.908   0.233   9.220  0.0871  0.1466 -0.0760
  458loPI   C2A 7320  12.998   0.191   8.792  0.1090  0.0057 -0.1913
  458loPI   C3A 7321  13.119   0.353   8.404 -0.0624 -0.3847  0.0756
  458loPI   C4A 7322  12.891   0.679   8.160 -0.3827  0.3386 -0.1416
  458loPI   C5A 7323  12.472   0.771   8.291 -0.2133  0.0001  0.1744
  458loPI   C6A 7324  12.176   1.042   8.034 -0.2608 -0.1233  0.0979
  458loPI   C1B 7325  12.996   1.212   9.100  0.1007  0.2005  0.0048
  458loPI   C2B 7326  13.077   1.446   8.821  0.1523  0.0201 -0.1606
  458loPI   C3B 7327  13.409   1.316   8.567  0.3228 -0.2680  0.0592
  458loPI   C4B 7328  13.474   0.874   8.481  0.0634 -0.1763  0.3396
  459loPI    C1 7329   5.249   2.238  10.088  0.0415  0.0288  0.2086
  459loPI    C2 7330   4.876   2.108  10.023 -0.0027  0.2565 -0.0055
  459loPI    C3 7331   5.036   2.081  10.388 -0.1413 -0.0601  0.0350
  459loPI   PO4 7332   5.300   2.145   9.804 -0.1175 -0.2396 -0.0637
  459loPI   GL1 7333   5.326   1.765   9.671 -0.1084 -0.4272  0.0010
  459loPI   GL2 7334   5.286   1.418   9.698  0.2347 -0.0976 -0.0428
  459loPI   C1A 7335   5.662   1.627   9.356 -0.3524 -0.0676 -0.1547
  459loPI   C2A 7336   5.792   1.703   8.901  0.3909 -0.0599  0.1078
  459loPI   C3A 7337   5.983   2.011   8.638 -0.0136  0.0361  0.1885
  459loPI   C4A 7338   6.124   2.270   8.423  0.0672 -0.0968 -0.0954
  459loPI   C5A 7339   6.303   2.673   8.163  0.1857 -0.1599  0.0748
  459loPI   C6A 7340   6.590   2.666   7.866  0.1033 -0.2961  0.1231
  459loPI   C1B 7341   5.100   1.310   9.351  0.1114 -0.0051 -0.2424
  459loPI   C2B 7342   4.954   1.293   8.841  0.1423  0.1270 -0.1312
  459loPI   C3B 7343   4.963   1.320   8.451 -0.0698  0.1673  0.3135
  459loPI   C4B 7344   4.655   1.245   8.141 -0.2191  0.0250  0.0757
  460loPI    C1 7345   3.397   4.027  10.219  0.2595  0.0321  0.0464
  460loPI    C2 7346   3.612   3.742  10.039 -0.1736 -0.2683 -0.0106
  460loPI    C3 7347   3.478   3.686  10.412 -0.1142 -0.0632  0.0426
  460loPI   PO4 7348   3.395   4.205  10.014  0.0664  0.0936  0.0673
  460loPI   GL1 7349   3.133   4.313   9.716  0.2616 -0.0221  0.1139
  460loPI   GL2 7350   2.836   4.235   9.561 -0.0239 -0.0218  0.0227
  460loPI   C1A 7351   3.263   4.327   9.306 -0.1815  0.0224 -0.2725
  460loPI   C2A 7352   3.383   4.391   8.853  0.0870  0.0580 -0.3538
  460loPI   C3A 7353   3.558   4.072   8.526  0.2488  0.0482  0.1200
  460loPI   C4A 7354   4.024   3.852   8.341 -0.2154  0.2124  0.3922
  460loPI   C5A 7355   4.258   3.753   7.946 -0.0942 -0.0184  0.0628
  460loPI   C6A 7356   4.343   3.337   7.720 -0.1058 -0.0184  0.1637
  460loPI   C1B 7357   2.834   4.663   9.411 -0.0497  0.1229 -0.2789
  460loPI   C2B 7358   2.877   4.580   8.975 -0.1659  0.0245 -0.0604
  460loPI   C3B 7359   2.982   4.491   8.554 -0.3060 -0.2012  0.3480
  460loPI   C4B 7360   3.244   4.370   8.315  0.0015  0.0856  0.0398
  461loPI    C1 7361  10.612  15.501  10.339  0.0949 -0.0608 -0.1678
  461loPI    C2 7362  10.697  15.209  10.599 -0.0009  0.0008 -0.0664
  461loPI    C3 7363  10.942  15.524  10.564 -0.0272  0.0294  0.0043
  461loPI   PO4 7364  10.544  15.380  10.143  0.0871  0.0702 -0.1288
  461loPI   GL1 7365  10.498  15.430   9.747  0.3249  0.3073  0.0811
  461loPI   GL2 7366  10.792  15.292   9.702 -0.2767 -0.0201  0.0803
  461loPI   C1A 7367  10.434  15.479   9.365 -0.2968 -0.1280 -0.1106
  461loPI   C2A 7368  10.382  15.589   8.863  0.0484  0.0807  0.0392
  461loPI   C3A 7369  10.518  15.702   8.491 -0.4091 -0.1987  0.2506
  461loPI   C4A 7370  10.879  15.531   8.173 -0.1795 -0.3679 -0.0565
  461loPI   C5A 7371  10.832  15.523   7.723 -0.0294 -0.0278  0.0165
  461loPI   C6A 7372  10.913  15.658   7.353  0.2282  0.0216 -0.1656
  461loPI   C1B 7373  10.840  15.156   9.141 -0.2053  0.0827  0.0360
  461loPI   C2B 7374  10.952  15.290   8.657 -0.0336  0.1942 -0.1131
  461loPI   C3B 7375  11.129  15.165   8.347 -0.0761  0.0338 -0.1455
  461loPI   C4B 7376  11.275  15.257   7.874 -0.2475  0.0544 -0.0578
  462loPI    C1 7377  11.259   0.309  10.647  0.2157  0.3338  0.1350
  462loPI    C2 7378  10.976   0.366  10.924 -0.0339  0.0121 -0.0475
  462loPI    C3 7379  11.347   0.499  10.987 -0.2000  0.3548  0.2363
  462loPI   PO4 7380  11.176   0.409  10.359 -0.0073 -0.0807  0.1258
  462loPI   GL1 7381  11.446   0.368   9.972 -0.1244 -0.2281  0.2233
  462loPI   GL2 7382  11.294   0.570   9.864  0.0492  0.1409  0.0254
  462loPI   C1A 7383  11.635   0.299   9.534 -0.0105 -0.0049  0.1665
  462loPI   C2A 7384  11.779   0.296   9.133 -0.2576  0.2471 -0.0698
  462loPI   C3A 7385  11.859   0.019   8.777  0.0246 -0.2576  0.0999
  462loPI   C4A 7386  11.824   0.093   8.318 -0.0879 -0.4018 -0.0089
  462loPI   C5A 7387  11.725   0.284   7.937 -0.1464  0.0791 -0.1958
  462loPI   C6A 7388  11.587   0.254   7.630  0.0812 -0.1352 -0.0746
  462loPI   C1B 7389  11.096   0.316   9.533  0.1118  0.1984  0.0072
  462loPI   C2B 7390  11.267   0.167   9.160 -0.0822  0.0697  0.0987
  462loPI   C3B 7391  11.383   0.276   8.805 -0.0557 -0.1600  0.0475
  462loPI   C4B 7392  11.701   0.488   8.669 -0.3821  0.0586  0.4382
  463loPI    C1 7393   2.317  14.074  10.700 -0.0297  0.1832 -0.0492
  463loPI    C2 7394   2.049  14.334  10.844 -0.1307  0.0819 -0.0532
  463loPI    C3 7395   2.065  13.961  10.990 -0.1946 -0.0038 -0.2614
  463loPI   PO4 7396   2.384  14.175  10.479 -0.2302  0.2466  0.1561
  463loPI   GL1 7397   2.263  14.014  10.083  0.2445  0.0019 -0.2220
  463loPI   GL2 7398   2.041  14.125  10.149  0.0025  0.1896 -0.0695
  463loPI   C1A 7399   2.336  13.998   9.648 -0.1089 -0.0820 -0.2008
  463loPI   C2A 7400   2.284  13.984   9.265 -0.2539 -0.0689  0.0197
  463loPI   C3A 7401   2.301  13.902   8.799 -0.2754 -0.2703  0.2068
  463loPI   C4A 7402   2.178  13.823   8.322 -0.0369 -0.0234  0.0071
  463loPI   C5A 7403   2.105  13.438   8.037 -0.1546 -0.1488  0.1167
  463loPI   C6A 7404   1.984  13.252   7.662 -0.0764  0.1770 -0.2978
  463loPI   C1B 7405   1.986  14.343   9.760 -0.1602  0.0100 -0.0440
  463loPI   C2B 7406   1.886  14.298   9.386 -0.2644  0.2236  0.2230
  463loPI   C3B 7407   1.883  14.178   8.940  0.0986 -0.3073  0.1445
  463loPI   C4B 7408   1.817  14.129   8.525 -0.0414 -0.2033 -0.2050
  464loPI    C1 7409  16.960  11.412  10.521 -0.1327  0.0298  0.0062
  464loPI    C2 7410  16.609  11.411  10.328 -0.1189  0.0388 -0.0189
  464loPI    C3 7411  16.644  11.226  10.681 -0.1277 -0.0318 -0.0548
  464loPI   PO4 7412  17.158  11.410  10.372 -0.0967  0.0624  0.0980
  464loPI   GL1 7413  17.111  11.534  10.026 -0.0441  0.1755  0.1902
  464loPI   GL2 7414  17.437  11.728  10.114  0.0966 -0.1077  0.3484
  464loPI   C1A 7415  17.165  11.568   9.671  0.4183  0.0998  0.2984
  464loPI   C2A 7416  17.117  11.629   9.244  0.1880 -0.1426 -0.1914
  464loPI   C3A 7417  17.027  11.476   8.832 -0.1507 -0.0075  0.0526
  464loPI   C4A 7418  16.973  11.371   8.364 -0.2560  0.1533  0.0693
  464loPI   C5A 7419  16.785  11.574   7.935  0.2447  0.1476 -0.2020
  464loPI   C6A 7420  16.380  11.512   7.800 -0.0550 -0.2159  0.0927
  464loPI   C1B 7421  17.586  11.923   9.784  0.0448  0.1885 -0.1875
  464loPI   C2B 7422  17.584  11.819   9.255  0.0406  0.0548 -0.5377
  464loPI   C3B 7423  17.577  11.761   8.809 -0.1989 -0.0007 -0.2798
  464loPI   C4B 7424  17.753  11.854   8.462  0.1690  0.0711 -0.2403
  465loPI    C1 7425   9.374  15.843  10.308 -0.2148 -0.1189 -0.0571
  465loPI    C2 7426   9.415  15.584  10.609 -0.2697 -0.0767 -0.0132
  465loPI    C3 7427   9.184  15.907  10.654  0.0665  0.1602  0.0501
  465loPI   PO4 7428   9.330  15.741  10.048  0.3807 -0.1882 -0.0608
  465loPI   GL1 7429   9.350  15.470   9.726 -0.2132  0.1087  0.2842
  465loPI   GL2 7430   9.559  15.396   9.529 -0.4902 -0.1222  0.1945
  465loPI   C1A 7431   9.126  15.246   9.370  0.2614 -0.0755 -0.0499
  465loPI   C2A 7432   9.033  15.125   8.948 -0.2701 -0.3113  0.2355
  465loPI   C3A 7433   9.128  15.097   8.465  0.3163  0.1406 -0.0512
  465loPI   C4A 7434   9.122  15.201   7.984  0.0265  0.3535  0.3398
  465loPI   C5A 7435   9.263  15.451   7.536  0.1705  0.0022 -0.0727
  465loPI   C6A 7436   9.368  15.803   7.251 -0.2787 -0.2951 -0.0528
  465loPI   C1B 7437   9.560  15.524   9.064 -0.1666 -0.1195  0.2088
  465loPI   C2B 7438   9.458  15.499   8.630 -0.0767  0.2002 -0.0199
  465loPI   C3B 7439   9.536  15.595   8.177 -0.1817  0.1634 -0.0370
  465loPI   C4B 7440   9.725  15.846   7.759  0.3108  0.0334 -0.2038
  466loPI    C1 7441  13.946  14.029  10.594 -0.0547 -0.0825 -0.0276
  466loPI    C2 7442  14.285  13.977  10.800 -0.1194  0.2190  0.1610
  466loPI    C3 7443  13.947  13.800  10.922 -0.0634  0.0397  0.0587
  466loPI   PO4 7444  14.067  14.074  10.271  0.0510 -0.0124  0.0182
  466loPI   GL1 7445  14.134  14.044   9.847  0.1033  0.3218 -0.2828
  466loPI   GL2 7446  13.868  13.848   9.817 -0.0389 -0.2420 -0.2416
  466loPI   C1A 7447  14.590  14.255   9.681  0.0899 -0.0128  0.0172
  466loPI   C2A 7448  14.917  14.183   9.348  0.0298 -0.1395  0.1965
  466loPI   C3A 7449  14.987  14.125   8.942  0.0128  0.1943 -0.1401
  466loPI   C4A 7450  15.037  14.093   8.539 -0.1144  0.2585  0.2631
  466loPI   C5A 7451  15.110  14.181   8.084  0.1945 -0.0184  0.1523
  466loPI   C6A 7452  15.258  13.954   7.773 -0.1488  0.1805  0.1202
  466loPI   C1B 7453  13.725  14.022   9.541  0.0781  0.2848 -0.0689
  466loPI   C2B 7454  13.739  14.083   9.111  0.0060  0.4821 -0.2482
  466loPI   C3B 7455  13.628  14.129   8.656 -0.1599 -0.0980 -0.0417
  466loPI   C4B 7456  13.731  14.143   8.167  0.2285 -0.0928 -0.2658
  467loPI    C1 7457   5.880   8.384  10.955 -0.1477 -0.2018 -0.3168
  467loPI    C2 7458   5.620   8.478  11.244 -0.1498  0.0442 -0.3959
  467loPI    C3 7459   5.864   8.758  11.096  0.4726 -0.2749 -0.0184
  467loPI   PO4 7460   5.754   8.285  10.775 -0.0464 -0.0991  0.1319
  467loPI   GL1 7461   5.504   8.318  10.376  0.2255  0.1234  0.1254
  467loPI   GL2 7462   5.683   8.621  10.180  0.0637  0.1138 -0.4023
  467loPI   C1A 7463   5.413   8.321   9.877 -0.3243 -0.0921  0.1829
  467loPI   C2A 7464   5.336   8.454   9.461  0.1455  0.1767 -0.2865
  467loPI   C3A 7465   5.307   8.367   9.106 -0.1304 -0.0840  0.1516
  467loPI   C4A 7466   5.332   8.330   8.637 -0.2627  0.0877  0.0025
  467loPI   C5A 7467   5.387   8.441   8.264 -0.1472  0.1337 -0.1117
  467loPI   C6A 7468   5.442   8.659   7.964  0.0454  0.0104  0.0341
  467loPI   C1B 7469   5.784   8.654   9.837  0.0364 -0.0419 -0.2877
  467loPI   C2B 7470   5.798   8.613   9.480  0.0764  0.1547  0.1136
  467loPI   C3B 7471   5.739   8.649   9.054 -0.1303 -0.0140  0.0627
  467loPI   C4B 7472   5.739   8.615   8.602  0.2252  0.0396  0.3820
  468loPI    C1 7473   3.821   7.266  11.095 -0.0446 -0.1160 -0.1122
  468loPI    C2 7474   4.163   7.435  11.216  0.0425 -0.3699  0.0053
  468loPI    C3 7475   3.989   7.154  11.441 -0.2488 -0.2380 -0.0509
  468loPI   PO4 7476   3.707   7.481  10.951 -0.1783 -0.0335 -0.1896
  468loPI   GL1 7477   3.672   7.686  10.547 -0.0645 -0.0925 -0.2348
  468loPI   GL2 7478   3.728   7.273  10.511  0.1158  0.2677  0.1551
  468loPI   C1A 7479   3.546   7.994  10.247  0.2856 -0.1509  0.1367
  468loPI   C2A 7480   3.399   7.930   9.877 -0.0058  0.2102  0.0750
  468loPI   C3A 7481   3.478   7.871   9.432 -0.2615 -0.0838  0.0536
  468loPI   C4A 7482   3.488   7.860   9.057  0.5566  0.1534  0.3295
  468loPI   C5A 7483   3.505   7.766   8.569  0.4445 -0.2563  0.3511
  468loPI   C6A 7484   3.693   7.780   8.120  0.1627 -0.0190  0.1489
  468loPI   C1B 7485   3.509   7.473  10.088 -0.2683  0.4475 -0.3727
  468loPI   C2B 7486   3.427   7.357   9.761 -0.1935  0.3547 -0.1228
  468loPI   C3B 7487   3.409   7.357   9.331 -0.2967  0.3375 -0.1573
  468loPI   C4B 7488   3.502   7.387   8.946 -0.0058 -0.0737 -0.1734
  469loPI    C1 7489  14.655   6.101  10.466 -0.1153  0.1458  0.0702
  469loPI    C2 7490  14.417   5.790  10.548  0.1074  0.0567  0.3986
  469loPI    C3 7491  14.358   6.141  10.731  0.0596  0.1145  0.2737
  469loPI   PO4 7492  14.704   6.115  10.158  0.1576  0.1060  0.1582
  469loPI   GL1 7493  14.622   6.057   9.738 -0.0590 -0.2094  0.4010
  469loPI   GL2 7494  14.914   5.985   9.671  0.0427 -0.0710 -0.2160
  469loPI   C1A 7495  14.291   6.071   9.463 -0.0592  0.0882 -0.1821
  469loPI   C2A 7496  14.213   6.233   9.121 -0.0138 -0.0811  0.3922
  469loPI   C3A 7497  14.227   6.282   8.689 -0.1428  0.2442 -0.2110
  469loPI   C4A 7498  14.166   6.185   8.252 -0.1643 -0.2286  0.1175
  469loPI   C5A 7499  14.415   6.201   7.891 -0.0248  0.2293 -0.2601
  469loPI   C6A 7500  14.490   5.815   7.687 -0.2870  0.1036 -0.3168
  469loPI   C1B 7501  14.816   5.862   9.275  0.1308 -0.1610 -0.4080
  469loPI   C2B 7502  14.515   5.925   8.906  0.1183 -0.0426  0.0183
  469loPI   C3B 7503  14.325   5.732   8.529  0.0646  0.1603  0.3449
  469loPI   C4B 7504  14.236   5.600   8.124 -0.0614  0.0881  0.2486
  470loPI    C1 7505  15.801  10.712  10.702 -0.2814  0.0535  0.0972
  470loPI    C2 7506  15.682  11.080  10.604  0.0611  0.2850  0.5148
  470loPI    C3 7507  15.444  10.845  10.824 -0.2653  0.1525  0.0367
  470loPI   PO4 7508  15.988  10.640  10.469  0.0755 -0.1547  0.2755
  470loPI   GL1 7509  16.062  10.522  10.009 -0.0594  0.2424 -0.0553
  470loPI   GL2 7510  15.705  10.342  10.113  0.0578  0.0609  0.2304
  470loPI   C1A 7511  16.076  10.384   9.552 -0.4401  0.2748 -0.1257
  470loPI   C2A 7512  15.763  10.195   9.221  0.3863 -0.1906 -0.4765
  470loPI   C3A 7513  15.706  10.265   8.853  0.0315  0.0677  0.2976
  470loPI   C4A 7514  15.675  10.515   8.452  0.3036  0.1733 -0.1287
  470loPI   C5A 7515  15.728  10.766   8.094 -0.0567 -0.1684 -0.3042
  470loPI   C6A 7516  15.627  10.988   7.575 -0.0160 -0.3069  0.1366
  470loPI   C1B 7517  15.617  10.551   9.681  0.1564  0.1113 -0.0343
  470loPI   C2B 7518  15.570  10.782   9.319 -0.0293  0.2133 -0.4240
  470loPI   C3B 7519  15.586  10.927   8.985 -0.0352 -0.0294  0.1743
  470loPI   C4B 7520  15.500  10.956   8.511 -0.1427 -0.0103 -0.0913
  471loPI    C1 7521   3.325   7.811  11.020  0.2213  0.0205  0.2677
  471loPI    C2 7522   3.057   7.700  11.295 -0.3885  0.3939 -0.1516
  471loPI    C3 7523   3.340   7.966  11.389 -0.2600  0.1246  0.2506
  471loPI   PO4 7524   3.150   7.856  10.815  0.1968  0.0230  0.1784
  471loPI   GL1 7525   3.055   7.803  10.409  0.2121 -0.2593 -0.1038
  471loPI   GL2 7526   2.739   7.736  10.537  0.0126 -0.0860 -0.0576
  471loPI   C1A 7527   3.036   7.574  10.127  0.0960  0.3069 -0.0039
  471loPI   C2A 7528   3.007   7.684   9.694 -0.4098 -0.0406 -0.2157
  471loPI   C3A 7529   3.026   7.632   9.246 -0.0016  0.0358  0.0375
  471loPI   C4A 7530   3.049   7.654   8.813  0.1988 -0.1289  0.2547
  471loPI   C5A 7531   2.682   7.873   8.516  0.1456 -0.1315 -0.0615
  471loPI   C6A 7532   2.308   7.947   8.433  0.1618  0.1766 -0.2725
  471loPI   C1B 7533   2.574   7.856  10.242  0.2141 -0.2407  0.0488
  471loPI   C2B 7534   2.479   7.866   9.813 -0.0085 -0.1123  0.1884
  471loPI   C3B 7535   2.583   7.931   9.381 -0.1031  0.1834  0.2048
  471loPI   C4B 7536   2.591   7.874   8.995  0.0326 -0.3898  0.2662
  472loPI    C1 7537  11.760  10.959  10.461  0.0027 -0.0907 -0.2214
  472loPI    C2 7538  12.042  10.728  10.623 -0.0708 -0.0186  0.0131
  472loPI    C3 7539  11.860  11.006  10.845 -0.1879  0.0684 -0.1896
  472loPI   PO4 7540  11.853  11.018  10.243  0.3844  0.0067  0.0667
  472loPI   GL1 7541  11.736  10.881   9.746  0.0684  0.2241  0.0512
  472loPI   GL2 7542  11.811  11.113   9.485 -0.1362 -0.0108 -0.0353
  472loPI   C1A 7543  11.627  10.675   9.441 -0.1678  0.2151 -0.4561
  472loPI   C2A 7544  11.553  10.483   9.025  0.2338 -0.2752  0.0088
  472loPI   C3A 7545  11.320  10.447   8.694  0.0283  0.1101 -0.2691
  472loPI   C4A 7546  11.036  10.154   8.446 -0.2055  0.2553 -0.2631
  472loPI   C5A 7547  10.626  10.303   8.276 -0.0302 -0.0899  0.2518
  472loPI   C6A 7548  10.393  10.171   8.025  0.0266  0.1615  0.1419
  472loPI   C1B 7549  11.542  11.049   9.171 -0.1179  0.0860  0.4950
  472loPI   C2B 7550  11.476  10.887   8.746  0.1511  0.1074 -0.3031
  472loPI   C3B 7551  11.345  10.856   8.373  0.1340 -0.0818 -0.0895
  472loPI   C4B 7552  11.202  10.464   8.069  0.0563  0.1516  0.2215
  473loPI    C1 7553   2.928   5.987  10.530 -0.1636 -0.3830 -0.0021
  473loPI    C2 7554   3.141   6.050  10.862 -0.0136 -0.1022 -0.1489
  473loPI    C3 7555   2.742   6.065  10.875 -0.0113 -0.1818  0.0362
  473loPI   PO4 7556   3.010   5.731  10.464 -0.0075  0.2512  0.1027
  473loPI   GL1 7557   2.722   5.506  10.179  0.0918  0.1975 -0.0165
  473loPI   GL2 7558   2.957   5.539   9.967  0.0607  0.0198 -0.1224
  473loPI   C1A 7559   2.460   5.371   9.763  0.3759 -0.0848  0.2613
  473loPI   C2A 7560   2.520   5.432   9.271 -0.2184 -0.2095 -0.2591
  473loPI   C3A 7561   2.454   5.253   8.840  0.0610  0.1581  0.0798
  473loPI   C4A 7562   2.365   5.263   8.424  0.0129 -0.0950  0.0904
  473loPI   C5A 7563   2.192   5.296   8.088  0.0088 -0.2271 -0.0021
  473loPI   C6A 7564   2.204   5.429   7.648  0.1551 -0.4119 -0.0176
  473loPI   C1B 7565   2.945   5.641   9.557  0.1790  0.0152  0.4112
  473loPI   C2B 7566   2.970   5.565   9.108 -0.0503 -0.2716  0.0987
  473loPI   C3B 7567   2.944   5.479   8.723  0.0228 -0.0446 -0.2082
  473loPI   C4B 7568   2.807   5.317   8.247  0.0529  0.0692 -0.2473
  474loPI    C1 7569   8.832  14.518  10.997  0.0975  0.1340 -0.2632
  474loPI    C2 7570   8.517  14.765  11.013  0.0032  0.0040 -0.0683
  474loPI    C3 7571   8.756  14.724  11.332  0.0471 -0.1188 -0.1165
  474loPI   PO4 7572   8.960  14.613  10.663  0.0148 -0.1305 -0.0212
  474loPI   GL1 7573   8.898  14.382  10.164 -0.1160 -0.0978 -0.0740
  474loPI   GL2 7574   8.696  14.397   9.972  0.3946  0.0466  0.1698
  474loPI   C1A 7575   9.024  14.226   9.708 -0.1637 -0.1007 -0.3528
  474loPI   C2A 7576   9.081  14.128   9.253 -0.1913 -0.1559  0.0265
  474loPI   C3A 7577   9.075  14.091   8.848  0.3172  0.1759 -0.2100
  474loPI   C4A 7578   9.198  14.125   8.390 -0.0683 -0.0399  0.0968
  474loPI   C5A 7579   9.090  14.314   8.100  0.2049  0.0992 -0.3431
  474loPI   C6A 7580   9.133  14.713   7.870  0.2807 -0.0904  0.1879
  474loPI   C1B 7581   8.529  14.360   9.636  0.2786  0.0021  0.1154
  474loPI   C2B 7582   8.698  14.439   9.326 -0.2902  0.0993 -0.0405
  474loPI   C3B 7583   8.603  14.328   8.944 -0.2340  0.0428 -0.0636
  474loPI   C4B 7584   8.692  14.352   8.524 -0.3383  0.0381 -0.1140
  475loPI    C1 7585  14.474  18.368  10.276  0.0831 -0.2145  0.0277
  475loPI    C2 7586  14.805  18.572  10.370  0.1093 -0.1098 -0.2817
  475loPI    C3 7587  14.704  18.248  10.581  0.0002  0.2863  0.2976
  475loPI   PO4 7588  14.431  18.447  10.001 -0.3563  0.0190 -0.0907
  475loPI   GL1 7589  14.451  18.477   9.492  0.0291  0.2820  0.1563
  475loPI   GL2 7590  14.248  18.230   9.413  0.3075  0.1231  0.0207
  475loPI   C1A 7591  14.685  18.426   9.144 -0.1120  0.0400  0.1095
  475loPI   C2A 7592  14.693  18.280   8.717  0.0620  0.0988 -0.1147
  475loPI   C3A 7593  14.831  18.064   8.290  0.0187 -0.1453 -0.0060
  475loPI   C4A 7594  15.030  18.060   8.034  0.2170  0.5878 -0.1025
  475loPI   C5A 7595  15.174  17.904   7.689 -0.0489 -0.1242 -0.3335
  475loPI   C6A 7596  15.440  17.652   7.494 -0.0590 -0.1713  0.0832
  475loPI   C1B 7597  14.193  18.191   8.997 -0.1420  0.1978 -0.1091
  475loPI   C2B 7598  14.212  18.240   8.565 -0.0693 -0.0857  0.2743
  475loPI   C3B 7599  14.336  17.940   8.187 -0.3668  0.0123 -0.1817
  475loPI   C4B 7600  14.625  17.842   7.845  0.0614 -0.0763 -0.2915
  476loPI    C1 7601   1.812   7.659  11.022  0.4189  0.0215  0.0241
  476loPI    C2 7602   1.828   7.350  11.274  0.2520  0.1010  0.1335
  476loPI    C3 7603   1.627   7.680  11.375  0.0367  0.0682 -0.1739
  476loPI   PO4 7604   2.050   7.720  10.915  0.1010  0.1653 -0.1448
  476loPI   GL1 7605   2.212   7.736  10.571  0.3089  0.0748 -0.1270
  476loPI   GL2 7606   2.357   7.478  10.466  0.2245 -0.0829  0.0589
  476loPI   C1A 7607   2.059   7.628  10.154  0.0510 -0.1309  0.0748
  476loPI   C2A 7608   2.060   7.664   9.680  0.0266 -0.2589 -0.1927
  476loPI   C3A 7609   2.156   7.740   9.259  0.0546  0.0332 -0.0262
  476loPI   C4A 7610   2.000   7.751   8.763  0.2530  0.1059  0.4195
  476loPI   C5A 7611   1.639   7.696   8.600  0.0774  0.3433 -0.1270
  476loPI   C6A 7612   1.518   7.561   8.290  0.0500 -0.1219 -0.0610
  476loPI   C1B 7613   2.579   7.440  10.005 -0.0228 -0.0572 -0.0349
  476loPI   C2B 7614   2.583   7.428   9.587 -0.1580  0.0911  0.2083
  476loPI   C3B 7615   2.555   7.426   9.132  0.0984 -0.0382  0.0645
  476loPI   C4B 7616   2.603   7.450   8.744 -0.0898 -0.3516  0.2034
  477loPI    C1 7617   3.328  10.373  10.532  0.1101  0.0723 -0.1157
  477loPI    C2 7618   3.286  10.336  10.928 -0.0810  0.1272 -0.1300
  477loPI    C3 7619   3.426  10.030  10.712 -0.2593 -0.0075 -0.0577
  477loPI   PO4 7620   3.476  10.662  10.481 -0.0820  0.0680 -0.0846
  477loPI   GL1 7621   3.392  10.742  10.021  0.3555 -0.1073 -0.0783
  477loPI   GL2 7622   3.110  10.797   9.887  0.2868  0.2698 -0.1133
  477loPI   C1A 7623   3.526  10.541   9.674 -0.3085  0.0086 -0.3426
  477loPI   C2A 7624   3.548  10.492   9.256  0.1945  0.5437 -0.0740
  477loPI   C3A 7625   3.591  10.442   8.809  0.1278  0.0278  0.3689
  477loPI   C4A 7626   3.635  10.449   8.421  0.3463 -0.1516  0.2432
  477loPI   C5A 7627   3.460  10.451   8.012  0.0197  0.0713 -0.1473
  477loPI   C6A 7628   3.219  10.140   7.755 -0.1552  0.0500 -0.0780
  477loPI   C1B 7629   3.149  10.795   9.424 -0.0283  0.2028  0.4301
  477loPI   C2B 7630   3.179  10.744   8.997  0.4407  0.0556  0.0104
  477loPI   C3B 7631   3.191  10.737   8.566  0.1089  0.0023  0.1294
  477loPI   C4B 7632   3.350  10.890   8.106 -0.2104  0.1119 -0.2331
  478loPI    C1 7633   6.899  16.090  10.301  0.0233  0.0012  0.2317
  478loPI    C2 7634   6.522  15.969  10.248  0.0341  0.1057 -0.1055
  478loPI    C3 7635   6.637  16.116  10.602 -0.1474 -0.2531  0.1074
  478loPI   PO4 7636   7.004  15.993  10.043  0.0867  0.4091 -0.1506
  478loPI   GL1 7637   6.827  15.745   9.724  0.0195 -0.1818  0.1853
  478loPI   GL2 7638   6.960  15.423   9.685  0.0455  0.5248 -0.1067
  478loPI   C1A 7639   6.444  15.645   9.480  0.0375  0.0593 -0.2058
  478loPI   C2A 7640   6.322  15.628   9.003 -0.1318 -0.0447  0.1057
  478loPI   C3A 7641   6.302  15.734   8.549 -0.0950 -0.0957 -0.1216
  478loPI   C4A 7642   6.464  15.797   8.220  0.1547  0.1330 -0.0766
  478loPI   C5A 7643   6.445  15.995   7.822 -0.0261 -0.2845  0.2066
  478loPI   C6A 7644   6.785  16.095   7.506 -0.0731  0.0602  0.1470
  478loPI   C1B 7645   6.765  15.469   9.170 -0.1557  0.2869 -0.0323
  478loPI   C2B 7646   6.756  15.747   8.829 -0.0188 -0.0455 -0.2387
  478loPI   C3B 7647   6.751  16.105   8.641  0.1516  0.1735 -0.3715
  478loPI   C4B 7648   6.750  16.209   8.233 -0.5532 -0.1678  0.2485
  479loPI    C1 7649  12.077  10.042  10.304  0.0225 -0.1222  0.1557
  479loPI    C2 7650  12.247   9.962  10.656  0.1258 -0.0512  0.1224
  479loPI    C3 7651  11.947  10.225  10.635 -0.0194 -0.2092  0.1878
  479loPI   PO4 7652  12.016   9.759  10.206  0.3682  0.0454 -0.1880
  479loPI   GL1 7653  11.949   9.763   9.765  0.0726  0.0258 -0.4026
  479loPI   GL2 7654  12.207   9.707   9.680 -0.1094 -0.0325  0.0711
  479loPI   C1A 7655  11.716   9.424   9.400 -0.2459 -0.0412  0.0934
  479loPI   C2A 7656  11.711   9.409   8.864  0.1602 -0.1613  0.0402
  479loPI   C3A 7657  11.663   9.426   8.455  0.3706 -0.0316  0.3670
  479loPI   C4A 7658  11.814   9.719   8.189 -0.0057 -0.1014 -0.0370
  479loPI   C5A 7659  12.001   9.975   7.893  0.4452 -0.0261  0.0304
  479loPI   C6A 7660  12.236   9.809   7.609  0.0715 -0.1854  0.2733
  479loPI   C1B 7661  12.106   9.682   9.237 -0.1248  0.1627 -0.1010
  479loPI   C2B 7662  12.072   9.717   8.816 -0.0713 -0.0253 -0.1903
  479loPI   C3B 7663  12.016  10.013   8.502  0.0352 -0.0531  0.1106
  479loPI   C4B 7664  12.235  10.387   8.289  0.1775 -0.2058  0.3722
  480loPI    C1 7665   8.736   8.981  10.325 -0.2563 -0.0035 -0.0367
  480loPI    C2 7666   8.832   8.809  10.672 -0.1401 -0.0452 -0.0890
  480loPI    C3 7667   8.489   9.010  10.638 -0.0882  0.0763  0.0901
  480loPI   PO4 7668   8.973   9.062  10.269 -0.2085 -0.1322  0.2207
  480loPI   GL1 7669   9.197   8.913  10.044  0.1290  0.0595  0.0893
  480loPI   GL2 7670   9.208   8.543   9.878 -0.1153 -0.0987 -0.1272
  480loPI   C1A 7671   9.487   9.105   9.675  0.1856 -0.1172 -0.1013
  480loPI   C2A 7672   9.465   9.021   9.189  0.1728 -0.0509 -0.4373
  480loPI   C3A 7673   9.475   8.938   8.733 -0.0173 -0.3133  0.1120
  480loPI   C4A 7674   9.317   8.998   8.315  0.0041 -0.0355 -0.1062
  480loPI   C5A 7675   9.022   9.064   8.026 -0.0731  0.2023  0.6842
  480loPI   C6A 7676   8.671   9.125   7.706 -0.2522  0.0624 -0.1458
  480loPI   C1B 7677   9.382   8.618   9.452  0.3002  0.2636  0.0930
  480loPI   C2B 7678   9.428   8.540   9.009 -0.2212  0.0847  0.2244
  480loPI   C3B 7679   9.366   8.494   8.461 -0.0715  0.1058  0.1045
  480loPI   C4B 7680   9.192   8.554   8.023  0.2653 -0.3101 -0.3569
  481loPI    C1 7681  18.383   1.909  10.541 -0.1427  0.1023  0.0008
  481loPI    C2 7682  18.318   1.692  10.871 -0.0704 -0.3160 -0.2531
  481loPI    C3 7683  18.009   1.827  10.657 -0.1196  0.0481  0.0378
  481loPI   PO4 7684  18.599   1.785  10.400  0.2730  0.1413  0.3163
  481loPI   GL1 7685  18.607   1.541  10.003  0.2476 -0.0690 -0.0712
  481loPI   GL2 7686  18.430   1.318   9.857  0.1042 -0.3945  0.0641
  481loPI   C1A 7687  18.777   1.667   9.609  0.1104  0.2452 -0.0830
  481loPI   C2A 7688  18.733   1.751   9.117  0.0248 -0.2207 -0.5132
  481loPI   C3A 7689  18.655   1.600   8.673  0.0481 -0.0358 -0.0934
  481loPI   C4A 7690  18.582   1.546   8.288 -0.2352  0.0724 -0.0454
  481loPI   C5A 7691  18.504   1.555   7.858 -0.0517  0.1695 -0.2248
  481loPI   C6A 7692  18.044   1.626   7.654 -0.2794  0.0412 -0.2332
  481loPI   C1B 7693  18.477   1.303   9.429  0.0092  0.0223  0.2431
  481loPI   C2B 7694  18.376   1.373   9.072  0.2491  0.1726 -0.3281
  481loPI   C3B 7695  18.014   1.228   8.771 -0.3276 -0.0711 -0.0288
  481loPI   C4B 7696  17.788   0.831   8.647 -0.0189  0.2548  0.1035
  482loPI    C1 7697  14.666  13.635  10.996  0.0015 -0.1251  0.2307
  482loPI    C2 7698  14.698  13.946  11.246 -0.1683 -0.0570  0.1690
  482loPI    C3 7699  14.390  13.693  11.280 -0.1567 -0.0851  0.0707
  482loPI   PO4 7700  14.791  13.712  10.780  0.0014 -0.0597  0.1371
  482loPI   GL1 7701  14.896  13.736  10.288 -0.0004 -0.1512 -0.0961
  482loPI   GL2 7702  14.765  13.915   9.965 -0.1295  0.3529 -0.0255
  482loPI   C1A 7703  15.239  14.048   9.910 -0.4660  0.1851  0.1328
  482loPI   C2A 7704  15.382  14.074   9.436 -0.0479 -0.1022 -0.1472
  482loPI   C3A 7705  15.413  13.830   9.105 -0.0782 -0.0681  0.0374
  482loPI   C4A 7706  15.504  13.807   8.650 -0.3766 -0.3060 -0.4411
  482loPI   C5A 7707  15.424  13.787   8.201  0.2210  0.2629  0.0070
  482loPI   C6A 7708  14.996  13.674   8.208  0.0964  0.2642 -0.0330
  482loPI   C1B 7709  14.531  13.788   9.653  0.0605  0.0901  0.1940
  482loPI   C2B 7710  14.555  13.888   9.258  0.0994 -0.0644 -0.2010
  482loPI   C3B 7711  14.605  13.855   8.795  0.1363  0.0591  0.3916
  482loPI   C4B 7712  14.467  13.716   8.294 -0.0119  0.0154 -0.3946
  483loPI    C1 7713  15.777   6.883  10.710  0.0810 -0.1804 -0.0801
  483loPI    C2 7714  16.016   7.084  10.958 -0.3095 -0.0182  0.1746
  483loPI    C3 7715  16.071   6.692  10.903  0.2527  0.0849 -0.0742
  483loPI   PO4 7716  15.772   7.129  10.470  0.0562 -0.1253  0.0934
  483loPI   GL1 7717  15.608   7.221  10.156  0.1788 -0.0799  0.2145
  483loPI   GL2 7718  15.828   7.402  10.062 -0.1168  0.3508 -0.0550
  483loPI   C1A 7719  15.646   7.021   9.697 -0.0441  0.2676  0.1817
  483loPI   C2A 7720  15.661   6.984   9.286  0.0547 -0.1679  0.0543
  483loPI   C3A 7721  15.725   7.048   8.915  0.1450 -0.2201 -0.0503
  483loPI   C4A 7722  15.770   7.134   8.380 -0.0018 -0.0193 -0.1067
  483loPI   C5A 7723  15.924   6.945   8.064 -0.1673  0.4851 -0.1525
  483loPI   C6A 7724  15.968   7.094   7.600  0.3273 -0.1199  0.3101
  483loPI   C1B 7725  15.663   7.553   9.689  0.1701  0.2497  0.1380
  483loPI   C2B 7726  15.657   7.579   9.286  0.0357 -0.1030 -0.1265
  483loPI   C3B 7727  15.731   7.515   8.874 -0.1946 -0.1661 -0.0299
  483loPI   C4B 7728  15.488   7.580   8.497 -0.2603  0.2729 -0.0514
  484loPI    C1 7729   1.117  18.036  10.400  0.0877 -0.3006 -0.1784
  484loPI    C2 7730   1.372  18.239  10.632 -0.0097 -0.0181 -0.3135
  484loPI    C3 7731   1.207  17.899  10.764  0.1615 -0.0149 -0.0866
  484loPI   PO4 7732   1.227  17.976  10.103  0.2834  0.0743 -0.2063
  484loPI   GL1 7733   1.561  17.804   9.865  0.0443  0.3547 -0.0211
  484loPI   GL2 7734   1.344  17.705   9.662  0.0762  0.1225  0.0887
  484loPI   C1A 7735   1.684  18.091   9.550  0.4963  0.0165  0.2074
  484loPI   C2A 7736   1.666  18.316   9.135  0.1730  0.2200  0.2842
  484loPI   C3A 7737   1.697  18.246   8.679  0.0293 -0.0287  0.0586
  484loPI   C4A 7738   1.691  18.258   8.196 -0.0924 -0.0611  0.0409
  484loPI   C5A 7739   2.037  18.011   7.982  0.0221  0.0814  0.0100
  484loPI   C6A 7740   2.373  17.742   8.237  0.1768  0.0789  0.1267
  484loPI   C1B 7741   1.458  17.664   9.236 -0.3337 -0.0419  0.0953
  484loPI   C2B 7742   1.582  17.805   8.819 -0.0435 -0.0191 -0.1319
  484loPI   C3B 7743   2.024  17.891   8.677 -0.1916 -0.0379  0.1482
  484loPI   C4B 7744   2.397  17.823   8.872  0.2478 -0.0438  0.0330
  485loPI    C1 7745   6.544   4.847  10.933 -0.1113  0.0237  0.2713
  485loPI    C2 7746   6.864   4.655  11.079 -0.0285 -0.3055 -0.3111
  485loPI    C3 7747   6.526   4.674  11.293  0.2739 -0.2300  0.1747
  485loPI   PO4 7748   6.582   4.747  10.697 -0.1740 -0.4684  0.3330
  485loPI   GL1 7749   6.667   4.853  10.202 -0.0453 -0.1538 -0.2098
  485loPI   GL2 7750   6.443   5.075  10.171  0.2406  0.2531 -0.1213
  485loPI   C1A 7751   6.441   4.643   9.859 -0.1656 -0.1072 -0.2243
  485loPI   C2A 7752   6.383   4.724   9.477  0.0313 -0.5235  0.1358
  485loPI   C3A 7753   6.506   4.898   9.076  0.0598 -0.1487  0.2745
  485loPI   C4A 7754   6.539   4.915   8.668 -0.2041 -0.1110 -0.1661
  485loPI   C5A 7755   6.693   4.679   8.293 -0.1775 -0.1734  0.1243
  485loPI   C6A 7756   6.400   4.527   7.918  0.1059 -0.1456  0.0071
  485loPI   C1B 7757   6.454   5.197   9.728 -0.1278  0.3231 -0.1205
  485loPI   C2B 7758   6.523   5.439   9.294  0.2774  0.0950  0.0852
  485loPI   C3B 7759   6.646   5.379   8.859 -0.1946 -0.2052 -0.3288
  485loPI   C4B 7760   6.519   5.416   8.462  0.3937  0.2969 -0.5001
  486loPI    C1 7761   9.077   3.840  10.735  0.1652  0.2119  0.1722
  486loPI    C2 7762   8.806   4.099  10.876 -0.2096  0.0272 -0.1891
  486loPI    C3 7763   8.751   3.706  10.924  0.0185 -0.0113 -0.2285
  486loPI   PO4 7764   9.167   3.930  10.431 -0.1012  0.1112  0.1057
  486loPI   GL1 7765   9.116   3.843  10.034 -0.1204  0.1464 -0.1821
  486loPI   GL2 7766   8.865   4.026  10.074  0.0400 -0.1997  0.0564
  486loPI   C1A 7767   9.273   3.643   9.627 -0.1350  0.1428 -0.1292
  486loPI   C2A 7768   9.284   3.689   9.210  0.0069  0.1991  0.0996
  486loPI   C3A 7769   9.326   3.718   8.769  0.0244  0.0210 -0.1928
  486loPI   C4A 7770   9.363   3.814   8.382  0.0112 -0.0135  0.2740
  486loPI   C5A 7771   9.302   3.958   8.043 -0.3044 -0.0474 -0.1846
  486loPI   C6A 7772   9.057   4.012   7.678  0.0931  0.4307 -0.4970
  486loPI   C1B 7773   8.819   4.385   9.749  0.4342  0.1029 -0.2148
  486loPI   C2B 7774   8.806   4.512   9.320 -0.0200 -0.2279 -0.0147
  486loPI   C3B 7775   8.754   4.501   8.955 -0.2642 -0.0809 -0.3713
  486loPI   C4B 7776   8.876   4.518   8.580  0.1975  0.0376  0.2378
  487loPI    C1 7777   3.853  10.900  10.729  0.0911  0.0344  0.0926
  487loPI    C2 7778   3.941  10.944  11.116 -0.0160 -0.0316  0.1249
  487loPI    C3 7779   3.585  10.797  11.008 -0.0107  0.0469  0.0003
  487loPI   PO4 7780   3.989  11.038  10.572  0.0018  0.1370 -0.1930
  487loPI   GL1 7781   4.271  11.287  10.275 -0.4214  0.2044  0.1798
  487loPI   GL2 7782   4.324  10.959  10.167 -0.0788  0.1108 -0.0403
  487loPI   C1A 7783   4.050  11.277   9.846  0.3152 -0.1244 -0.0331
  487loPI   C2A 7784   3.992  11.275   9.540  0.1990  0.1458  0.3711
  487loPI   C3A 7785   4.131  11.366   9.100  0.2805  0.1241 -0.0874
  487loPI   C4A 7786   4.042  11.329   8.629  0.2646  0.1051  0.0902
  487loPI   C5A 7787   4.188  11.217   8.279  0.0670  0.0019  0.3199
  487loPI   C6A 7788   3.999  11.168   7.875  0.0785 -0.1012 -0.2321
  487loPI   C1B 7789   4.540  11.041   9.774 -0.1929 -0.1535 -0.0708
  487loPI   C2B 7790   4.406  11.066   9.331 -0.1464 -0.0338 -0.0298
  487loPI   C3B 7791   4.508  11.021   8.887  0.1514 -0.2135 -0.1920
  487loPI   C4B 7792   4.564  10.892   8.491  0.6252 -0.0990  0.0912
  488loPI    C1 7793   2.737  10.241  10.923 -0.0474 -0.2361 -0.0435
  488loPI    C2 7794   2.609  10.573  11.105  0.1501 -0.1428 -0.0720
  488loPI    C3 7795   2.467  10.216  11.216  0.0068 -0.0570  0.0229
  488loPI   PO4 7796   2.793  10.260  10.742 -0.5568 -0.2553  0.0461
  488loPI   GL1 7797   2.880  10.046  10.332  0.0875  0.3531  0.2350
  488loPI   GL2 7798   2.613  10.081  10.142  0.1793  0.0676 -0.1653
  488loPI   C1A 7799   3.123  10.276   9.964  0.0452  0.0883  0.1389
  488loPI   C2A 7800   3.087  10.347   9.586 -0.0519 -0.1460  0.0635
  488loPI   C3A 7801   3.066  10.202   9.173  0.0908 -0.0077  0.0257
  488loPI   C4A 7802   3.120  10.198   8.743  0.0255 -0.0158 -0.2708
  488loPI   C5A 7803   3.106  10.163   8.265  0.1388  0.1614 -0.3340
  488loPI   C6A 7804   2.761   9.984   7.910 -0.0392 -0.2809 -0.0669
  488loPI   C1B 7805   2.578  10.014   9.706 -0.0289 -0.1123 -0.1546
  488loPI   C2B 7806   2.570   9.858   9.308  0.1283  0.1848  0.1895
  488loPI   C3B 7807   2.701   9.914   8.876  0.0781  0.0207  0.3108
  488loPI   C4B 7808   2.740   9.930   8.436 -0.1069  0.0854  0.2412
  489loPI    C1 7809   8.873   9.780  10.593  0.0222 -0.0023 -0.0331
  489loPI    C2 7810   8.859   9.385  10.651 -0.1865  0.0350  0.1848
  489loPI    C3 7811   9.111   9.610  10.864  0.1876 -0.0200 -0.1879
  489loPI   PO4 7812   8.808   9.764  10.331  0.2306 -0.3699 -0.2707
  489loPI   GL1 7813   8.732   9.483  10.061  0.2480 -0.0241 -0.1522
  489loPI   GL2 7814   8.894   9.229   9.807  0.0821 -0.0447  0.1571
  489loPI   C1A 7815   8.559   9.608   9.548 -0.1193  0.4862 -0.3941
  489loPI   C2A 7816   8.613   9.717   9.147 -0.0455  0.1160  0.0239
  489loPI   C3A 7817   8.568   9.564   8.779  0.0278 -0.2028  0.2396
  489loPI   C4A 7818   8.456   9.661   8.364 -0.1366 -0.0799  0.0823
  489loPI   C5A 7819   8.268   9.932   8.008 -0.2696 -0.1024  0.1490
  489loPI   C6A 7820   7.973  10.261   7.871 -0.1518 -0.0170 -0.1378
  489loPI   C1B 7821   9.011   9.055   9.464 -0.0272  0.2094 -0.1283
  489loPI   C2B 7822   9.003   8.843   9.149  0.2976  0.1420 -0.2920
  489loPI   C3B 7823   8.919   8.685   8.787 -0.1565 -0.1977 -0.2284
  489loPI   C4B 7824   8.856   8.772   8.350 -0.2100  0.2344 -0.0659
  490loPI    C1 7825  13.112   7.970  10.704 -0.1558 -0.3586  0.1097
  490loPI    C2 7826  12.918   8.318  10.736 -0.0216 -0.2861  0.1416
  490loPI    C3 7827  12.743   7.980  10.859 -0.1268 -0.2213  0.1714
  490loPI   PO4 7828  13.266   8.019  10.388  0.1448 -0.3875 -0.0218
  490loPI   GL1 7829  13.086   8.216   9.999  0.4552 -0.3382 -0.1237
  490loPI   GL2 7830  13.091   7.985   9.910  0.3038 -0.0068 -0.0609
  490loPI   C1A 7831  13.165   8.408   9.614 -0.0235 -0.1063  0.0318
  490loPI   C2A 7832  13.402   8.431   9.277 -0.2184 -0.1055 -0.0218
  490loPI   C3A 7833  13.447   8.376   8.777  0.0026  0.1971  0.1893
  490loPI   C4A 7834  13.473   8.369   8.340 -0.0707  0.0988  0.3345
  490loPI   C5A 7835  13.524   8.085   7.959  0.0653 -0.1878  0.0107
  490loPI   C6A 7836  13.944   8.049   7.708 -0.0584 -0.0629  0.3436
  490loPI   C1B 7837  13.022   7.950   9.428 -0.0781  0.1935 -0.0822
  490loPI   C2B 7838  12.975   8.178   9.118 -0.0348 -0.2843  0.1763
  490loPI   C3B 7839  12.999   8.184   8.709 -0.0369  0.4661 -0.1532
  490loPI   C4B 7840  12.973   8.149   8.241 -0.0772 -0.2395 -0.0209
  491loPI    C1 7841   8.595   7.074  10.648  0.0879  0.2728 -0.0025
  491loPI    C2 7842   8.936   7.225  10.791  0.3065 -0.0400 -0.1798
  491loPI    C3 7843   8.912   6.836  10.701  0.0323  0.0585 -0.5567
  491loPI   PO4 7844   8.624   7.097  10.412  0.2227  0.0168  0.2125
  491loPI   GL1 7845   8.518   7.126   9.953  0.0060  0.2533  0.2153
  491loPI   GL2 7846   8.759   7.008   9.826  0.2917 -0.0194  0.0798
  491loPI   C1A 7847   8.379   7.387   9.714  0.0351  0.0677  0.2929
  491loPI   C2A 7848   8.326   7.450   9.292 -0.1336  0.2526  0.3287
  491loPI   C3A 7849   8.327   7.498   8.852  0.0482  0.1113  0.0344
  491loPI   C4A 7850   8.374   7.536   8.450  0.1506  0.3930  0.0816
  491loPI   C5A 7851   8.397   7.558   8.001  0.2274  0.1322 -0.0123
  491loPI   C6A 7852   8.539   7.319   7.794  0.1866 -0.2174 -0.3064
  491loPI   C1B 7853   8.844   7.200   9.366 -0.1183  0.0168  0.1803
  491loPI   C2B 7854   8.727   7.288   8.976 -0.1055  0.2528  0.1067
  491loPI   C3B 7855   8.727   7.210   8.602  0.1796 -0.2946 -0.2103
  491loPI   C4B 7856   8.789   7.281   8.306 -0.4717 -0.0740 -0.1724
  492loPI    C1 7857  13.199   1.983  10.352 -0.1674  0.1508 -0.3378
  492loPI    C2 7858  12.932   2.014  10.648  0.0963 -0.0306 -0.0754
  492loPI    C3 7859  13.323   2.005  10.731  0.1722 -0.1364 -0.4265
  492loPI   PO4 7860  13.020   2.118  10.139 -0.2344  0.3689  0.2767
  492loPI   GL1 7861  13.078   2.158   9.619 -0.2377  0.2833  0.0232
  492loPI   GL2 7862  13.163   2.424   9.495 -0.0291  0.0520 -0.1657
  492loPI   C1A 7863  12.904   1.967   9.280  0.2553  0.0281  0.3548
  492loPI   C2A 7864  12.872   1.969   8.857  0.0225 -0.2574 -0.0734
  492loPI   C3A 7865  12.733   1.959   8.460 -0.3410 -0.0381  0.2346
  492loPI   C4A 7866  12.648   2.166   8.087 -0.1346 -0.3473 -0.1015
  492loPI   C5A 7867  12.392   2.174   7.828 -0.0013 -0.1339 -0.0642
  492loPI   C6A 7868  12.020   2.187   7.765  0.1067  0.0693  0.1576
  492loPI   C1B 7869  13.160   2.426   8.977  0.3546  0.0496 -0.1660
  492loPI   C2B 7870  13.201   2.347   8.566  0.0166  0.2586  0.2662
  492loPI   C3B 7871  13.133   2.148   8.117 -0.4079 -0.0466 -0.1683
  492loPI   C4B 7872  13.097   1.972   7.717  0.2766 -0.2038 -0.3134
  493loPI    C1 7873  13.452   2.774  10.066 -0.0182  0.0827  0.1697
  493loPI    C2 7874  13.675   3.046   9.874  0.0416 -0.0650  0.0278
  493loPI    C3 7875  13.778   2.926  10.242  0.1085 -0.0175  0.0249
  493loPI   PO4 7876  13.227   2.681   9.908 -0.3196 -0.1318 -0.0830
  493loPI   GL1 7877  12.935   2.884   9.604 -0.0672 -0.1960  0.1018
  493loPI   GL2 7878  13.292   2.960   9.533 -0.1159 -0.0152  0.1089
  493loPI   C1A 7879  12.957   2.882   9.151  0.0130  0.0340  0.2690
  493loPI   C2A 7880  12.942   2.916   8.699 -0.0456  0.1911  0.0507
  493loPI   C3A 7881  13.005   2.732   8.221  0.4032 -0.1164 -0.1499
  493loPI   C4A 7882  12.952   2.592   7.810  0.1381 -0.1703  0.1703
  493loPI   C5A 7883  12.719   2.331   7.517 -0.2461  0.0384  0.4512
  493loPI   C6A 7884  12.662   2.238   7.119  0.0699 -0.1811  0.1910
  493loPI   C1B 7885  13.500   2.746   9.263  0.2571 -0.3819  0.2591
  493loPI   C2B 7886  13.433   2.830   8.792 -0.1091  0.1242  0.2707
  493loPI   C3B 7887  13.493   2.763   8.238  0.0353  0.2049 -0.2156
  493loPI   C4B 7888  13.415   2.478   7.898  0.2358  0.1037  0.3464
  494loPI    C1 7889   4.748   9.818  10.626 -0.2174 -0.2236 -0.0243
  494loPI    C2 7890   5.035   9.714  10.884 -0.2679 -0.3434 -0.0157
  494loPI    C3 7891   4.977   9.497  10.553 -0.0714 -0.0751 -0.2302
  494loPI   PO4 7892   4.839  10.142  10.491  0.0313 -0.2090  0.0449
  494loPI   GL1 7893   4.885  10.393  10.179 -0.1953  0.3277  0.1275
  494loPI   GL2 7894   5.214  10.365  10.063  0.0513  0.1560  0.0569
  494loPI   C1A 7895   4.809  10.340   9.716 -0.0693 -0.0916  0.1514
  494loPI   C2A 7896   4.892  10.280   9.282 -0.1090 -0.1309 -0.3954
  494loPI   C3A 7897   4.990  10.133   8.878  0.0409  0.2100  0.2887
  494loPI   C4A 7898   4.924   9.774   8.884  0.0069  0.0906  0.2476
  494loPI   C5A 7899   4.867   9.578   9.250 -0.0512 -0.2035 -0.2949
  494loPI   C6A 7900   4.824   9.670   9.623 -0.2915 -0.0942  0.2056
  494loPI   C1B 7901   5.390  10.444   9.624  0.0485  0.0700 -0.3826
  494loPI   C2B 7902   5.340  10.440   9.203  0.0313  0.2023 -0.1257
  494loPI   C3B 7903   5.413  10.325   8.872  0.0434  0.0217  0.0587
  494loPI   C4B 7904   5.484  10.501   8.451  0.2455  0.2418 -0.1757
  495loPI    C1 7905  12.243  11.366  10.176  0.0413  0.1555  0.0039
  495loPI    C2 7906  12.335  11.017  10.347 -0.2840  0.0720  0.0139
  495loPI    C3 7907  12.232  11.330  10.574  0.2894  0.2650  0.0227
  495loPI   PO4 7908  12.149  11.224   9.854  0.1698  0.2901 -0.0737
  495loPI   GL1 7909  12.307  11.246   9.399  0.0402  0.0216 -0.0274
  495loPI   GL2 7910  12.574  11.236   9.218  0.1040  0.0585  0.0620
  495loPI   C1A 7911  12.245  11.394   8.934  0.0259 -0.1022 -0.0379
  495loPI   C2A 7912  12.068  11.550   8.543  0.0673  0.2613 -0.1675
  495loPI   C3A 7913  12.238  11.391   8.200 -0.2680  0.2443 -0.0254
  495loPI   C4A 7914  12.216  11.250   7.869  0.0555 -0.1522 -0.0058
  495loPI   C5A 7915  12.515  11.089   7.646 -0.1085  0.1379  0.0211
  495loPI   C6A 7916  12.931  11.069   7.662 -0.2130 -0.1741  0.1173
  495loPI   C1B 7917  12.882  11.113   8.886  0.0351 -0.1303  0.2124
  495loPI   C2B 7918  13.088  10.977   8.458  0.1474  0.2483 -0.0195
  495loPI   C3B 7919  13.252  10.695   8.095 -0.3230  0.0770  0.0928
  495loPI   C4B 7920  13.392  10.751   7.704 -0.1017  0.1795 -0.2320
  496loPI    C1 7921   1.467   7.263  10.857 -0.0191  0.1418  0.1115
  496loPI    C2 7922   1.190   7.511  10.708  0.0127  0.0865 -0.0418
  496loPI    C3 7923   1.216   7.453  11.103 -0.3032 -0.0358 -0.0360
  496loPI   PO4 7924   1.543   7.074  10.653  0.1705  0.0234 -0.2241
  496loPI   GL1 7925   1.871   7.177  10.295 -0.0927  0.0487  0.0579
  496loPI   GL2 7926   2.139   7.014  10.343 -0.1394 -0.0552 -0.0443
  496loPI   C1A 7927   2.121   7.194   9.893  0.3167  0.1615  0.0893
  496loPI   C2A 7928   2.050   7.226   9.359 -0.2652 -0.2353  0.3004
  496loPI   C3A 7929   2.071   7.255   8.963  0.1092  0.0078 -0.1481
  496loPI   C4A 7930   2.123   7.247   8.635  0.1840  0.2543 -0.0366
  496loPI   C5A 7931   2.304   7.492   8.288 -0.0556 -0.1444  0.0325
  496loPI   C6A 7932   2.637   7.575   8.058 -0.0021  0.1446  0.0103
  496loPI   C1B 7933   2.186   6.679  10.064  0.1256 -0.0176 -0.1929
  496loPI   C2B 7934   2.079   6.703   9.666  0.1914  0.0408 -0.0396
  496loPI   C3B 7935   1.750   6.901   9.537  0.0396  0.1656 -0.1251
  496loPI   C4B 7936   1.686   6.946   9.068  0.0334 -0.1159  0.1292
  497loPI    C1 7937  11.169  16.793  10.180 -0.1595  0.1606  0.0084
  497loPI    C2 7938  11.095  16.529  10.471 -0.1580  0.0768 -0.0668
  497loPI    C3 7939  11.160  16.914  10.561  0.0142  0.0197  0.0582
  497loPI   PO4 7940  11.252  16.670  10.009  0.0231  0.1101 -0.0628
  497loPI   GL1 7941  11.376  16.900   9.609  0.2116 -0.1300 -0.0642
  497loPI   GL2 7942  10.949  16.847   9.622 -0.1765 -0.1801 -0.1278
  497loPI   C1A 7943  11.362  17.119   9.335 -0.0467  0.4420 -0.1614
  497loPI   C2A 7944  11.378  17.139   8.951 -0.1829 -0.0666  0.0755
  497loPI   C3A 7945  11.193  17.221   8.568  0.0613  0.2485 -0.0373
  497loPI   C4A 7946  11.130  17.207   8.090  0.4129  0.2373  0.1314
  497loPI   C5A 7947  11.009  16.771   7.991 -0.2427 -0.2566 -0.2189
  497loPI   C6A 7948  11.204  16.479   8.232  0.3382  0.2611 -0.0207
  497loPI   C1B 7949  10.892  16.968   9.210  0.1296  0.0002 -0.0567
  497loPI   C2B 7950  10.741  17.094   8.778 -0.1287  0.1560 -0.2482
  497loPI   C3B 7951  10.647  17.276   8.497  0.1565 -0.2390 -0.1616
  497loPI   C4B 7952  10.628  17.162   8.155 -0.0307  0.1350 -0.2605
  498loPI    C1 7953  15.598   1.651   9.958 -0.1450  0.1466  0.0953
  498loPI    C2 7954  15.961   1.630  10.124 -0.1585 -0.4099  0.0717
  498loPI    C3 7955  15.643   1.717  10.350 -0.0205  0.0527  0.0975
  498loPI   PO4 7956  15.598   1.804   9.792 -0.5570 -0.1400 -0.0084
  498loPI   GL1 7957  15.700   1.970   9.331 -0.1181 -0.1906  0.0964
  498loPI   GL2 7958  16.018   1.815   9.240  0.1609  0.1111  0.1142
  498loPI   C1A 7959  15.779   2.058   8.847  0.1008 -0.3686 -0.0593
  498loPI   C2A 7960  15.675   2.266   8.446 -0.1283  0.1128  0.3371
  498loPI   C3A 7961  15.761   2.648   8.167 -0.0364  0.0720  0.0935
  498loPI   C4A 7962  15.721   2.672   7.774 -0.3575  0.0641  0.0749
  498loPI   C5A 7963  15.974   2.725   7.410  0.2405  0.1048  0.1260
  498loPI   C6A 7964  16.291   2.710   7.063  0.0334 -0.0196  0.1837
  498loPI   C1B 7965  16.132   1.683   8.897  0.2913 -0.2056 -0.0956
  498loPI   C2B 7966  15.990   1.751   8.477 -0.1991 -0.0304  0.1050
  498loPI   C3B 7967  16.282   1.903   8.073 -0.1952  0.2914 -0.1170
  498loPI   C4B 7968  16.353   1.949   7.627  0.3263 -0.1428  0.0098
  499loPI    C1 7969  14.584  12.508  10.690  0.1824 -0.2290  0.1611
  499loPI    C2 7970  14.637  12.717  11.027 -0.1690  0.1838 -0.0306
  499loPI    C3 7971  14.323  12.473  10.991 -0.0460  0.0196 -0.0040
  499loPI   PO4 7972  14.634  12.702  10.495  0.1572 -0.1098  0.1136
  499loPI   GL1 7973  14.774  12.896  10.090 -0.0228 -0.1705  0.0309
  499loPI   GL2 7974  14.776  12.492   9.869  0.0066 -0.1422  0.0436
  499loPI   C1A 7975  14.906  12.941   9.606  0.0048  0.2025 -0.0998
  499loPI   C2A 7976  15.073  13.127   9.190  0.1345 -0.1851  0.1628
  499loPI   C3A 7977  15.000  12.989   8.799  0.1338  0.3851 -0.2365
  499loPI   C4A 7978  14.999  12.819   8.408 -0.1631 -0.0642 -0.0746
  499loPI   C5A 7979  14.972  12.705   8.058  0.2772  0.3805  0.1653
  499loPI   C6A 7980  14.756  12.780   7.807  0.1527  0.2344  0.0424
  499loPI   C1B 7981  14.789  12.501   9.453 -0.1366  0.1336  0.0607
  499loPI   C2B 7982  14.880  12.580   9.075 -0.6029 -0.1073 -0.0114
  499loPI   C3B 7983  14.824  12.427   8.642 -0.0353  0.1840  0.2787
  499loPI   C4B 7984  14.984  12.251   8.268 -0.0379 -0.2786 -0.1620
  500loPI    C1 7985   9.375   9.154  10.727  0.1361 -0.2212  0.0462
  500loPI    C2 7986   9.458   8.855  10.475  0.2102 -0.1735  0.0137
  500loPI    C3 7987   9.316   8.775  10.840 -0.3145 -0.2296 -0.1940
  500loPI   PO4 7988   9.632   9.355  10.725  0.3109 -0.3267 -0.0479
  500loPI   GL1 7989   9.885   9.404  10.334  0.0483 -0.2383  0.1795
  500loPI   GL2 7990   9.694   9.690  10.207  0.3549  0.1864 -0.1065
  500loPI   C1A 7991   9.838   9.072  10.038 -0.1989 -0.1120 -0.1834
  500loPI   C2A 7992   9.858   8.740   9.675 -0.0741 -0.0213  0.0238
  500loPI   C3A 7993   9.875   8.737   9.254 -0.0478  0.0209 -0.3881
  500loPI   C4A 7994   9.924   8.832   8.955 -0.1129 -0.0027  0.0852
  500loPI   C5A 7995   9.861   8.730   8.418 -0.5306 -0.2311 -0.0383
  500loPI   C6A 7996   9.737   8.777   8.025  0.4505  0.1659  0.2048
  500loPI   C1B 7997   9.577   9.605   9.764  0.0891 -0.2698 -0.1911
  500loPI   C2B 7998   9.287   9.523   9.503 -0.0679  0.0654 -0.0260
  500loPI   C3B 7999   9.089   9.342   9.082  0.0279 -0.1606 -0.0073
  500loPI   C4B 8000   8.929   9.164   8.623  0.0036  0.0221  0.1033
  501loPI    C1 8001   3.209   2.012  10.604 -0.0214  0.0485  0.2042
  501loPI    C2 8002   3.286   2.318  10.849 -0.0648  0.1974  0.0334
  501loPI    C3 8003   3.558   2.029  10.800  0.0962  0.3566 -0.0243
  501loPI   PO4 8004   3.165   2.115  10.333 -0.2529  0.0213 -0.1315
  501loPI   GL1 8005   3.390   2.005   9.950  0.2567 -0.3623  0.0381
  501loPI   GL2 8006   3.139   2.002   9.862 -0.1367  0.0653 -0.1109
  501loPI   C1A 8007   3.370   1.771   9.469  0.2331  0.3826 -0.1160
  501loPI   C2A 8008   3.335   1.940   8.999 -0.3528  0.1967  0.1244
  501loPI   C3A 8009   3.416   2.201   8.771  0.0577 -0.2439  0.0283
  501loPI   C4A 8010   3.310   2.136   8.420  0.0947  0.0869 -0.1322
  501loPI   C5A 8011   3.444   2.101   7.995 -0.1013  0.0404 -0.0110
  501loPI   C6A 8012   3.623   2.270   7.678 -0.2847 -0.1937 -0.0556
  501loPI   C1B 8013   2.917   1.807   9.447  0.2512 -0.0190  0.1896
  501loPI   C2B 8014   2.778   1.912   9.077 -0.2526  0.3178  0.0168
  501loPI   C3B 8015   2.745   2.139   8.710  0.0815  0.1322  0.2883
  501loPI   C4B 8016   2.725   2.239   8.299  0.2482 -0.2290  0.0943
  502loPI    C1 8017   4.918   2.691  10.347 -0.0073  0.1615  0.0455
  502loPI    C2 8018   5.248   2.534  10.510 -0.0537  0.1262  0.1060
  502loPI    C3 8019   4.894   2.485  10.689 -0.0945  0.1492  0.0322
  502loPI   PO4 8020   4.880   2.602  10.129 -0.2127  0.3808  0.0219
  502loPI   GL1 8021   5.023   2.580   9.686  0.0663  0.1643 -0.0627
  502loPI   GL2 8022   5.122   2.882   9.719 -0.3545  0.1461 -0.2722
  502loPI   C1A 8023   4.843   2.672   9.362  0.2761 -0.1840  0.0034
  502loPI   C2A 8024   4.928   2.989   9.027  0.0975  0.1907  0.1699
  502loPI   C3A 8025   5.024   3.159   8.598 -0.2737 -0.0894  0.0224
  502loPI   C4A 8026   5.215   3.183   8.225 -0.1133  0.1805  0.1881
  502loPI   C5A 8027   5.391   3.454   7.908 -0.0818 -0.1532  0.0770
  502loPI   C6A 8028   5.655   3.813   7.618  0.1557 -0.0797  0.1303
  502loPI   C1B 8029   5.337   2.986   9.387 -0.1044 -0.2400  0.2033
  502loPI   C2B 8030   5.297   3.337   9.090 -0.1893  0.1359 -0.0852
  502loPI   C3B 8031   5.097   3.630   8.860 -0.0613 -0.0260  0.2247
  502loPI   C4B 8032   5.058   3.682   8.416 -0.1183 -0.1361  0.3200
  503loPI    C1 8033   5.463   9.929  10.737  0.0170  0.0477 -0.0436
  503loPI    C2 8034   5.456   9.535  10.666 -0.1454  0.0522 -0.0570
  503loPI    C3 8035   5.667   9.679  10.974  0.0237 -0.0317 -0.1322
  503loPI   PO4 8036   5.369   9.964  10.474 -0.0764 -0.0398 -0.2021
  503loPI   GL1 8037   5.306   9.752  10.159  0.0346  0.2112 -0.0815
  503loPI   GL2 8038   4.993   9.803  10.171 -0.3044  0.1748  0.0591
  503loPI   C1A 8039   5.186   9.972   9.760  0.1150  0.3808 -0.1892
  503loPI   C2A 8040   5.263   9.920   9.323  0.0420  0.0127  0.0201
  503loPI   C3A 8041   5.411   9.837   8.963 -0.3678  0.2826 -0.0047
  503loPI   C4A 8042   5.309   9.968   8.541 -0.3078 -0.0372 -0.1621
  503loPI   C5A 8043   5.358   9.971   8.139  0.1683 -0.2761  0.1277
  503loPI   C6A 8044   5.431  10.321   7.902 -0.2913  0.1738  0.0959
  503loPI   C1B 8045   4.547   9.924  10.001 -0.1169 -0.0647  0.0656
  503loPI   C2B 8046   4.344  10.054   9.504 -0.2467  0.1427 -0.2562
  503loPI   C3B 8047   4.434   9.894   9.066  0.1541  0.1301  0.0017
  503loPI   C4B 8048   4.513   9.876   8.592  0.1936  0.3579  0.2369
  504loPI    C1 8049   0.336  10.563  10.934 -0.0260 -0.0638  0.1389
  504loPI    C2 8050   0.140  10.787  11.201 -0.2450 -0.1441  0.0477
  504loPI    C3 8051   0.377  10.489  11.325  0.0180  0.1105  0.1682
  504loPI   PO4 8052   0.241  10.487  10.736 -0.0756  0.1498 -0.1428
  504loPI   GL1 8053   0.088  10.781  10.410  0.3642 -0.2214  0.3709
  504loPI   GL2 8054  -0.309  10.671  10.422 -0.1737 -0.0979  0.5757
  504loPI   C1A 8055   0.181  10.774   9.952  0.0651 -0.1069  0.0683
  504loPI   C2A 8056   0.358  10.906   9.625  0.1525  0.0861 -0.0929
  504loPI   C3A 8057   0.305  10.865   9.236  0.1013 -0.0232 -0.0155
  504loPI   C4A 8058   0.322  10.866   8.811 -0.1253  0.2722 -0.0731
  504loPI   C5A 8059   0.455  10.809   8.234  0.0151  0.0005 -0.4422
  504loPI   C6A 8060   0.639  11.101   7.997 -0.0269  0.2077 -0.0790
  504loPI   C1B 8061  -0.272  10.673  10.034 -0.1379  0.0083 -0.2731
  504loPI   C2B 8062  -0.169  10.762   9.602 -0.0811  0.0196 -0.0204
  504loPI   C3B 8063  -0.160  10.738   9.176  0.0562  0.1688 -0.0612
  504loPI   C4B 8064  -0.047  10.484   8.735 -0.1425  0.3207  0.5905
  505loPI    C1 8065  14.379   2.265  10.420  0.0488 -0.0201  0.1242
  505loPI    C2 8066  14.127   2.564  10.337  0.1357  0.0358  0.0598
  505loPI    C3 8067  14.008   2.263  10.572  0.0006  0.0484  0.0089
  505loPI   PO4 8068  14.461   2.147  10.175  0.3940  0.2963  0.1400
  505loPI   GL1 8069  14.302   2.254   9.697 -0.1907  0.1231 -0.1168
  505loPI   GL2 8070  14.662   2.151   9.605 -0.0862  0.0281 -0.3404
  505loPI   C1A 8071  14.115   2.238   9.303 -0.0514 -0.2151  0.1184
  505loPI   C2A 8072  14.160   2.181   8.956 -0.1098  0.5456 -0.1166
  505loPI   C3A 8073  14.170   2.213   8.514 -0.0626  0.0685  0.1577
  505loPI   C4A 8074  14.093   2.024   8.232  0.0618  0.1976  0.0688
  505loPI   C5A 8075  14.149   1.814   7.786 -0.1417  0.0564 -0.3504
  505loPI   C6A 8076  13.927   1.562   7.621  0.4461 -0.1606  0.0566
  505loPI   C1B 8077  14.646   2.164   9.217 -0.3251  0.0974 -0.0262
  505loPI   C2B 8078  14.542   1.966   8.728 -0.0652 -0.2330  0.3947
  505loPI   C3B 8079  14.594   1.834   8.229 -0.1285  0.1490 -0.2160
  505loPI   C4B 8080  14.608   1.601   7.772  0.0507  0.0290 -0.1985
  506loPI    C1 8081  17.543  12.897  10.735  0.0402  0.1374 -0.0158
  506loPI    C2 8082  17.620  12.611  11.004 -0.0782 -0.0071 -0.1328
  506loPI    C3 8083  17.904  12.875  10.904  0.1342 -0.2783 -0.2562
  506loPI   PO4 8084  17.417  12.746  10.526 -0.1595  0.4211  0.2768
  506loPI   GL1 8085  17.380  12.840  10.165  0.0891 -0.3411 -0.3292
  506loPI   GL2 8086  17.147  13.020  10.047  0.0813 -0.3076 -0.0507
  506loPI   C1A 8087  17.640  12.928   9.927  0.1168  0.1972 -0.1816
  506loPI   C2A 8088  17.528  12.903   9.508  0.1720  0.2821 -0.2026
  506loPI   C3A 8089  17.583  12.902   9.139 -0.1345 -0.4484 -0.0151
  506loPI   C4A 8090  17.707  12.790   8.781  0.0892 -0.0220  0.0060
  506loPI   C5A 8091  17.745  12.895   8.449 -0.1049  0.0816  0.1495
  506loPI   C6A 8092  17.764  12.851   7.932 -0.0903  0.2379  0.0953
  506loPI   C1B 8093  17.124  13.085   9.621  0.0404  0.0843  0.0861
  506loPI   C2B 8094  17.184  13.160   9.190 -0.2391 -0.1794 -0.4365
  506loPI   C3B 8095  17.235  13.197   8.724  0.1451  0.1317  0.0915
  506loPI   C4B 8096  17.415  13.172   8.233 -0.0145 -0.0033 -0.2743
  507loPI    C1 8097  10.648   2.122  10.624  0.0486 -0.0960  0.0384
  507loPI    C2 8098  10.608   1.852  10.917  0.0855  0.1170  0.2424
  507loPI    C3 8099  10.312   2.111  10.841  0.0995  0.1003  0.1295
  507loPI   PO4 8100  10.729   1.963  10.343  0.3096 -0.1188  0.0969
  507loPI   GL1 8101  10.701   2.009   9.913  0.0673 -0.0287 -0.0724
  507loPI   GL2 8102  10.644   1.599   9.859  0.0958 -0.0261  0.0583
  507loPI   C1A 8103  10.679   2.083   9.541  0.1889  0.0122  0.2003
  507loPI   C2A 8104  10.657   2.033   9.057 -0.2818  0.0557 -0.4107
  507loPI   C3A 8105  10.671   2.000   8.658  0.1832  0.0233  0.1212
  507loPI   C4A 8106  10.861   2.043   8.166 -0.0017  0.0429  0.0157
  507loPI   C5A 8107  11.066   2.020   7.786 -0.0316  0.0478  0.1418
  507loPI   C6A 8108  11.400   2.180   7.550  0.1985  0.3070 -0.1187
  507loPI   C1B 8109  10.366   1.595   9.516 -0.1144 -0.4045 -0.1454
  507loPI   C2B 8110  10.270   1.617   9.059 -0.2009 -0.5460 -0.1919
  507loPI   C3B 8111  10.265   1.726   8.741  0.2176  0.0424 -0.0919
  507loPI   C4B 8112  10.391   1.821   8.264 -0.2264 -0.0536 -0.0297
  508loPI    C1 8113  17.089  15.435  10.679  0.0301  0.1708 -0.0259
  508loPI    C2 8114  16.751  15.449  10.893 -0.0384  0.0260 -0.1231
  508loPI    C3 8115  17.102  15.389  11.076 -0.0897 -0.0370 -0.0449
  508loPI   PO4 8116  17.122  15.621  10.421 -0.1539  0.1399  0.2029
  508loPI   GL1 8117  17.235  15.534   9.958 -0.2942 -0.1261  0.1246
  508loPI   GL2 8118  17.415  15.290   9.856 -0.0023 -0.1416  0.3175
  508loPI   C1A 8119  16.933  15.500   9.598 -0.1652 -0.2424 -0.0023
  508loPI   C2A 8120  17.142  15.370   9.198  0.1774  0.1054  0.2478
  508loPI   C3A 8121  17.197  15.407   8.692  0.2392  0.0036 -0.1041
  508loPI   C4A 8122  16.969  15.229   8.273  0.0350 -0.0363 -0.1173
  508loPI   C5A 8123  16.819  15.145   7.895 -0.1554  0.1429 -0.1519
  508loPI   C6A 8124  16.721  14.726   7.598  0.1045  0.1728  0.2750
  508loPI   C1B 8125  17.528  15.138   9.440 -0.0686  0.1718  0.1979
  508loPI   C2B 8126  17.566  15.026   9.051 -0.1418  0.0039  0.1633
  508loPI   C3B 8127  17.604  15.130   8.587  0.1411 -0.0196 -0.0232
  508loPI   C4B 8128  17.658  14.996   8.238 -0.2166  0.2573 -0.0945
  509loPI    C1 8129  17.522   3.440  10.678 -0.0701 -0.2859  0.2318
  509loPI    C2 8130  17.821   3.678  10.561 -0.2199 -0.2575 -0.1051
  509loPI    C3 8131  17.713   3.668  10.946  0.0586 -0.0928 -0.0193
  509loPI   PO4 8132  17.382   3.454  10.314 -0.1698  0.2642  0.0554
  509loPI   GL1 8133  17.622   3.403   9.905  0.2520 -0.0573 -0.1803
  509loPI   GL2 8134  17.362   3.243   9.771  0.2065 -0.1568 -0.1197
  509loPI   C1A 8135  17.849   3.419   9.531  0.4641  0.1847  0.0873
  509loPI   C2A 8136  17.865   3.426   9.113  0.0802  0.0883  0.2047
  509loPI   C3A 8137  17.669   3.470   8.680 -0.1483  0.1925 -0.0930
  509loPI   C4A 8138  17.736   3.369   8.325  0.0076 -0.1667  0.0705
  509loPI   C5A 8139  17.777   3.467   7.990 -0.0325  0.2588  0.0940
  509loPI   C6A 8140  18.233   3.498   7.845 -0.0058 -0.0670 -0.1404
  509loPI   C1B 8141  17.385   3.340   9.303 -0.1029  0.0369  0.1637
  509loPI   C2B 8142  17.284   3.318   8.872 -0.1226  0.1533 -0.0076
  509loPI   C3B 8143  17.229   3.238   8.399  0.1238  0.3798  0.2197
  509loPI   C4B 8144  17.373   3.156   7.909  0.2747  0.3028 -0.3065
  510loPI    C1 8145   6.922  16.654  10.307 -0.0185 -0.2722  0.0621
  510loPI    C2 8146   6.738  16.569  10.652 -0.1824 -0.2241 -0.0125
  510loPI    C3 8147   7.116  16.699  10.654 -0.1975 -0.1802  0.1519
  510loPI   PO4 8148   6.921  16.523  10.104 -0.0914  0.1191 -0.1189
  510loPI   GL1 8149   7.103  16.488   9.796 -0.2669  0.3322  0.1852
  510loPI   GL2 8150   7.153  16.627   9.513 -0.2267 -0.0104 -0.2285
  510loPI   C1A 8151   6.971  16.166   9.417 -0.0065  0.1841 -0.4660
  510loPI   C2A 8152   6.511  16.070   9.206 -0.1248 -0.0443  0.1263
  510loPI   C3A 8153   6.310  16.135   8.848 -0.0895  0.2550  0.0101
  510loPI   C4A 8154   6.248  16.219   8.471  0.2507  0.1073  0.3927
  510loPI   C5A 8155   6.297  16.381   8.120 -0.0759  0.1648  0.1207
  510loPI   C6A 8156   6.392  16.544   7.747 -0.0448  0.1155  0.2594
  510loPI   C1B 8157   7.203  16.871   9.103 -0.1467  0.3061 -0.3012
  510loPI   C2B 8158   7.354  16.931   8.738 -0.2007  0.2420 -0.0048
  510loPI   C3B 8159   7.330  17.104   8.303  0.1699  0.0628 -0.1912
  510loPI   C4B 8160   7.224  17.006   7.934 -0.2228  0.2082  0.1904
  511loPI    C1 8161  16.472  11.711  10.699 -0.1072 -0.0865 -0.0433
  511loPI    C2 8162  16.144  11.752  10.925 -0.2698 -0.2124 -0.2518
  511loPI    C3 8163  16.419  11.477  11.019 -0.0786  0.0850  0.0884
  511loPI   PO4 8164  16.458  11.893  10.435  0.1730  0.3848  0.2096
  511loPI   GL1 8165  16.653  12.140  10.071  0.4274  0.2311 -0.1182
  511loPI   GL2 8166  16.744  11.853   9.893 -0.0810 -0.0994  0.1258
  511loPI   C1A 8167  16.639  12.381   9.700 -0.1917  0.1132  0.0941
  511loPI   C2A 8168  16.691  12.406   9.191  0.1915 -0.0877  0.0237
  511loPI   C3A 8169  16.823  12.312   8.782  0.1330 -0.0781  0.0370
  511loPI   C4A 8170  16.970  12.426   8.394 -0.0182  0.0248 -0.2885
  511loPI   C5A 8171  16.695  12.468   8.128 -0.0936  0.3418 -0.1033
  511loPI   C6A 8172  16.542  12.813   7.827 -0.1924  0.2214  0.0786
  511loPI   C1B 8173  16.604  11.906   9.533 -0.0043 -0.1169 -0.1312
  511loPI   C2B 8174  16.629  11.850   9.148 -0.0598 -0.2561  0.2574
  511loPI   C3B 8175  16.640  11.808   8.751  0.4618  0.1568 -0.4539
  511loPI   C4B 8176  16.727  11.984   8.399 -0.0931 -0.0659  0.0919
  512loPI    C1 8177   4.129  13.278  10.906 -0.2012 -0.1943 -0.1290
  512loPI    C2 8178   3.890  13.372  11.213  0.0783  0.1404 -0.0074
  512loPI    C3 8179   4.076  13.018  11.206 -0.2648 -0.0444 -0.0086
  512loPI   PO4 8180   4.130  13.443  10.678 -0.2535 -0.1104 -0.0940
  512loPI   GL1 8181   3.937  13.487  10.168  0.1311 -0.1307 -0.1835
  512loPI   GL2 8182   4.127  13.711  10.189 -0.0630  0.1036 -0.1059
  512loPI   C1A 8183   4.127  13.346   9.755 -0.2689 -0.2413 -0.0250
  512loPI   C2A 8184   4.129  13.348   9.344 -0.1588  0.5788  0.1604
  512loPI   C3A 8185   4.048  13.290   8.894 -0.0273 -0.2319  0.0825
  512loPI   C4A 8186   4.134  13.327   8.506  0.0343 -0.1203 -0.0790
  512loPI   C5A 8187   4.113  13.669   8.183  0.1553  0.1465  0.5056
  512loPI   C6A 8188   4.201  13.719   7.776  0.3186 -0.0993  0.2772
  512loPI   C1B 8189   4.157  13.884   9.813 -0.1465  0.0842 -0.0281
  512loPI   C2B 8190   4.199  13.846   9.400  0.1906 -0.1230 -0.3814
  512loPI   C3B 8191   4.146  13.851   9.033  0.0170 -0.0463  0.0580
  512loPI   C4B 8192   4.105  13.818   8.642  0.0800  0.1436 -0.0659
  513loPI    C1 8193   0.870  10.286  10.912  0.1481  0.0071 -0.1351
  513loPI    C2 8194   1.170  10.176  11.153  0.0866  0.1083 -0.0113
  513loPI    C3 8195   0.920  10.468  11.265 -0.1021 -0.0246 -0.0817
  513loPI   PO4 8196   1.026  10.261  10.645  0.4796 -0.0634 -0.3105
  513loPI   GL1 8197   1.229  10.149  10.315 -0.3484  0.0698  0.2864
  513loPI   GL2 8198   1.123   9.932  10.196  0.1066  0.3017  0.0041
  513loPI   C1A 8199   1.208  10.245   9.827 -0.2165  0.2029 -0.3627
  513loPI   C2A 8200   1.148  10.283   9.310  0.0343 -0.1088 -0.3537
  513loPI   C3A 8201   1.264  10.323   8.972  0.1621 -0.0304 -0.0623
  513loPI   C4A 8202   1.315  10.370   8.556  0.2374 -0.3985  0.0912
  513loPI   C5A 8203   1.338  10.464   8.149 -0.0351 -0.0645 -0.1927
  513loPI   C6A 8204   1.442  10.204   7.772  0.1671  0.1729  0.4194
  513loPI   C1B 8205   1.227   9.770   9.810  0.1631 -0.2633  0.4033
  513loPI   C2B 8206   1.266   9.801   9.384  0.0615  0.2060  0.3062
  513loPI   C3B 8207   1.270   9.855   8.933  0.0216 -0.1129 -0.1362
  513loPI   C4B 8208   1.257   9.694   8.492  0.0104 -0.3818  0.2108
  514loPI    C1 8209  10.326   3.410  10.186 -0.3485 -0.0101  0.1451
  514loPI    C2 8210  10.596   3.121  10.133 -0.1046  0.2804 -0.2517
  514loPI    C3 8211  10.381   3.134  10.470  0.1090 -0.1696 -0.0893
  514loPI   PO4 8212  10.441   3.612  10.171 -0.0666 -0.2286  0.1466
  514loPI   GL1 8213  10.561   3.908   9.903 -0.2491 -0.1798 -0.1429
  514loPI   GL2 8214  10.258   4.036   9.946  0.4340 -0.1559  0.0373
  514loPI   C1A 8215  10.641   4.003   9.403 -0.5349  0.1501 -0.1873
  514loPI   C2A 8216  10.624   4.032   8.949  0.1667  0.3343  0.2464
  514loPI   C3A 8217  10.691   4.048   8.431  0.3148  0.0886  0.0075
  514loPI   C4A 8218  10.607   4.105   7.951  0.1171 -0.1127  0.1854
  514loPI   C5A 8219  10.274   4.344   7.931 -0.0395  0.1273 -0.1878
  514loPI   C6A 8220   9.834   4.229   7.835  0.1479  0.0290 -0.0119
  514loPI   C1B 8221  10.185   4.226   9.667  0.5186  0.0293  0.1077
  514loPI   C2B 8222  10.274   4.316   9.357  0.0168 -0.0731  0.2183
  514loPI   C3B 8223  10.174   4.317   8.908  0.0370  0.2631  0.0313
  514loPI   C4B 8224  10.183   4.321   8.471 -0.1000  0.1155 -0.1641
  515loPI    C1 8225  16.322   3.756  10.384  0.1166  0.1351 -0.0739
  515loPI    C2 8226  16.418   3.482  10.659 -0.4427 -0.0098 -0.0103
  515loPI    C3 8227  16.438   3.872  10.749 -0.1839 -0.0426  0.0821
  515loPI   PO4 8228  16.508   3.668  10.167 -0.0400  0.3638 -0.0451
  515loPI   GL1 8229  16.730   3.580   9.752  0.1941 -0.1243  0.0769
  515loPI   GL2 8230  16.442   3.383   9.689 -0.1215 -0.0236  0.1566
  515loPI   C1A 8231  16.835   3.565   9.325  0.2634 -0.2687 -0.1234
  515loPI   C2A 8232  16.937   3.603   8.826 -0.0462  0.2349 -0.1712
  515loPI   C3A 8233  17.248   3.732   8.604 -0.0435  0.1193  0.1977
  515loPI   C4A 8234  17.290   3.682   8.148  0.0254 -0.0013  0.1856
  515loPI   C5A 8235  17.376   3.598   7.751 -0.0997 -0.1435  0.1186
  515loPI   C6A 8236  17.493   3.385   7.451  0.0148 -0.1071  0.0560
  515loPI   C1B 8237  16.374   3.287   9.300  0.0520  0.1389  0.0931
  515loPI   C2B 8238  16.439   3.444   8.893  0.0304  0.0970 -0.1184
  515loPI   C3B 8239  16.562   3.235   8.552 -0.0031 -0.0149  0.0826
  515loPI   C4B 8240  16.761   3.144   8.152 -0.1129 -0.4442 -0.0641
  516loPI    C1 8241   6.625   3.774  11.066  0.0852 -0.1718 -0.0562
  516loPI    C2 8242   6.582   3.688  11.454  0.0783 -0.1852 -0.0599
  516loPI    C3 8243   6.929   3.833  11.319 -0.0340  0.1625  0.0147
  516loPI   PO4 8244   6.727   3.522  10.858  0.3674 -0.1226 -0.0876
  516loPI   GL1 8245   6.601   3.396  10.496 -0.2254 -0.2782 -0.0339
  516loPI   GL2 8246   6.790   3.179  10.377 -0.0439  0.0452 -0.0150
  516loPI   C1A 8247   6.770   3.704  10.165  0.2248 -0.0162  0.0601
  516loPI   C2A 8248   6.837   3.928   9.776  0.0263  0.0902 -0.0327
  516loPI   C3A 8249   6.932   3.983   9.387 -0.2192  0.1578 -0.1594
  516loPI   C4A 8250   6.916   4.067   8.928 -0.0514 -0.2172 -0.0067
  516loPI   C5A 8251   7.046   4.160   8.516  0.3018  0.1740 -0.0959
  516loPI   C6A 8252   7.200   3.963   8.162 -0.0797 -0.2208 -0.2104
  516loPI   C1B 8253   7.050   3.337  10.047 -0.0513  0.2039 -0.0140
  516loPI   C2B 8254   6.986   3.415   9.612  0.1814 -0.1268  0.2582
  516loPI   C3B 8255   6.958   3.515   9.137 -0.1196 -0.0965 -0.1638
  516loPI   C4B 8256   7.016   3.596   8.775 -0.2155  0.4792 -0.0343
  517loPI    C1 8257   1.597   0.931  10.392  0.0856 -0.0037  0.1212
  517loPI    C2 8258   1.908   1.102  10.207  0.2270 -0.2669  0.1106
  517loPI    C3 8259   1.958   0.931  10.565  0.0643 -0.1970  0.1677
  517loPI   PO4 8260   1.343   1.077  10.355  0.0169  0.0151  0.0752
  517loPI   GL1 8261   1.336   1.159   9.882  0.0389 -0.0693  0.3145
  517loPI   GL2 8262   1.583   0.906   9.891 -0.1269 -0.0789  0.3153
  517loPI   C1A 8263   1.355   1.409   9.411 -0.2317  0.3732  0.0072
  517loPI   C2A 8264   1.438   1.355   8.855  0.3134 -0.1352  0.2283
  517loPI   C3A 8265   1.443   1.513   8.389  0.2847  0.0825 -0.2878
  517loPI   C4A 8266   1.574   1.467   7.958  0.1019 -0.1535  0.0401
  517loPI   C5A 8267   1.869   1.219   7.629 -0.3451 -0.3837 -0.2180
  517loPI   C6A 8268   2.015   1.338   7.217  0.0657  0.2670  0.2229
  517loPI   C1B 8269   1.693   1.012   9.506 -0.2193  0.0570  0.0534
  517loPI   C2B 8270   1.730   1.019   9.108  0.1259  0.0435  0.0517
  517loPI   C3B 8271   1.844   0.889   8.630  0.1583 -0.2587 -0.2356
  517loPI   C4B 8272   1.850   1.057   8.168  0.4013  0.1924 -0.2710
  518loPI    C1 8273  16.182   2.370  10.026  0.1740 -0.0842 -0.1389
  518loPI    C2 8274  16.302   2.027  10.195 -0.1285 -0.2118 -0.1777
  518loPI    C3 8275  15.926   2.154  10.245  0.0029  0.1582 -0.0969
  518loPI   PO4 8276  16.298   2.382   9.800 -0.0341  0.0677 -0.3827
  518loPI   GL1 8277  16.673   2.462   9.610 -0.3193  0.1635 -0.2109
  518loPI   GL2 8278  17.074   2.305   9.600  0.0728  0.0255  0.0624
  518loPI   C1A 8279  16.814   2.497   9.290 -0.2352  0.0256 -0.0621
  518loPI   C2A 8280  17.160   2.583   8.915  0.0741  0.2248  0.2173
  518loPI   C3A 8281  17.370   2.360   8.637  0.1279  0.1973 -0.0414
  518loPI   C4A 8282  17.630   2.382   8.256 -0.3289  0.3804  0.3287
  518loPI   C5A 8283  17.596   2.121   7.813 -0.1454  0.0620 -0.1583
  518loPI   C6A 8284  17.885   2.253   7.516 -0.1366  0.1260 -0.2362
  518loPI   C1B 8285  17.255   2.117   9.229 -0.0913  0.0644  0.2236
  518loPI   C2B 8286  17.254   1.921   8.828  0.2830  0.0692 -0.0093
  518loPI   C3B 8287  17.184   1.660   8.508 -0.0531 -0.5087 -0.1930
  518loPI   C4B 8288  17.239   1.754   8.126 -0.2194  0.0185  0.2048
  519loPI    C1 8289  16.668   8.748  10.835 -0.1589  0.0929  0.0197
  519loPI    C2 8290  17.032   8.677  10.985 -0.1333  0.1598 -0.0097
  519loPI    C3 8291  16.707   8.623  11.213 -0.1086  0.0485  0.0000
  519loPI   PO4 8292  16.852   8.781  10.478 -0.0267 -0.3262  0.2099
  519loPI   GL1 8293  17.074   8.569  10.096 -0.2041  0.0180 -0.2772
  519loPI   GL2 8294  16.872   8.820   9.995 -0.0402  0.1422  0.2102
  519loPI   C1A 8295  17.103   8.418   9.728 -0.1305 -0.2058 -0.2269
  519loPI   C2A 8296  17.126   8.326   9.298 -0.1623  0.0014 -0.1661
  519loPI   C3A 8297  17.059   8.394   8.876  0.0527  0.4477  0.0546
  519loPI   C4A 8298  17.090   8.450   8.494  0.0120  0.0795  0.2090
  519loPI   C5A 8299  17.233   8.346   8.085  0.0229 -0.1821  0.2589
  519loPI   C6A 8300  17.358   8.487   7.708  0.4119 -0.1034 -0.1642
  519loPI   C1B 8301  16.967   8.916   9.554 -0.1641  0.0087 -0.2145
  519loPI   C2B 8302  17.070   8.916   9.127  0.2499  0.2309 -0.0194
  519loPI   C3B 8303  17.013   8.933   8.675  0.1151 -0.0211 -0.0103
  519loPI   C4B 8304  17.188   8.955   8.265  0.2064  0.0940  0.0006
  520loPI    C1 8305  17.860  10.600  11.096  0.0425  0.0273  0.1015
  520loPI    C2 8306  17.886  10.703  10.711 -0.0351  0.0334  0.0977
  520loPI    C3 8307  17.656  10.916  10.960  0.0383  0.0471  0.1539
  520loPI   PO4 8308  17.905  10.235  10.938 -0.1817  0.3498 -0.3290
  520loPI   GL1 8309  17.953  10.219  10.540 -0.1195 -0.0303  0.0646
  520loPI   GL2 8310  18.190  10.157  10.468 -0.2391  0.1466  0.0353
  520loPI   C1A 8311  17.971  10.317  10.107 -0.0840  0.0232  0.2818
  520loPI   C2A 8312  17.978  10.403   9.688  0.1138 -0.1576 -0.1532
  520loPI   C3A 8313  17.919  10.448   9.265  0.0713  0.2078 -0.1519
  520loPI   C4A 8314  18.016  10.465   8.764 -0.1325 -0.0341  0.1636
  520loPI   C5A 8315  18.122  10.429   8.325 -0.2213 -0.1352 -0.2382
  520loPI   C6A 8316  18.277  10.650   7.897 -0.0728  0.3474  0.0535
  520loPI   C1B 8317  18.355   9.742  10.157 -0.2988  0.0262 -0.0679
  520loPI   C2B 8318  18.473   9.645   9.782  0.1400  0.1750  0.1236
  520loPI   C3B 8319  18.350   9.526   9.322 -0.0599 -0.0373  0.0142
  520loPI   C4B 8320  18.441   9.505   8.925 -0.1521 -0.0061 -0.1866
  521loPI    C1 8321   6.227  16.719  10.027  0.2159  0.0844 -0.5449
  521loPI    C2 8322   6.455  16.449  10.214 -0.1660  0.1981  0.1174
  521loPI    C3 8323   6.436  16.824  10.351 -0.4229  0.3000 -0.1846
  521loPI   PO4 8324   6.278  16.662   9.734  0.1231 -0.2922 -0.0836
  521loPI   GL1 8325   6.654  16.687   9.712 -0.0690  0.2514  0.2911
  521loPI   GL2 8326   6.749  17.049   9.555  0.0903  0.1777  0.2433
  521loPI   C1A 8327   6.661  16.586   9.245 -0.0738  0.0158 -0.0135
  521loPI   C2A 8328   6.863  16.559   8.862 -0.0632  0.0945  0.0330
  521loPI   C3A 8329   7.045  16.640   8.408  0.2948  0.1170 -0.2077
  521loPI   C4A 8330   7.446  16.605   8.183  0.1268  0.0356 -0.1888
  521loPI   C5A 8331   7.523  16.517   7.801 -0.1528 -0.2320  0.2213
  521loPI   C6A 8332   7.626  16.447   7.338  0.0136  0.2070  0.0366
  521loPI   C1B 8333   6.752  17.068   9.106  0.3881 -0.1061 -0.1611
  521loPI   C2B 8334   6.788  17.080   8.686 -0.0365 -0.1425  0.0064
  521loPI   C3B 8335   6.832  17.151   8.253 -0.1365 -0.0459 -0.2827
  521loPI   C4B 8336   6.931  17.386   7.826  0.1769 -0.0056 -0.1143
  522loPI    C1 8337   3.651   0.004  10.000 -0.0894  0.0344  0.0792
  522loPI    C2 8338   3.600   0.144  10.372  0.2879 -0.0478  0.1656
  522loPI    C3 8339   3.464  -0.220  10.275 -0.0315  0.0725  0.1498
  522loPI   PO4 8340   3.935  -0.006   9.989  0.2969 -0.2218 -0.1915
  522loPI   GL1 8341   4.073  -0.108   9.619  0.1433  0.1602 -0.3786
  522loPI   GL2 8342   4.309  -0.032   9.516 -0.3450 -0.3042  0.1500
  522loPI   C1A 8343   3.877  -0.043   9.272  0.1084  0.0337  0.3054
  522loPI   C2A 8344   3.940  -0.045   8.972 -0.2016  0.1141 -0.0782
  522loPI   C3A 8345   3.970   0.108   8.617  0.0561  0.3368 -0.3926
  522loPI   C4A 8346   3.944   0.464   8.373 -0.1246 -0.2176  0.0789
  522loPI   C5A 8347   3.828   0.690   7.926 -0.1504  0.0065  0.0489
  522loPI   C6A 8348   3.689   0.673   7.538  0.0163 -0.1678  0.0478
  522loPI   C1B 8349   4.604  -0.198   9.352 -0.2152  0.1822  0.1066
  522loPI   C2B 8350   4.822  -0.011   8.950 -0.1540  0.0945 -0.2000
  522loPI   C3B 8351   4.778   0.007   8.429  0.3329 -0.4209  0.0000
  522loPI   C4B 8352   4.880   0.415   8.231  0.0545  0.0378  0.1399
  523loPI    C1 8353   0.949   2.181  10.609  0.1652 -0.0265 -0.1651
  523loPI    C2 8354   0.951   2.502  10.848 -0.0486 -0.0812 -0.0882
  523loPI    C3 8355   1.120   2.160  10.970 -0.1870 -0.1190  0.0008
  523loPI   PO4 8356   0.922   2.404  10.342  0.1883  0.3704 -0.1235
  523loPI   GL1 8357   0.983   2.430   9.938 -0.0014  0.3299 -0.1446
  523loPI   GL2 8358   1.143   2.198   9.647 -0.0798 -0.1480 -0.2853
  523loPI   C1A 8359   0.796   2.626   9.498  0.3344  0.2257 -0.1577
  523loPI   C2A 8360   0.757   2.868   9.162  0.2997 -0.1185  0.1810
  523loPI   C3A 8361   0.687   3.158   8.831  0.1769  0.3724 -0.0439
  523loPI   C4A 8362   0.695   3.485   8.649 -0.0158  0.0813  0.3281
  523loPI   C5A 8363   0.412   3.698   8.296  0.0292  0.2593 -0.2097
  523loPI   C6A 8364   0.038   3.908   8.303 -0.1509 -0.2565 -0.1292
  523loPI   C1B 8365   0.872   2.229   9.240  0.0701  0.2268  0.3016
  523loPI   C2B 8366   0.884   2.515   8.873 -0.0395  0.0729 -0.1512
  523loPI   C3B 8367   0.812   2.662   8.591 -0.0355  0.0356  0.1979
  523loPI   C4B 8368   0.650   3.007   8.386  0.0117  0.0691 -0.0540
  524loPI    C1 8369  15.891   8.496  10.790  0.0148 -0.1729 -0.0411
  524loPI    C2 8370  16.219   8.582  11.003 -0.1369  0.0808  0.0949
  524loPI    C3 8371  15.871   8.519  11.189 -0.2362  0.1412 -0.0680
  524loPI   PO4 8372  15.919   8.504  10.540 -0.1701 -0.0108 -0.0192
  524loPI   GL1 8373  15.783   8.548  10.115  0.3179  0.2978 -0.1009
  524loPI   GL2 8374  16.138   8.368  10.104  0.1790 -0.0182  0.0621
  524loPI   C1A 8375  15.937   8.909   9.757  0.1882  0.2450 -0.1528
  524loPI   C2A 8376  16.099   8.931   9.296 -0.0174 -0.0300 -0.2266
  524loPI   C3A 8377  16.182   8.821   8.923 -0.2979  0.0655  0.1324
  524loPI   C4A 8378  16.177   8.864   8.414 -0.2766  0.2264  0.4044
  524loPI   C5A 8379  16.300   8.754   8.035  0.1671  0.0792  0.1738
  524loPI   C6A 8380  16.142   8.853   7.662  0.2418 -0.4627 -0.1086
  524loPI   C1B 8381  16.043   8.420   9.659  0.1355 -0.3155 -0.1035
  524loPI   C2B 8382  16.149   8.359   9.152 -0.1894  0.0875  0.1726
  524loPI   C3B 8383  16.266   8.363   8.698 -0.0060 -0.0147 -0.1341
  524loPI   C4B 8384  16.140   8.232   8.365  0.0224  0.2552  0.3197
  525loPI    C1 8385   7.854   2.902  10.600  0.1317 -0.0964 -0.0241
  525loPI    C2 8386   8.161   2.916  10.856  0.0037 -0.4089  0.1522
  525loPI    C3 8387   7.795   3.018  10.978 -0.0350 -0.4325  0.0572
  525loPI   PO4 8388   7.835   3.035  10.336 -0.0732  0.0782 -0.1554
  525loPI   GL1 8389   7.946   2.981  10.040 -0.0529 -0.2000  0.2766
  525loPI   GL2 8390   7.899   3.289   9.844  0.0793  0.1768 -0.1602
  525loPI   C1A 8391   7.881   2.937   9.530  0.1163  0.1910 -0.1059
  525loPI   C2A 8392   7.797   2.978   9.152  0.0356 -0.1140 -0.0119
  525loPI   C3A 8393   7.983   3.045   8.771 -0.0579 -0.1580  0.0060
  525loPI   C4A 8394   7.863   2.943   8.332  0.2950  0.0617  0.1867
  525loPI   C5A 8395   7.979   3.090   7.929 -0.3054  0.2586 -0.1460
  525loPI   C6A 8396   8.076   3.418   7.727 -0.1725 -0.1626 -0.0356
  525loPI   C1B 8397   7.784   3.434   9.456  0.3005  0.2836 -0.1943
  525loPI   C2B 8398   7.863   3.571   9.045  0.0076  0.0248 -0.1256
  525loPI   C3B 8399   7.918   3.531   8.630 -0.1494  0.0625  0.2808
  525loPI   C4B 8400   7.893   3.538   8.202  0.2445  0.1006 -0.1048
  526loPI    C1 8401   4.569   5.973  11.099 -0.0384  0.0181  0.1363
  526loPI    C2 8402   4.281   5.696  11.110 -0.1053  0.0698 -0.2063
  526loPI    C3 8403   4.424   5.848  11.451 -0.2031 -0.2431 -0.0204
  526loPI   PO4 8404   4.432   6.240  10.894 -0.1112  0.4837  0.2082
  526loPI   GL1 8405   4.621   6.283  10.438 -0.0910 -0.2123 -0.0159
  526loPI   GL2 8406   4.929   6.476  10.316 -0.0017 -0.0952  0.5871
  526loPI   C1A 8407   4.699   6.044  10.053 -0.1264  0.3543 -0.0218
  526loPI   C2A 8408   4.728   6.031   9.714  0.5626 -0.0376 -0.1356
  526loPI   C3A 8409   4.811   6.027   9.225 -0.1552 -0.0262  0.1662
  526loPI   C4A 8410   4.826   6.036   8.825 -0.2330  0.0780 -0.3411
  526loPI   C5A 8411   4.780   6.151   8.523  0.0571 -0.0423 -0.0091
  526loPI   C6A 8412   4.907   6.230   8.104  0.0092 -0.0278  0.0779
  526loPI   C1B 8413   4.822   6.574   9.890  0.1646 -0.0222  0.3726
  526loPI   C2B 8414   4.761   6.658   9.401 -0.0477 -0.0018 -0.1819
  526loPI   C3B 8415   4.876   6.622   8.964 -0.3510  0.4551  0.0468
  526loPI   C4B 8416   4.610   6.677   8.593  0.2490 -0.0819 -0.1328
  527loPI    C1 8417  11.325   2.440   9.962  0.2579 -0.1924 -0.1739
  527loPI    C2 8418  11.043   2.273  10.192  0.1035 -0.0825 -0.2815
  527loPI    C3 8419  11.427   2.255  10.301  0.0468 -0.1620 -0.0921
  527loPI   PO4 8420  11.296   2.718   9.970 -0.2041  0.3109 -0.1944
  527loPI   GL1 8421  11.189   3.020   9.602 -0.1079  0.0879  0.1521
  527loPI   GL2 8422  11.195   2.648   9.477 -0.2655 -0.0662  0.0848
  527loPI   C1A 8423  11.087   3.260   9.358  0.2422 -0.2619 -0.0723
  527loPI   C2A 8424  11.082   3.292   8.966 -0.1472 -0.0338 -0.1098
  527loPI   C3A 8425  11.189   3.239   8.481  0.2216  0.0230 -0.0790
  527loPI   C4A 8426  11.206   3.229   8.001 -0.0123 -0.2680  0.2381
  527loPI   C5A 8427  11.218   3.275   7.495 -0.2698 -0.0443 -0.1540
  527loPI   C6A 8428  11.161   3.486   7.122  0.0562  0.0754 -0.2670
  527loPI   C1B 8429  11.127   2.852   9.125  0.0088  0.1307 -0.0212
  527loPI   C2B 8430  11.172   2.786   8.679 -0.0587 -0.0050  0.1848
  527loPI   C3B 8431  11.180   2.819   8.254  0.3465  0.2284  0.1543
  527loPI   C4B 8432  11.273   2.779   7.720 -0.0342  0.3607 -0.1265
  528loPI    C1 8433   7.215   4.093  10.776 -0.0005  0.2588 -0.0750
  528loPI    C2 8434   7.542   4.151  10.999  0.0532 -0.0973 -0.0564
  528loPI    C3 8435   7.186   4.274  11.132  0.1408  0.0480  0.0463
  528loPI   PO4 8436   7.293   4.119  10.583  0.0528  0.0940 -0.1230
  528loPI   GL1 8437   7.638   4.017  10.257  0.1437  0.1418  0.1257
  528loPI   GL2 8438   7.520   4.338  10.060 -0.0553  0.0451  0.0512
  528loPI   C1A 8439   7.819   3.983   9.874  0.0413 -0.1832  0.1481
  528loPI   C2A 8440   7.819   3.989   9.384  0.2008 -0.2682  0.1102
  528loPI   C3A 8441   7.838   4.069   8.894 -0.2867  0.1182 -0.1991
  528loPI   C4A 8442   7.819   4.029   8.418 -0.0089 -0.0900  0.2434
  528loPI   C5A 8443   8.013   4.410   8.129  0.2522  0.1949 -0.1828
  528loPI   C6A 8444   8.131   4.633   7.849  0.1394  0.0583 -0.0113
  528loPI   C1B 8445   7.327   4.210   9.677  0.1781  0.0958 -0.1217
  528loPI   C2B 8446   7.367   4.192   9.239 -0.2622 -0.1077  0.0943
  528loPI   C3B 8447   7.462   4.352   8.794  0.1428  0.0361  0.1197
  528loPI   C4B 8448   7.480   4.317   8.326  0.1343 -0.0697 -0.4785
  529loPI    C1 8449  15.407   4.334  10.204 -0.0276  0.2577 -0.1123
  529loPI    C2 8450  15.217   3.988  10.136  0.1770  0.0746  0.2192
  529loPI    C3 8451  15.017   4.301  10.285  0.0470  0.0172  0.1663
  529loPI   PO4 8452  15.615   4.282   9.966 -0.4054  0.0637  0.3045
  529loPI   GL1 8453  15.660   4.282   9.590  0.0941  0.0266  0.4621
  529loPI   GL2 8454  15.605   3.929   9.508 -0.0282 -0.3458 -0.1863
  529loPI   C1A 8455  15.722   4.526   9.171  0.1996 -0.0427 -0.3059
  529loPI   C2A 8456  15.474   4.733   8.963 -0.3518 -0.2745 -0.2912
  529loPI   C3A 8457  15.325   4.711   8.449 -0.3905 -0.1479 -0.1026
  529loPI   C4A 8458  15.192   4.543   8.126  0.3146 -0.1032  0.1259
  529loPI   C5A 8459  15.527   4.378   7.753 -0.0272  0.1191  0.0017
  529loPI   C6A 8460  15.705   4.705   7.412  0.0887 -0.4711 -0.0417
  529loPI   C1B 8461  15.690   4.086   9.077 -0.1433 -0.0979  0.0517
  529loPI   C2B 8462  15.750   4.126   8.732 -0.1507 -0.3809 -0.6849
  529loPI   C3B 8463  15.838   4.068   8.297  0.3236  0.2102  0.1371
  529loPI   C4B 8464  15.843   3.849   7.961  0.2988 -0.5078 -0.0239
  530loPI    C1 8465   4.528   4.647  10.995  0.0544  0.2052  0.2247
  530loPI    C2 8466   4.247   4.439  11.190  0.0349  0.0389  0.0223
  530loPI    C3 8467   4.627   4.426  11.313  0.0266 -0.0837  0.0363
  530loPI   PO4 8468   4.414   4.737  10.722  0.1169 -0.2161 -0.1120
  530loPI   GL1 8469   4.369   4.947  10.298  0.2152  0.1632 -0.2094
  530loPI   GL2 8470   4.654   4.893  10.149  0.0508  0.0170 -0.1898
  530loPI   C1A 8471   4.244   5.154   9.933  0.0973  0.0532 -0.0379
  530loPI   C2A 8472   4.245   5.295   9.498  0.0454 -0.2781 -0.0490
  530loPI   C3A 8473   4.294   5.393   9.107  0.1734  0.1033  0.2965
  530loPI   C4A 8474   4.348   5.300   8.701  0.1769  0.2433 -0.0475
  530loPI   C5A 8475   4.525   5.285   8.282 -0.0368 -0.1048 -0.1213
  530loPI   C6A 8476   4.851   5.256   7.995 -0.1484 -0.2314  0.2913
  530loPI   C1B 8477   4.612   5.023   9.653 -0.3026  0.1082  0.0437
  530loPI   C2B 8478   4.713   5.075   9.376 -0.2001  0.0675 -0.0429
  530loPI   C3B 8479   4.751   5.113   8.846  0.1308 -0.1207 -0.0302
  530loPI   C4B 8480   4.785   4.939   8.504 -0.1594  0.0144 -0.1022
  531loPI    C1 8481  18.566  10.027  10.964 -0.1370  0.3112 -0.0381
  531loPI    C2 8482  18.474   9.656  11.080  0.5023  0.1737  0.0643
  531loPI    C3 8483  18.262   9.966  11.217 -0.1484 -0.1550 -0.1545
  531loPI   PO4 8484  18.839  10.043  11.030  0.2065 -0.0537 -0.1225
  531loPI   GL1 8485  19.130  10.141  10.570  0.1526 -0.2705 -0.1462
  531loPI   GL2 8486  19.209   9.969  10.394 -0.1274 -0.0249 -0.0746
  531loPI   C1A 8487  18.988  10.292  10.079  0.2277  0.2132  0.0540
  531loPI   C2A 8488  18.866  10.407   9.633 -0.2133 -0.0904 -0.0065
  531loPI   C3A 8489  18.858  10.378   9.131 -0.2740 -0.0377 -0.1445
  531loPI   C4A 8490  19.051  10.309   8.668  0.2144 -0.0629 -0.2449
  531loPI   C5A 8491  19.262  10.295   8.190  0.2232  0.0948 -0.0116
  531loPI   C6A 8492  19.344  10.538   7.878  0.0114 -0.0214 -0.2400
  531loPI   C1B 8493  19.344   9.899   9.904  0.1083 -0.0455  0.1476
  531loPI   C2B 8494  19.287  10.048   9.446 -0.0041  0.1322 -0.2539
  531loPI   C3B 8495  19.309  10.016   9.043 -0.0144 -0.1754  0.0734
  531loPI   C4B 8496  19.490  10.099   8.667 -0.2903  0.2974  0.3743
  532loPI    C1 8497  10.252  11.183  10.427  0.3080  0.0665  0.0263
  532loPI    C2 8498  10.408  11.121  10.790  0.0714  0.0145  0.1207
  532loPI    C3 8499  10.018  11.202  10.751  0.0740 -0.0859 -0.1308
  532loPI   PO4 8500  10.320  11.023  10.219  0.0881  0.1914  0.2453
  532loPI   GL1 8501  10.259  10.568   9.966 -0.1393 -0.2913 -0.0632
  532loPI   GL2 8502  10.359  10.837   9.777 -0.1941 -0.2490  0.0426
  532loPI   C1A 8503  10.048  10.300   9.730  0.2368 -0.2490  0.0339
  532loPI   C2A 8504   9.936   9.890   9.626 -0.1251 -0.1156 -0.0823
  532loPI   C3A 8505   9.994   9.783   9.156  0.2312 -0.2544 -0.0897
  532loPI   C4A 8506   9.847   9.768   8.787  0.0958 -0.0708 -0.2044
  532loPI   C5A 8507   9.709  10.053   8.664  0.0753  0.0414 -0.2688
  532loPI   C6A 8508   9.523  10.265   8.927 -0.1041 -0.1520 -0.1740
  532loPI   C1B 8509  10.102  10.768   9.518  0.1207  0.0674  0.2804
  532loPI   C2B 8510  10.062  10.921   9.193  0.0245  0.0236  0.0278
  532loPI   C3B 8511  10.013  11.009   8.783 -0.1212 -0.0055 -0.0165
  532loPI   C4B 8512   9.891  10.941   8.364  0.0323  0.0803 -0.1884
  533loPI    C1 8513  17.301  16.183  10.578  0.1307 -0.1540 -0.0665
  533loPI    C2 8514  17.115  15.917  10.812 -0.1085 -0.0833 -0.1729
  533loPI    C3 8515  17.515  15.933  10.805 -0.0971 -0.0974  0.2170
  533loPI   PO4 8516  17.085  16.137  10.377 -0.0361 -0.0589 -0.0963
  533loPI   GL1 8517  17.107  15.996  10.060  0.3250  0.1822 -0.0245
  533loPI   GL2 8518  16.775  15.817   9.977  0.0159  0.2077 -0.3397
  533loPI   C1A 8519  17.342  15.865   9.638 -0.0703  0.0262 -0.0207
  533loPI   C2A 8520  17.228  15.838   9.286 -0.0928 -0.0969 -0.3851
  533loPI   C3A 8521  17.253  15.960   8.766  0.0138 -0.3055 -0.0500
  533loPI   C4A 8522  17.202  15.845   8.370 -0.2929  0.2058 -0.0122
  533loPI   C5A 8523  17.174  15.570   7.955 -0.0505 -0.2164  0.0660
  533loPI   C6A 8524  17.340  15.206   7.963  0.3953  0.1129 -0.0015
  533loPI   C1B 8525  16.840  16.020   9.612 -0.0566  0.0206  0.0414
  533loPI   C2B 8526  16.831  16.112   9.165  0.0630 -0.3232  0.0402
  533loPI   C3B 8527  16.790  16.181   8.783  0.0402  0.0399  0.0494
  533loPI   C4B 8528  16.856  16.180   8.388  0.0124 -0.1079 -0.0562
  534loPI    C1 8529   9.897  15.549  10.295 -0.1373 -0.1212  0.2765
  534loPI    C2 8530  10.123  15.228  10.370 -0.0009 -0.0384  0.2235
  534loPI    C3 8531  10.201  15.574  10.555  0.2788  0.1424 -0.2163
  534loPI   PO4 8532   9.872  15.542   9.999  0.1330 -0.3612 -0.3888
  534loPI   GL1 8533  10.022  15.219   9.795  0.4477 -0.1825  0.0537
  534loPI   GL2 8534  10.228  15.026   9.909  0.2756  0.1160 -0.0304
  534loPI   C1A 8535   9.969  15.211   9.322 -0.3848  0.1500  0.3942
  534loPI   C2A 8536  10.058  15.183   8.887 -0.1447  0.3883 -0.0847
  534loPI   C3A 8537  10.113  15.439   8.510 -0.0415  0.0452 -0.2268
  534loPI   C4A 8538  10.176  15.547   8.040  0.1146 -0.0739 -0.2242
  534loPI   C5A 8539  10.239  15.680   7.617 -0.2485  0.1316 -0.3345
  534loPI   C6A 8540  10.354  15.643   7.170  0.2284  0.0733 -0.0010
  534loPI   C1B 8541  10.339  14.960   9.593  0.0373  0.1231 -0.2040
  534loPI   C2B 8542  10.417  14.836   9.122  0.0632 -0.0983  0.3114
  534loPI   C3B 8543  10.437  14.891   8.672  0.0793  0.1564 -0.0184
  534loPI   C4B 8544  10.592  15.089   8.387  0.1573 -0.0046 -0.1706
  535loPI    C1 8545  14.714  11.211  10.393 -0.0934 -0.2253  0.1685
  535loPI    C2 8546  14.564  11.576  10.329  0.0587 -0.1839  0.0445
  535loPI    C3 8547  14.402  11.340  10.608 -0.1055 -0.0615  0.0543
  535loPI   PO4 8548  14.883  11.224  10.149  0.0724 -0.0910 -0.0106
  535loPI   GL1 8549  15.084  11.115   9.763  0.0734 -0.0034  0.0507
  535loPI   GL2 8550  15.161  10.796   9.672 -0.0108  0.0174  0.1182
  535loPI   C1A 8551  15.260  11.196   9.378 -0.2187  0.1183 -0.2578
  535loPI   C2A 8552  15.019  11.249   8.986  0.0295 -0.2223  0.2002
  535loPI   C3A 8553  15.107  11.266   8.527  0.4676  0.0593 -0.1891
  535loPI   C4A 8554  15.083  11.130   8.147  0.0170  0.0495 -0.0303
  535loPI   C5A 8555  14.919  10.981   7.810 -0.0169  0.3800 -0.1346
  535loPI   C6A 8556  14.998  10.683   7.543  0.2479  0.1090 -0.2734
  535loPI   C1B 8557  14.806  10.825   9.279 -0.1228  0.2530 -0.0765
  535loPI   C2B 8558  14.757  10.782   8.778  0.2934  0.0744 -0.1917
  535loPI   C3B 8559  14.584  10.794   8.396 -0.4208  0.0599 -0.1336
  535loPI   C4B 8560  14.307  10.547   8.229 -0.0863 -0.0361 -0.1064
  536loPI    C1 8561   0.143   8.594  10.900 -0.1002 -0.1640 -0.0893
  536loPI    C2 8562   0.420   8.625  11.187  0.0909 -0.0742 -0.2808
  536loPI    C3 8563   0.038   8.715  11.267  0.1484 -0.0165 -0.0645
  536loPI   PO4 8564   0.224   8.710  10.757  0.3078 -0.0589  0.3194
  536loPI   GL1 8565   0.221   9.004  10.423 -0.2494  0.0391 -0.0223
  536loPI   GL2 8566   0.351   9.286  10.323 -0.3685  0.0359  0.1576
  536loPI   C1A 8567   0.261   8.708  10.111 -0.3443  0.1120  0.1816
  536loPI   C2A 8568   0.327   8.738   9.682 -0.0991  0.2585  0.2667
  536loPI   C3A 8569   0.351   8.872   9.298 -0.1034 -0.2232 -0.0491
  536loPI   C4A 8570   0.339   8.837   8.815 -0.3104 -0.0706  0.1541
  536loPI   C5A 8571   0.296   8.944   8.353 -0.1724  0.1631  0.2246
  536loPI   C6A 8572   0.046   8.728   8.070 -0.0096  0.2414  0.1160
  536loPI   C1B 8573   0.416   9.229   9.802  0.1486  0.2743  0.2032
  536loPI   C2B 8574   0.407   9.341   9.453  0.1010  0.1211  0.1705
  536loPI   C3B 8575   0.365   9.391   9.007  0.2406 -0.3149 -0.1387
  536loPI   C4B 8576   0.222   9.410   8.533  0.1503 -0.0973 -0.0702
  537loPI    C1 8577  17.441   5.189  10.481 -0.1327  0.0474  0.0422
  537loPI    C2 8578  17.404   5.542  10.297 -0.1113  0.0140 -0.0264
  537loPI    C3 8579  17.332   5.512  10.689 -0.1154  0.0940 -0.0210
  537loPI   PO4 8580  17.555   5.084  10.262 -0.2362  0.0230  0.0113
  537loPI   GL1 8581  17.364   5.064   9.900  0.0666 -0.0943 -0.0843
  537loPI   GL2 8582  17.442   4.817   9.677  0.0783 -0.0650 -0.0428
  537loPI   C1A 8583  17.285   5.286   9.576  0.2273 -0.1423  0.3724
  537loPI   C2A 8584  17.319   5.324   9.069 -0.1115  0.1104  0.0276
  537loPI   C3A 8585  17.322   5.393   8.696 -0.0970  0.0603 -0.0662
  537loPI   C4A 8586  17.585   5.363   8.382  0.0108 -0.1104 -0.0416
  537loPI   C5A 8587  17.599   5.485   7.879  0.2998 -0.0004  0.2040
  537loPI   C6A 8588  17.775   5.417   7.512  0.1266  0.2426 -0.1048
  537loPI   C1B 8589  17.496   4.830   9.204 -0.0596 -0.0612  0.1649
  537loPI   C2B 8590  17.417   4.795   8.766  0.0302  0.1557  0.2186
  537loPI   C3B 8591  17.166   4.727   8.529  0.1305  0.0962 -0.2298
  537loPI   C4B 8592  17.018   4.688   8.074  0.0024 -0.0361  0.2044
  538loPI    C1 8593   2.635  11.900  10.631  0.2412  0.0520 -0.0738
  538loPI    C2 8594   2.843  11.970  10.965  0.1469 -0.3535  0.0769
  538loPI    C3 8595   2.448  11.915  10.984  0.1364 -0.3490 -0.1068
  538loPI   PO4 8596   2.784  12.032  10.446 -0.2374 -0.0999  0.1533
  538loPI   GL1 8597   2.894  12.121  10.040  0.1066 -0.1735 -0.1275
  538loPI   GL2 8598   3.073  11.878   9.937 -0.1797  0.1370 -0.1914
  538loPI   C1A 8599   2.637  12.140   9.702 -0.0759 -0.3435 -0.4260
  538loPI   C2A 8600   2.676  12.097   9.265 -0.0912 -0.2753  0.0844
  538loPI   C3A 8601   2.670  12.014   8.928 -0.1551  0.0169 -0.2438
  538loPI   C4A 8602   2.702  12.118   8.512 -0.2459  0.2804  0.2068
  538loPI   C5A 8603   2.668  12.086   8.008 -0.4504 -0.0871 -0.1871
  538loPI   C6A 8604   2.319  11.974   7.743  0.0142  0.0838  0.2130
  538loPI   C1B 8605   2.986  11.826   9.531 -0.0599  0.0671 -0.1757
  538loPI   C2B 8606   3.200  11.831   9.141  0.3504  0.2158  0.1042
  538loPI   C3B 8607   3.206  11.862   8.674  0.0527  0.1369  0.1039
  538loPI   C4B 8608   3.100  11.829   8.192 -0.1154 -0.0372  0.0215
  539loPI    C1 8609  15.075  12.826  10.691 -0.1754  0.0328 -0.0103
  539loPI    C2 8610  15.298  13.011  10.966  0.1812 -0.1201 -0.1892
  539loPI    C3 8611  14.916  13.120  10.911  0.1327 -0.0231  0.2943
  539loPI   PO4 8612  15.170  12.863  10.452 -0.2686 -0.2606  0.0784
  539loPI   GL1 8613  15.306  12.746  10.069 -0.3409 -0.1656  0.0383
  539loPI   GL2 8614  15.555  12.501  10.200  0.0383  0.2426 -0.1831
  539loPI   C1A 8615  15.265  12.632   9.607  0.3996 -0.1237 -0.0238
  539loPI   C2A 8616  15.354  12.711   9.167  0.0869 -0.2016  0.0636
  539loPI   C3A 8617  15.418  12.814   8.692 -0.1494  0.2830  0.0568
  539loPI   C4A 8618  15.493  12.775   8.277  0.1023 -0.0548 -0.4283
  539loPI   C5A 8619  15.423  12.761   7.834 -0.2021  0.1322  0.0059
  539loPI   C6A 8620  15.167  13.013   7.479 -0.0224 -0.0092 -0.1700
  539loPI   C1B 8621  15.774  12.456   9.807 -0.1463 -0.0531  0.0712
  539loPI   C2B 8622  15.790  12.483   9.349  0.2151  0.1053 -0.4548
  539loPI   C3B 8623  15.784  12.411   8.870 -0.0344  0.1117  0.4515
  539loPI   C4B 8624  15.953  12.420   8.470 -0.0773  0.3253  0.0371
  540loPI    C1 8625   3.536  12.713  10.598  0.0226  0.0514 -0.0493
  540loPI    C2 8626   3.834  12.604  10.841 -0.0453  0.1213  0.0663
  540loPI    C3 8627   3.455  12.528  10.943 -0.0759  0.1801 -0.0026
  540loPI   PO4 8628   3.686  12.591  10.335  0.2028 -0.1032  0.1470
  540loPI   GL1 8629   3.730  12.704   9.944  0.3555  0.4447 -0.0191
  540loPI   GL2 8630   4.020  12.919  10.008 -0.0832 -0.0823  0.0161
  540loPI   C1A 8631   3.587  12.615   9.581 -0.0975 -0.0824  0.0402
  540loPI   C2A 8632   3.609  12.625   9.177 -0.2438  0.1959  0.2764
  540loPI   C3A 8633   3.530  12.576   8.675  0.2748  0.1965  0.0670
  540loPI   C4A 8634   3.594  12.466   8.347 -0.2238  0.2126 -0.0069
  540loPI   C5A 8635   3.726  12.401   7.861 -0.1145 -0.1482  0.0282
  540loPI   C6A 8636   3.971  12.673   7.670  0.3679 -0.1473 -0.3541
  540loPI   C1B 8637   4.023  12.880   9.551 -0.0409  0.2561 -0.0271
  540loPI   C2B 8638   4.097  12.855   9.132 -0.2132 -0.1153  0.0159
  540loPI   C3B 8639   4.054  12.809   8.717  0.0448  0.1721 -0.0686
  540loPI   C4B 8640   4.047  12.712   8.223 -0.3417  0.2647 -0.1418
  541loPI    C1 8641   9.845   0.530  10.245  0.0701  0.0400 -0.1562
  541loPI    C2 8642   9.956   0.900  10.348  0.0383 -0.0269  0.1245
  541loPI    C3 8643  10.061   0.589  10.576  0.0631 -0.1919 -0.1089
  541loPI   PO4 8644   9.697   0.601  10.004 -0.2760  0.0122 -0.3258
  541loPI   GL1 8645   9.872   0.709   9.725  0.0481  0.1292 -0.1897
  541loPI   GL2 8646  10.202   0.780   9.550  0.3269  0.0554 -0.1709
  541loPI   C1A 8647   9.898   0.378   9.289  0.0404  0.0172  0.0354
  541loPI   C2A 8648   9.737   0.423   8.966  0.1240 -0.0597 -0.0244
  541loPI   C3A 8649   9.677   0.444   8.522 -0.0736  0.1713 -0.0818
  541loPI   C4A 8650   9.336   0.348   8.158 -0.1346  0.0494 -0.0508
  541loPI   C5A 8651   8.842   0.524   8.131  0.2919  0.0335  0.2290
  541loPI   C6A 8652   8.476   0.490   8.328  0.1962 -0.0426  0.0888
  541loPI   C1B 8653   9.905   0.907   9.215 -0.0511  0.0826 -0.0161
  541loPI   C2B 8654   9.763   0.948   8.826 -0.0414  0.1089 -0.0405
  541loPI   C3B 8655   9.784   1.069   8.363 -0.0677  0.0087 -0.1920
  541loPI   C4B 8656   9.703   1.129   7.954  0.0908 -0.1725 -0.1073
  542loPI    C1 8657   3.824   0.560  10.441  0.2838 -0.0375  0.0178
  542loPI    C2 8658   3.724   0.920  10.299  0.4782  0.0407  0.0764
  542loPI    C3 8659   3.442   0.679  10.447  0.3297  0.1179 -0.0773
  542loPI   PO4 8660   3.962   0.467  10.178  0.3070  0.1266 -0.3501
  542loPI   GL1 8661   3.970   0.649   9.708  0.2764  0.2359 -0.0485
  542loPI   GL2 8662   3.890   0.383   9.654 -0.1376  0.0884 -0.0367
  542loPI   C1A 8663   3.958   0.970   9.419  0.1975 -0.0313  0.1730
  542loPI   C2A 8664   3.898   1.215   8.990 -0.0867 -0.2072 -0.2520
  542loPI   C3A 8665   4.023   0.973   8.633 -0.3892 -0.1730  0.0572
  542loPI   C4A 8666   4.151   0.953   8.230 -0.1076  0.0318 -0.0590
  542loPI   C5A 8667   4.143   1.106   7.861 -0.1101  0.1029  0.1344
  542loPI   C6A 8668   4.481   1.108   7.663  0.0266  0.2202 -0.0347
  542loPI   C1B 8669   3.863   0.451   9.191 -0.1748  0.1797 -0.0700
  542loPI   C2B 8670   3.724   0.677   8.840 -0.2556  0.2082  0.3027
  542loPI   C3B 8671   3.583   0.778   8.349  0.2526  0.1175  0.3117
  542loPI   C4B 8672   3.596   1.126   7.914 -0.0419 -0.0438 -0.1312
  543loPI    C1 8673   5.408  15.618  10.720  0.0655  0.0730  0.0854
  543loPI    C2 8674   5.455  15.364  11.025  0.1963  0.1807  0.1563
  543loPI    C3 8675   5.321  15.734  11.092 -0.3266  0.0266  0.0127
  543loPI   PO4 8676   5.506  15.563  10.558  0.2463  0.2511 -0.1307
  543loPI   GL1 8677   5.535  15.409  10.151 -0.2339 -0.0981  0.2475
  543loPI   GL2 8678   5.681  15.254   9.962  0.3750  0.1252 -0.0509
  543loPI   C1A 8679   5.186  15.475   9.843  0.0715 -0.2303 -0.0458
  543loPI   C2A 8680   4.998  15.377   9.455  0.2423  0.1946  0.0280
  543loPI   C3A 8681   5.003  15.377   8.978 -0.1184 -0.0900 -0.0943
  543loPI   C4A 8682   4.874  15.511   8.524 -0.2355  0.1502 -0.1483
  543loPI   C5A 8683   4.838  15.571   8.197 -0.0997  0.0046  0.0577
  543loPI   C6A 8684   4.983  15.891   7.882  0.1713 -0.0927 -0.5028
  543loPI   C1B 8685   5.505  15.162   9.433 -0.0917 -0.3420  0.0482
  543loPI   C2B 8686   5.471  15.196   8.992 -0.2504 -0.1378  0.2142
  543loPI   C3B 8687   5.428  15.173   8.660 -0.0613  0.2005 -0.2292
  543loPI   C4B 8688   5.345  15.254   8.379  0.3596  0.0424  0.0047
  544loPI    C1 8689   5.221   5.804  10.770 -0.0458 -0.1827 -0.1226
  544loPI    C2 8690   5.086   5.942  10.419 -0.1532  0.0314  0.0007
  544loPI    C3 8691   4.896   6.037  10.758 -0.2288 -0.4214  0.0925
  544loPI   PO4 8692   5.518   5.859  10.779  0.0339 -0.3311  0.2254
  544loPI   GL1 8693   5.606   5.700  10.358 -0.2353 -0.1347  0.3005
  544loPI   GL2 8694   5.865   5.747  10.489 -0.1191  0.1532 -0.2590
  544loPI   C1A 8695   5.608   5.829   9.964  0.0875  0.0284 -0.0921
  544loPI   C2A 8696   5.660   5.959   9.521 -0.2200 -0.0407 -0.1593
  544loPI   C3A 8697   5.683   6.128   9.079  0.0289  0.0623 -0.0795
  544loPI   C4A 8698   5.630   5.986   8.669 -0.0887 -0.0298  0.0972
  544loPI   C5A 8699   5.764   5.890   8.098 -0.0728  0.2524  0.2701
  544loPI   C6A 8700   6.025   6.151   7.742 -0.2365  0.1826  0.2055
  544loPI   C1B 8701   6.078   5.967  10.012 -0.2222 -0.1949 -0.0627
  544loPI   C2B 8702   6.147   6.180   9.637  0.2900  0.0258  0.2018
  544loPI   C3B 8703   6.152   6.274   9.179 -0.0184 -0.1148  0.0406
  544loPI   C4B 8704   6.137   6.192   8.771  0.1854 -0.1050  0.0474
  545loPI    C1 8705  11.649   1.646  10.484 -0.1688 -0.1385  0.1845
  545loPI    C2 8706  11.445   1.311  10.561  0.1613 -0.3364  0.2162
  545loPI    C3 8707  11.661   1.484  10.849 -0.2093  0.0515  0.2715
  545loPI   PO4 8708  11.559   1.751  10.275 -0.2255 -0.0244 -0.0374
  545loPI   GL1 8709  11.563   1.473   9.962  0.0694 -0.2371 -0.2313
  545loPI   GL2 8710  11.801   1.320   9.794  0.2064  0.0804  0.0115
  545loPI   C1A 8711  11.530   1.621   9.509  0.3094  0.3588 -0.0425
  545loPI   C2A 8712  11.356   1.585   9.174 -0.4171  0.4332 -0.2641
  545loPI   C3A 8713  11.174   1.761   8.838 -0.0935 -0.2080  0.1651
  545loPI   C4A 8714  11.097   1.821   8.534 -0.0892 -0.0151  0.0961
  545loPI   C5A 8715  11.334   1.853   8.188  0.2764  0.2232 -0.0654
  545loPI   C6A 8716  11.609   1.800   7.773  0.2776  0.4227 -0.4693
  545loPI   C1B 8717  11.734   1.233   9.390  0.1343  0.1199  0.0106
  545loPI   C2B 8718  11.675   1.093   8.974 -0.2208  0.0323  0.0167
  545loPI   C3B 8719  11.483   0.940   8.545  0.0620  0.1136 -0.1523
  545loPI   C4B 8720  11.596   0.771   8.269  0.1733  0.0253 -0.1794
  546loPI    C1 8721  15.741   2.929  10.282 -0.1838 -0.0509  0.1410
  546loPI    C2 8722  15.520   3.128  10.014  0.0067 -0.0273 -0.0004
  546loPI    C3 8723  15.465   3.192  10.405 -0.1996  0.0163 -0.0354
  546loPI   PO4 8724  15.944   2.892  10.086 -0.3142 -0.1660  0.2188
  546loPI   GL1 8725  15.955   2.805   9.702 -0.2585 -0.1855 -0.2545
  546loPI   GL2 8726  15.977   3.096   9.570  0.1526  0.1348 -0.0965
  546loPI   C1A 8727  15.946   2.590   9.316  0.0858 -0.0444 -0.1487
  546loPI   C2A 8728  15.949   2.634   8.963 -0.1443 -0.0835  0.0883
  546loPI   C3A 8729  15.987   2.610   8.623  0.0432 -0.1941 -0.0707
  546loPI   C4A 8730  16.212   2.421   8.317  0.5029 -0.0715  0.0529
  546loPI   C5A 8731  16.305   2.524   7.824  0.3066  0.3036 -0.1291
  546loPI   C6A 8732  16.431   2.402   7.412 -0.3922  0.2259 -0.0869
  546loPI   C1B 8733  15.949   3.107   9.129  0.3735 -0.0062 -0.2383
  546loPI   C2B 8734  16.115   3.131   8.647 -0.0553 -0.1651  0.0794
  546loPI   C3B 8735  16.184   2.962   8.237 -0.3109 -0.0198 -0.0026
  546loPI   C4B 8736  16.115   2.967   7.820 -0.1604  0.4234 -0.1150
  547loPI    C1 8737  15.518  16.539  10.036  0.0325 -0.0999  0.0069
  547loPI    C2 8738  15.219  16.306   9.909 -0.0766  0.0909 -0.0910
  547loPI    C3 8739  15.536  16.143  10.090 -0.1215 -0.1394 -0.2161
  547loPI   PO4 8740  15.516  16.792   9.879  0.1532 -0.0340  0.0625
  547loPI   GL1 8741  15.771  16.847   9.619  0.6070  0.1626 -0.3180
  547loPI   GL2 8742  16.043  16.626   9.732  0.0329 -0.3492  0.0964
  547loPI   C1A 8743  15.631  16.947   9.236 -0.2138  0.0795  0.2078
  547loPI   C2A 8744  15.444  16.949   8.741  0.1454 -0.1606  0.2211
  547loPI   C3A 8745  15.556  16.673   8.455 -0.0335  0.0856 -0.0129
  547loPI   C4A 8746  15.463  16.502   8.055 -0.3374  0.0281 -0.4685
  547loPI   C5A 8747  15.201  16.375   7.720 -0.0565 -0.0488  0.1671
  547loPI   C6A 8748  14.960  16.289   7.326 -0.1355  0.1784  0.1399
  547loPI   C1B 8749  16.155  16.724   9.236 -0.0941  0.1836 -0.1775
  547loPI   C2B 8750  16.396  16.748   8.819  0.0345  0.0997 -0.0407
  547loPI   C3B 8751  16.518  16.485   8.460  0.1540 -0.1319 -0.0421
  547loPI   C4B 8752  16.489  16.282   8.055  0.1563  0.1142  0.1828
  548loPI    C1 8753  16.479  16.833  10.376 -0.0468  0.2427  0.0252
  548loPI    C2 8754  16.711  16.598  10.601 -0.2496 -0.0614 -0.0749
  548loPI    C3 8755  16.828  16.971  10.513  0.1018 -0.1392  0.0442
  548loPI   PO4 8756  16.471  16.682  10.178  0.4230  0.4260 -0.3472
  548loPI   GL1 8757  16.491  16.801   9.738  0.3932 -0.1651 -0.0906
  548loPI   GL2 8758  16.694  16.605   9.746  0.1964  0.2486  0.2239
  548loPI   C1A 8759  16.817  17.099   9.498 -0.4128 -0.3342  0.4981
  548loPI   C2A 8760  16.890  17.273   9.081  0.0500 -0.2637  0.0364
  548loPI   C3A 8761  17.061  17.190   8.706  0.2698 -0.0773 -0.4315
  548loPI   C4A 8762  17.048  17.125   8.250  0.1828 -0.0483 -0.1520
  548loPI   C5A 8763  16.661  17.214   8.027  0.2174 -0.0511  0.3126
  548loPI   C6A 8764  16.510  17.208   7.568  0.0109  0.0215  0.1225
  548loPI   C1B 8765  16.720  16.608   9.322 -0.2294  0.0540 -0.1035
  548loPI   C2B 8766  16.875  16.715   9.009  0.1990 -0.3578 -0.2320
  548loPI   C3B 8767  16.980  16.643   8.566  0.0500  0.1824  0.2606
  548loPI   C4B 8768  16.838  16.624   8.141 -0.0443 -0.0501  0.1752
  549loPI    C1 8769   4.537   7.825  10.661 -0.0929  0.0307 -0.1583
  549loPI    C2 8770   4.655   7.730  11.031 -0.3108  0.0913 -0.0718
  549loPI    C3 8771   4.607   8.114  10.929 -0.2563  0.0746 -0.1614
  549loPI   PO4 8772   4.477   7.577  10.533  0.1824 -0.1547  0.2471
  549loPI   GL1 8773   4.394   7.370  10.217  0.0724 -0.4404 -0.0165
  549loPI   GL2 8774   4.062   7.570  10.155  0.3071  0.1159 -0.0216
  549loPI   C1A 8775   4.327   7.306   9.823  0.1390  0.1053  0.0985
  549loPI   C2A 8776   4.357   7.281   9.321  0.0556  0.1365  0.3715
  549loPI   C3A 8777   4.432   7.345   8.904 -0.1818  0.4087  0.1186
  549loPI   C4A 8778   4.531   7.300   8.455  0.0480 -0.2061 -0.1208
  549loPI   C5A 8779   4.492   6.892   8.179  0.2171 -0.2349 -0.2896
  549loPI   C6A 8780   4.075   6.736   8.234 -0.0270 -0.0887 -0.2918
  549loPI   C1B 8781   3.830   7.647   9.735 -0.2940 -0.2862  0.1666
  549loPI   C2B 8782   3.903   7.583   9.358  0.2221  0.4529 -0.0338
  549loPI   C3B 8783   3.996   7.602   9.047  0.0416 -0.0761  0.3004
  549loPI   C4B 8784   4.089   7.488   8.584 -0.2321 -0.1276 -0.0569
  550loPI    C1 8785  14.909  17.648  10.139  0.0162  0.3408  0.1946
  550loPI    C2 8786  15.139  17.418  10.371 -0.2037 -0.0110  0.0727
  550loPI    C3 8787  14.889  17.683  10.537  0.0583  0.1518  0.2145
  550loPI   PO4 8788  15.066  17.639   9.949 -0.0571  0.1664  0.1789
  550loPI   GL1 8789  15.025  17.572   9.609 -0.0434  0.1283  0.0375
  550loPI   GL2 8790  15.112  17.661   9.347  0.0577 -0.1218 -0.1375
  550loPI   C1A 8791  14.897  17.074   9.422  0.0376  0.0634  0.0148
  550loPI   C2A 8792  15.069  16.829   9.150  0.0285  0.1205  0.1806
  550loPI   C3A 8793  15.284  16.539   8.959  0.1041  0.1227  0.1806
  550loPI   C4A 8794  15.622  16.210   8.821  0.3256 -0.3617  0.0332
  550loPI   C5A 8795  15.739  16.184   8.392 -0.1497 -0.2445 -0.1162
  550loPI   C6A 8796  15.989  16.254   8.042  0.0270  0.0357 -0.1215
  550loPI   C1B 8797  15.385  17.779   9.034 -0.1330 -0.0042 -0.1756
  550loPI   C2B 8798  15.675  18.080   8.760  0.0875  0.0362 -0.2091
  550loPI   C3B 8799  15.863  18.300   8.522  0.0545 -0.0843  0.1455
  550loPI   C4B 8800  15.788  18.465   8.142 -0.1522  0.1297 -0.3093
  551loPI    C1 8801   6.189  14.558  10.657  0.2583 -0.1141  0.1147
  551loPI    C2 8802   5.964  14.238  10.743  0.2144 -0.1387 -0.0848
  551loPI    C3 8803   6.129  14.453  11.038 -0.4306  0.1416  0.0921
  551loPI   PO4 8804   6.346  14.452  10.454  0.1468  0.0547 -0.3952
  551loPI   GL1 8805   6.361  14.293  10.030  0.1336  0.3480  0.2013
  551loPI   GL2 8806   6.430  14.008   9.895  0.0285 -0.2477  0.0027
  551loPI   C1A 8807   6.030  14.214   9.718  0.1359 -0.0353  0.1158
  551loPI   C2A 8808   5.931  14.415   9.297 -0.3168  0.1737  0.1346
  551loPI   C3A 8809   5.855  14.361   8.851 -0.2859 -0.1060  0.0498
  551loPI   C4A 8810   5.783  14.431   8.391 -0.0409  0.1366 -0.3295
  551loPI   C5A 8811   5.926  14.458   7.919  0.0642 -0.0270  0.1004
  551loPI   C6A 8812   6.221  14.395   7.727  0.0826 -0.0697  0.0083
  551loPI   C1B 8813   6.477  14.158   9.526 -0.2337  0.1744  0.1897
  551loPI   C2B 8814   6.342  14.145   9.064 -0.0460 -0.2080 -0.2452
  551loPI   C3B 8815   6.292  14.093   8.595  0.0337 -0.1746 -0.1708
  551loPI   C4B 8816   6.134  14.105   8.225  0.1971 -0.1349  0.2733
  552loPI    C1 8817  12.868   6.236  10.409  0.2614  0.0778  0.0702
  552loPI    C2 8818  12.786   5.944  10.669 -0.2726  0.1508 -0.0055
  552loPI    C3 8819  12.813   6.323  10.796 -0.0272  0.1262  0.0205
  552loPI   PO4 8820  13.056   6.217  10.351 -0.3200  0.0225 -0.0057
  552loPI   GL1 8821  13.219   6.376   9.890  0.1953 -0.0528 -0.0927
  552loPI   GL2 8822  12.906   6.452   9.807 -0.4164  0.2209 -0.0184
  552loPI   C1A 8823  13.421   6.112   9.555 -0.2194 -0.1013 -0.1109
  552loPI   C2A 8824  13.404   6.189   9.201  0.1297 -0.2158  0.0382
  552loPI   C3A 8825  13.396   6.215   8.765 -0.2842 -0.0768 -0.1154
  552loPI   C4A 8826  13.347   6.231   8.281  0.0459 -0.1321 -0.2123
  552loPI   C5A 8827  13.207   6.373   7.896  0.1678 -0.0016  0.1221
  552loPI   C6A 8828  13.194   6.660   7.632 -0.1815  0.1065  0.3022
  552loPI   C1B 8829  12.993   6.389   9.414 -0.1367 -0.1651 -0.1880
  552loPI   C2B 8830  12.970   6.356   8.966 -0.1189 -0.2479  0.1957
  552loPI   C3B 8831  12.943   6.468   8.485  0.0651 -0.1616 -0.1191
  552loPI   C4B 8832  12.795   6.566   8.075 -0.1057 -0.1104 -0.4746
  553loPI    C1 8833  17.590  13.407  10.819  0.1455  0.1491 -0.0820
  553loPI    C2 8834  17.568  13.805  10.859  0.1137  0.1214  0.2009
  553loPI    C3 8835  17.258  13.601  10.708  0.2135  0.2255 -0.1531
  553loPI   PO4 8836  17.831  13.343  10.722  0.1266 -0.4056 -0.1709
  553loPI   GL1 8837  18.030  13.595  10.317 -0.0964 -0.2170 -0.3560
  553loPI   GL2 8838  17.767  13.737  10.382 -0.1074 -0.0426  0.1580
  553loPI   C1A 8839  18.342  13.581   9.980  0.0040  0.1415 -0.0016
  553loPI   C2A 8840  18.507  13.338   9.586 -0.1977 -0.1165 -0.0554
  553loPI   C3A 8841  18.553  13.239   9.158  0.0630  0.0496  0.0700
  553loPI   C4A 8842  18.718  13.140   8.703 -0.0584  0.2106  0.0146
  553loPI   C5A 8843  18.806  13.006   8.403  0.0421  0.2670 -0.1177
  553loPI   C6A 8844  19.030  12.712   8.235  0.1794 -0.1747  0.2060
  553loPI   C1B 8845  17.716  13.689   9.910 -0.4059  0.3974 -0.0561
  553loPI   C2B 8846  17.533  13.400   9.749  0.1149 -0.0990 -0.2546
  553loPI   C3B 8847  17.646  13.458   9.271 -0.0496 -0.1188 -0.1551
  553loPI   C4B 8848  17.801  13.343   9.011 -0.0497  0.2656 -0.2784
  554loPI    C1 8849  13.338   7.228  10.436  0.4085 -0.0079  0.0811
  554loPI    C2 8850  13.284   7.525  10.173  0.0489 -0.0079  0.1496
  554loPI    C3 8851  13.441   7.602  10.533  0.1118  0.0699  0.1056
  554loPI   PO4 8852  13.318   7.001  10.328 -0.2998 -0.0437  0.1516
  554loPI   GL1 8853  13.236   6.990   9.957  0.0842  0.1677  0.3961
  554loPI   GL2 8854  13.451   7.203   9.861 -0.1498 -0.2654 -0.0349
  554loPI   C1A 8855  13.416   6.684   9.613 -0.1139 -0.5571 -0.2100
  554loPI   C2A 8856  13.379   6.692   9.257  0.0547  0.2834 -0.2088
  554loPI   C3A 8857  13.267   6.752   8.835  0.4094  0.2098 -0.1220
  554loPI   C4A 8858  13.317   6.766   8.401  0.2218  0.1213 -0.2109
  554loPI   C5A 8859  13.470   6.880   7.981 -0.1917 -0.2030  0.0790
  554loPI   C6A 8860  13.868   6.889   7.914  0.0123 -0.0106  0.0808
  554loPI   C1B 8861  13.397   7.284   9.384  0.1320  0.0329  0.0409
  554loPI   C2B 8862  13.422   7.329   8.817 -0.1559  0.2193 -0.1544
  554loPI   C3B 8863  13.243   7.253   8.369 -0.0907  0.3697 -0.1625
  554loPI   C4B 8864  13.527   7.398   8.023 -0.1879  0.1502  0.1353
  555loPI    C1 8865   1.302   7.989  11.106 -0.0405 -0.0013 -0.0986
  555loPI    C2 8866   1.364   8.354  11.258  0.2866 -0.0311 -0.1528
  555loPI    C3 8867   1.233   8.058  11.494 -0.0972  0.1473 -0.1343
  555loPI   PO4 8868   1.417   7.941  10.930  0.2215 -0.2281 -0.1098
  555loPI   GL1 8869   1.298   7.983  10.549 -0.0536 -0.2749 -0.2641
  555loPI   GL2 8870   1.351   8.281  10.402  0.0660  0.0303 -0.0614
  555loPI   C1A 8871   1.341   7.614  10.150 -0.0403 -0.0534 -0.1984
  555loPI   C2A 8872   1.180   7.584   9.778  0.0463 -0.0445 -0.0893
  555loPI   C3A 8873   1.188   7.668   9.286 -0.0432  0.0458  0.1292
  555loPI   C4A 8874   1.167   7.729   8.849  0.1730 -0.1586 -0.0849
  555loPI   C5A 8875   1.216   7.875   8.520 -0.0547  0.1365 -0.1632
  555loPI   C6A 8876   1.080   8.287   8.347 -0.3013  0.3362  0.0671
  555loPI   C1B 8877   1.254   8.110   9.997 -0.1091 -0.1275  0.2054
  555loPI   C2B 8878   1.239   8.159   9.555 -0.1079  0.1023 -0.2889
  555loPI   C3B 8879   1.251   8.244   9.139  0.0845 -0.3229 -0.2106
  555loPI   C4B 8880   1.127   8.290   8.825  0.0566 -0.2955  0.0193
  556loPI    C1 8881   1.788  16.764  10.407  0.1086  0.2707  0.0211
  556loPI    C2 8882   1.658  16.771  10.785 -0.2441  0.2542 -0.0962
  556loPI    C3 8883   1.985  16.977  10.682 -0.0964  0.1905  0.2334
  556loPI   PO4 8884   1.583  16.564  10.314 -0.0361 -0.1202  0.0254
  556loPI   GL1 8885   1.578  16.493   9.930  0.2212 -0.0185 -0.0622
  556loPI   GL2 8886   1.232  16.576   9.842 -0.0268 -0.1326 -0.3494
  556loPI   C1A 8887   1.466  16.250   9.539 -0.0646 -0.2630 -0.2140
  556loPI   C2A 8888   1.409  16.133   9.130 -0.0954 -0.0627  0.0062
  556loPI   C3A 8889   1.176  16.109   8.706 -0.2882 -0.5278 -0.1101
  556loPI   C4A 8890   1.421  16.330   8.286 -0.1353  0.0832  0.0210
  556loPI   C5A 8891   1.671  16.351   7.999  0.2714  0.2414  0.1848
  556loPI   C6A 8892   2.019  16.145   7.921  0.3059  0.0506 -0.0983
  556loPI   C1B 8893   1.539  16.781   9.546  0.1757  0.1724 -0.0887
  556loPI   C2B 8894   1.671  16.595   9.214 -0.0841 -0.1320  0.0274
  556loPI   C3B 8895   1.398  16.610   8.896  0.1781 -0.1522 -0.2810
  556loPI   C4B 8896   1.107  16.522   9.135  0.1900 -0.1349 -0.2398
  557loPI    C1 8897  10.855  10.126  10.521  0.2248  0.1361  0.1506
  557loPI    C2 8898  10.990  10.070  10.893 -0.1589  0.0366  0.2798
  557loPI    C3 8899  10.741  10.373  10.814 -0.1571 -0.0016  0.1244
  557loPI   PO4 8900  10.819   9.814  10.432 -0.1881 -0.0511 -0.0652
  557loPI   GL1 8901  11.006   9.686  10.173 -0.0902  0.1239 -0.0721
  557loPI   GL2 8902  10.827   9.420  10.131  0.0842  0.0718 -0.1205
  557loPI   C1A 8903  10.926   9.880   9.749  0.0084 -0.2907 -0.2629
  557loPI   C2A 8904  10.704   9.971   9.328  0.0229  0.1163 -0.0149
  557loPI   C3A 8905  10.403  10.082   9.229  0.1572 -0.0010  0.2976
  557loPI   C4A 8906  10.049  10.311   9.175 -0.0581  0.0359 -0.0132
  557loPI   C5A 8907   9.990  10.449   8.848 -0.0637  0.0134 -0.2547
  557loPI   C6A 8908   9.904  10.420   8.415  0.0230 -0.1843  0.0056
  557loPI   C1B 8909  10.733   9.378   9.694  0.2930 -0.0606  0.0631
  557loPI   C2B 8910  10.771   9.293   9.275 -0.1976 -0.1326 -0.0056
  557loPI   C3B 8911  10.883   9.414   8.927 -0.1117 -0.1985  0.3495
  557loPI   C4B 8912  11.200   9.538   8.612 -0.2187  0.0894 -0.1816
  558loPI    C1 8913  14.298   7.609  10.548  0.2200 -0.1546  0.1595
  558loPI    C2 8914  14.247   7.873  10.844  0.3723  0.1010 -0.0381
  558loPI    C3 8915  14.231   7.480  10.921 -0.0507  0.1629  0.2251
  558loPI   PO4 8916  14.005   7.610  10.394  0.1609 -0.1720 -0.0046
  558loPI   GL1 8917  13.726   7.679  10.074  0.2084  0.0853 -0.3362
  558loPI   GL2 8918  13.971   7.977   9.963  0.1346 -0.1998  0.0495
  558loPI   C1A 8919  13.495   7.665   9.663 -0.1071 -0.1710 -0.3574
  558loPI   C2A 8920  13.483   7.793   9.278  0.1482 -0.2432  0.1592
  558loPI   C3A 8921  13.410   7.875   8.882  0.1798  0.0414  0.3195
  558loPI   C4A 8922  13.330   7.795   8.428 -0.3640 -0.1433  0.1033
  558loPI   C5A 8923  13.122   7.653   7.930 -0.0670 -0.1211  0.0732
  558loPI   C6A 8924  13.035   7.648   7.488  0.1688  0.2258 -0.0462
  558loPI   C1B 8925  14.251   8.243   9.477 -0.2707 -0.0396  0.0891
  558loPI   C2B 8926  14.499   8.344   9.067  0.2862  0.1169 -0.0743
  558loPI   C3B 8927  14.813   8.605   8.827 -0.0025  0.1694 -0.0447
  558loPI   C4B 8928  14.928   8.691   8.451  0.1714 -0.2712 -0.1314
  559loPI    C1 8929   0.872   0.186  10.078  0.0438 -0.0767 -0.2650
  559loPI    C2 8930   0.519   0.102  10.246  0.1084 -0.1525 -0.1665
  559loPI    C3 8931   0.855  -0.054  10.397  0.2179  0.1779 -0.0600
  559loPI   PO4 8932   0.780   0.406   9.917 -0.4100 -0.0715 -0.5574
  559loPI   GL1 8933   0.733   0.451   9.526 -0.0659 -0.1880  0.0576
  559loPI   GL2 8934   0.344   0.410   9.533  0.1414  0.0242  0.0267
  559loPI   C1A 8935   1.008   0.461   9.129 -0.1044  0.0467  0.2734
  559loPI   C2A 8936   1.024   0.383   8.713  0.0801 -0.2976  0.2618
  559loPI   C3A 8937   0.902   0.152   8.409  0.2581 -0.0414 -0.0415
  559loPI   C4A 8938   0.965   0.048   7.952  0.0994  0.0367 -0.3348
  559loPI   C5A 8939   1.193   0.354   7.700 -0.1088 -0.5394  0.0251
  559loPI   C6A 8940   1.589   0.561   7.728  0.2464 -0.1939  0.0730
  559loPI   C1B 8941   0.380   0.434   9.096 -0.0767  0.0036 -0.0778
  559loPI   C2B 8942   0.519   0.370   8.608  0.0933 -0.0502 -0.3160
  559loPI   C3B 8943   0.528   0.435   8.117  0.1758  0.0245 -0.0168
  559loPI   C4B 8944   0.731   0.770   7.920  0.2850 -0.1113 -0.1062
  560loPI    C1 8945  14.680   4.617  10.426 -0.5219  0.1386 -0.0806
  560loPI    C2 8946  14.663   5.012  10.485  0.1529  0.1679 -0.0038
  560loPI    C3 8947  14.634   4.762  10.795 -0.0375  0.1651 -0.0231
  560loPI   PO4 8948  14.656   4.631  10.143  0.0595  0.1668 -0.0279
  560loPI   GL1 8949  14.707   4.498   9.851  0.0074  0.0538 -0.2731
  560loPI   GL2 8950  15.098   4.482   9.748  0.0031 -0.0367 -0.1321
  560loPI   C1A 8951  14.718   4.261   9.353  0.0826 -0.1952  0.3402
  560loPI   C2A 8952  14.689   4.344   8.966 -0.2391 -0.2585  0.0775
  560loPI   C3A 8953  14.724   4.346   8.552  0.2283 -0.2210 -0.1417
  560loPI   C4A 8954  14.758   4.352   8.058 -0.0963 -0.0673  0.1230
  560loPI   C5A 8955  14.939   4.378   7.686 -0.1931  0.1022  0.1308
  560loPI   C6A 8956  15.228   4.040   7.470 -0.1236 -0.1629  0.1856
  560loPI   C1B 8957  15.219   4.341   9.298  0.3021 -0.0017  0.1702
  560loPI   C2B 8958  15.154   4.390   8.777 -0.0880 -0.1313 -0.1726
  560loPI   C3B 8959  15.355   4.147   8.459  0.1924  0.1904  0.1604
  560loPI   C4B 8960  15.375   4.010   8.117  0.0094  0.0155 -0.1678
  561loPI    C1 8961   0.782   1.949  10.173  0.1045  0.0496  0.0280
  561loPI    C2 8962   0.501   1.672  10.237 -0.0066  0.1426 -0.0533
  561loPI    C3 8963   0.522   1.994  10.474  0.1436  0.0493  0.0620
  561loPI   PO4 8964   0.760   2.004   9.953  0.0165  0.0781  0.1246
  561loPI   GL1 8965   0.498   2.110   9.594  0.2181 -0.0584 -0.1525
  561loPI   GL2 8966   0.330   2.517   9.587 -0.2380  0.0134 -0.1278
  561loPI   C1A 8967   0.620   1.720   9.357  0.1204 -0.0091  0.2091
  561loPI   C2A 8968   0.596   1.761   8.841  0.2857  0.1364 -0.0954
  561loPI   C3A 8969   0.570   1.749   8.418 -0.1934 -0.1451  0.1389
  561loPI   C4A 8970   0.299   1.990   8.250  0.2631 -0.1894 -0.0737
  561loPI   C5A 8971  -0.060   2.096   8.417 -0.0725 -0.0504 -0.0640
  561loPI   C6A 8972  -0.486   2.177   8.412  0.1539 -0.2368 -0.0647
  561loPI   C1B 8973   0.369   2.539   9.157  0.1296  0.2317  0.0002
  561loPI   C2B 8974   0.268   2.670   8.769 -0.2648 -0.1417 -0.0676
  561loPI   C3B 8975   0.263   2.580   8.371 -0.0429 -0.0271 -0.0626
  561loPI   C4B 8976   0.348   2.911   8.013  0.0238  0.0306  0.1633
  562loPI    C1 8977  16.094   7.467  10.458  0.0592  0.3151 -0.2244
  562loPI    C2 8978  16.338   7.381  10.763 -0.1754  0.3458 -0.0246
  562loPI    C3 8979  16.023   7.621  10.820 -0.0842  0.5493 -0.3493
  562loPI   PO4 8980  16.276   7.507  10.268  0.1424  0.0698 -0.1767
  562loPI   GL1 8981  16.482   7.521   9.951  0.0057 -0.1324  0.2054
  562loPI   GL2 8982  16.768   7.560   9.982 -0.3024  0.2194 -0.5141
  562loPI   C1A 8983  16.601   7.592   9.530 -0.1142 -0.1678  0.3024
  562loPI   C2A 8984  16.653   7.576   9.161  0.1371 -0.1135  0.3310
  562loPI   C3A 8985  16.666   7.628   8.719 -0.0454  0.2832 -0.1374
  562loPI   C4A 8986  16.662   7.483   8.248  0.0095  0.1463 -0.1813
  562loPI   C5A 8987  16.670   7.530   7.795  0.0501 -0.3292  0.0676
  562loPI   C6A 8988  16.814   7.423   7.361 -0.2893  0.2651 -0.2004
  562loPI   C1B 8989  17.048   7.420   9.670  0.2485  0.2333 -0.0638
  562loPI   C2B 8990  17.081   7.115   9.372  0.2117 -0.0333 -0.3315
  562loPI   C3B 8991  16.926   7.156   9.037 -0.1934 -0.1435 -0.0594
  562loPI   C4B 8992  17.060   7.440   8.839  0.2298  0.2065  0.3631
  563loPI    C1 8993  13.399   9.539  10.224 -0.4234 -0.0669 -0.0973
  563loPI    C2 8994  13.172   9.517  10.553 -0.2301 -0.0982  0.0362
  563loPI    C3 8995  13.165   9.847  10.327 -0.1277  0.0505  0.2471
  563loPI   PO4 8996  13.352   9.384  10.013 -0.0186  0.0649  0.0456
  563loPI   GL1 8997  13.313   9.413   9.596  0.3172 -0.3227  0.2985
  563loPI   GL2 8998  13.074   9.255   9.563 -0.2249  0.2368  0.1061
  563loPI   C1A 8999  13.384   9.428   9.179 -0.1616  0.0979  0.0681
  563loPI   C2A 9000  13.558   9.489   8.675 -0.0472  0.0961  0.5148
  563loPI   C3A 9001  13.707   9.413   8.278  0.0675  0.0405  0.1585
  563loPI   C4A 9002  13.661   9.382   7.839 -0.0197 -0.0657 -0.0086
  563loPI   C5A 9003  13.636   9.015   7.611 -0.3185  0.0889 -0.0221
  563loPI   C6A 9004  13.909   8.731   7.384  0.1283  0.2659 -0.1369
  563loPI   C1B 9005  13.287   8.918   9.408  0.0666 -0.1627  0.0673
  563loPI   C2B 9006  13.411   8.841   9.010  0.1291 -0.0141 -0.0284
  563loPI   C3B 9007  13.512   8.807   8.554 -0.2201  0.0764 -0.2060
  563loPI   C4B 9008  13.666   8.884   8.106  0.0447 -0.0640 -0.3349
  564loPI    C1 9009  18.568   7.552  11.102 -0.1062  0.0349  0.1357
  564loPI    C2 9010  18.274   7.381  11.314  0.0662 -0.3383  0.0812
  564loPI    C3 9011  18.656   7.284  11.386  0.1600 -0.0739 -0.0457
  564loPI   PO4 9012  18.520   7.587  10.818 -0.2108  0.1980  0.0327
  564loPI   GL1 9013  18.554   7.297  10.449  0.1806  0.5008  0.0146
  564loPI   GL2 9014  18.376   7.516  10.295 -0.3136  0.2577  0.2908
  564loPI   C1A 9015  18.804   7.274  10.010 -0.1037  0.0295  0.0918
  564loPI   C2A 9016  18.812   7.151   9.677 -0.3871  0.1759 -0.2358
  564loPI   C3A 9017  18.870   7.266   9.204 -0.4127  0.3165  0.2008
  564loPI   C4A 9018  18.796   7.195   8.691  0.0370 -0.3774 -0.0238
  564loPI   C5A 9019  18.680   7.272   8.319  0.2121 -0.0106  0.0210
  564loPI   C6A 9020  18.510   7.174   7.880 -0.0012 -0.2963 -0.0099
  564loPI   C1B 9021  18.377   7.410   9.849 -0.0855  0.0541  0.0068
  564loPI   C2B 9022  18.355   7.409   9.450 -0.1993  0.0536  0.0836
  564loPI   C3B 9023  18.441   7.497   9.115  0.2090 -0.2307  0.1653
  564loPI   C4B 9024  18.314   7.582   8.640 -0.1243  0.1913 -0.0351
  565loPI    C1 9025   4.901   0.230  10.453  0.1140 -0.1555 -0.0725
  565loPI    C2 9026   5.157  -0.068  10.528  0.0362 -0.1420  0.2633
  565loPI    C3 9027   4.997   0.139  10.831  0.0528  0.2120  0.0356
  565loPI   PO4 9028   4.796   0.108  10.188 -0.0039 -0.0281 -0.0613
  565loPI   GL1 9029   4.761   0.064   9.791 -0.0675  0.0228  0.3232
  565loPI   GL2 9030   4.677   0.337   9.586  0.2539  0.3189 -0.2964
  565loPI   C1A 9031   5.173   0.096   9.414  0.0586  0.0033  0.0124
  565loPI   C2A 9032   5.237   0.257   9.002  0.0877  0.0716  0.2133
  565loPI   C3A 9033   5.323   0.233   8.486 -0.2988 -0.2659 -0.2622
  565loPI   C4A 9034   5.442   0.512   8.175  0.0350 -0.2842 -0.1115
  565loPI   C5A 9035   5.581   0.813   7.927  0.0665  0.0317  0.0647
  565loPI   C6A 9036   5.403   1.254   7.769 -0.1986 -0.0938  0.1787
  565loPI   C1B 9037   4.793   0.473   9.292  0.0377 -0.0131  0.0980
  565loPI   C2B 9038   4.713   0.720   8.912 -0.1218  0.2978  0.0931
  565loPI   C3B 9039   4.654   0.833   8.491  0.0499 -0.1590  0.0834
  565loPI   C4B 9040   4.571   0.763   8.075  0.0893 -0.0333  0.0508
  566loPI    C1 9041  17.501   8.078  10.527  0.0805 -0.1686  0.0787
  566loPI    C2 9042  17.865   8.038  10.689 -0.0186 -0.1865  0.3013
  566loPI    C3 9043  17.567   7.798  10.805 -0.1828  0.0446  0.3633
  566loPI   PO4 9044  17.522   8.292  10.336  0.1791  0.3406  0.2067
  566loPI   GL1 9045  17.547   8.211   9.887 -0.2718  0.1598  0.0367
  566loPI   GL2 9046  17.925   8.191   9.967  0.0829 -0.0151 -0.0400
  566loPI   C1A 9047  17.536   8.113   9.480 -0.2231 -0.0183  0.0494
  566loPI   C2A 9048  17.621   8.140   9.011 -0.1087  0.1069 -0.3522
  566loPI   C3A 9049  17.492   8.156   8.525  0.1449  0.0912 -0.0194
  566loPI   C4A 9050  17.617   8.044   8.303 -0.1752  0.0637 -0.2747
  566loPI   C5A 9051  17.545   7.979   7.870  0.1904 -0.0708 -0.4012
  566loPI   C6A 9052  17.543   8.121   7.431 -0.0912  0.1183  0.0567
  566loPI   C1B 9053  18.020   8.329   9.557  0.2934  0.2712 -0.3550
  566loPI   C2B 9054  18.068   8.262   9.248 -0.2002  0.0260  0.0987
  566loPI   C3B 9055  17.954   8.348   8.695  0.0376 -0.2564 -0.1361
  566loPI   C4B 9056  18.220   8.084   8.347  0.0746 -0.1026 -0.1664
  567loPI    C1 9057   1.103  15.086  10.842 -0.0512  0.0456  0.2834
  567loPI    C2 9058   0.741  15.250  10.881 -0.0600  0.1138 -0.0580
  567loPI    C3 9059   1.066  15.453  10.996 -0.1365 -0.0073  0.3902
  567loPI   PO4 9060   1.120  15.093  10.526 -0.0317 -0.3143 -0.2426
  567loPI   GL1 9061   1.088  15.231  10.069 -0.2612 -0.1457  0.2135
  567loPI   GL2 9062   1.122  14.873  10.063  0.0917  0.1923 -0.0179
  567loPI   C1A 9063   1.057  15.388   9.659  0.0611  0.1404  0.2189
  567loPI   C2A 9064   0.983  15.283   9.195 -0.2191  0.3924 -0.2065
  567loPI   C3A 9065   0.858  15.179   8.793 -0.2273 -0.0845  0.0600
  567loPI   C4A 9066   0.884  15.203   8.320 -0.1449  0.2827 -0.1054
  567loPI   C5A 9067   0.644  15.174   8.007  0.0326 -0.1775 -0.2191
  567loPI   C6A 9068   0.777  15.277   7.658 -0.1605 -0.0900  0.3042
  567loPI   C1B 9069   1.051  14.880   9.675 -0.3879  0.0723  0.0975
  567loPI   C2B 9070   0.893  14.803   9.193 -0.0540 -0.0407 -0.4313
  567loPI   C3B 9071   0.981  14.666   8.796  0.3370 -0.1502  0.0114
  567loPI   C4B 9072   0.775  14.734   8.444  0.0222  0.4812 -0.1074
  568loPI    C1 9073   4.332   0.781  10.214  0.1189 -0.0405  0.0246
  568loPI    C2 9074   4.225   0.779  10.599 -0.1567 -0.1647 -0.0500
  568loPI    C3 9075   4.495   0.517  10.466  0.1543  0.0650  0.1134
  568loPI   PO4 9076   4.215   0.939  10.083  0.1372 -0.5315 -0.0517
  568loPI   GL1 9077   4.069   1.249   9.823 -0.0588  0.1236  0.0185
  568loPI   GL2 9078   3.724   1.090   9.866 -0.1182  0.2074  0.3429
  568loPI   C1A 9079   4.312   1.385   9.431  0.2579  0.0400 -0.0650
  568loPI   C2A 9080   4.619   1.570   9.101  0.1550  0.0644  0.0158
  568loPI   C3A 9081   4.739   1.783   8.746  0.0574  0.1752  0.1185
  568loPI   C4A 9082   4.812   1.767   8.247  0.0407  0.0750 -0.3625
  568loPI   C5A 9083   4.993   1.605   7.899  0.0556  0.0144  0.3959
  568loPI   C6A 9084   5.116   1.685   7.483  0.1291  0.3885 -0.1129
  568loPI   C1B 9085   3.618   1.330   9.520  0.2762  0.1141 -0.0320
  568loPI   C2B 9086   3.699   1.606   9.152  0.0094 -0.2964  0.2046
  568loPI   C3B 9087   3.603   1.558   8.734  0.1693  0.2440  0.0797
  568loPI   C4B 9088   3.607   1.766   8.358  0.0196  0.0030  0.2170
  569loPI    C1 9089  17.325  12.329  10.778 -0.0669 -0.1722 -0.0396
  569loPI    C2 9090  17.089  12.601  10.952  0.0214  0.0389 -0.2449
  569loPI    C3 9091  17.053  12.215  11.048 -0.0794  0.1256  0.0778
  569loPI   PO4 9092  17.424  12.229  10.440  0.0103 -0.1451  0.1290
  569loPI   GL1 9093  17.732  12.281  10.173 -0.2765 -0.0304  0.2098
  569loPI   GL2 9094  17.970  12.228  10.161  0.0515 -0.1985  0.3852
  569loPI   C1A 9095  17.587  12.403   9.784  0.1649  0.0772 -0.3533
  569loPI   C2A 9096  17.557  12.405   9.401  0.1482  0.1417  0.1781
  569loPI   C3A 9097  17.612  12.319   8.954 -0.1699  0.0718  0.3268
  569loPI   C4A 9098  17.657  12.358   8.458  0.3147  0.2533 -0.0842
  569loPI   C5A 9099  17.900  12.168   8.107  0.3315 -0.0561  0.1120
  569loPI   C6A 9100  18.360  12.128   7.918 -0.2406 -0.1114 -0.0461
  569loPI   C1B 9101  18.043  12.122   9.663  0.4873  0.1609 -0.3656
  569loPI   C2B 9102  17.964  12.157   9.254  0.0631 -0.1113 -0.1092
  569loPI   C3B 9103  18.011  12.056   8.854 -0.2685  0.0337  0.2038
  569loPI   C4B 9104  18.221  12.070   8.409  0.0982  0.1309  0.0458
  570loPI    C1 9105   0.235   1.110  10.242 -0.0465  0.0197 -0.0431
  570loPI    C2 9106   0.077   0.879  10.528 -0.0574  0.1769  0.0793
  570loPI    C3 9107   0.423   1.069  10.593  0.1888 -0.1660 -0.1876
  570loPI   PO4 9108   0.301   1.108  10.073  0.0055 -0.0107  0.2651
  570loPI   GL1 9109   0.483   1.357   9.830 -0.0073 -0.5295  0.3072
  570loPI   GL2 9110   0.726   1.468   9.807 -0.2758  0.0200  0.1056
  570loPI   C1A 9111   0.390   1.277   9.388 -0.1616 -0.2010 -0.1188
  570loPI   C2A 9112   0.320   1.292   8.992 -0.1481 -0.1610  0.3344
  570loPI   C3A 9113   0.447   1.266   8.662 -0.0061 -0.0166  0.1354
  570loPI   C4A 9114   0.404   1.236   8.245  0.3088  0.3099 -0.1502
  570loPI   C5A 9115   0.432   1.588   8.008  0.1462 -0.2034 -0.0059
  570loPI   C6A 9116   0.685   1.874   7.843  0.1328 -0.0023 -0.2257
  570loPI   C1B 9117   0.871   1.346   9.496 -0.3262  0.0351  0.0642
  570loPI   C2B 9118   0.951   1.376   9.080  0.0016  0.0773 -0.0490
  570loPI   C3B 9119   0.906   1.374   8.633 -0.2442  0.1002  0.1160
  570loPI   C4B 9120   0.995   1.517   8.195 -0.2855 -0.3118  0.0980
  571loPI    C1 9121   6.439   7.277  11.308 -0.0581  0.1973 -0.0062
  571loPI    C2 9122   6.599   7.572  11.525  0.2288 -0.1089  0.2087
  571loPI    C3 9123   6.646   7.192  11.639 -0.0140 -0.2493 -0.1421
  571loPI   PO4 9124   6.529   7.325  11.018  0.1972  0.2683  0.1424
  571loPI   GL1 9125   6.364   7.319  10.633 -0.0283  0.0725  0.1059
  571loPI   GL2 9126   6.467   7.541  10.467  0.4644  0.1494  0.0877
  571loPI   C1A 9127   6.665   7.026  10.418 -0.1912 -0.3847  0.2896
  571loPI   C2A 9128   6.618   6.691  10.096 -0.3693  0.0271 -0.4599
  571loPI   C3A 9129   6.699   6.920   9.749  0.1775  0.0400  0.4820
  571loPI   C4A 9130   6.603   6.951   9.294  0.0392 -0.0445  0.1369
  571loPI   C5A 9131   6.639   6.938   8.822 -0.3133  0.0512  0.1217
  571loPI   C6A 9132   6.767   7.119   8.425 -0.2227 -0.3604  0.1669
  571loPI   C1B 9133   6.223   7.640  10.110  0.1979 -0.4485  0.1376
  571loPI   C2B 9134   6.281   7.715   9.737  0.3168  0.1409 -0.0698
  571loPI   C3B 9135   6.149   7.845   9.313 -0.2797  0.0018  0.2965
  571loPI   C4B 9136   6.171   7.722   8.860  0.1641 -0.1605 -0.1770
  572loPI    C1 9137   0.691   4.302  10.408 -0.1101 -0.1258 -0.1616
  572loPI    C2 9138   0.399   4.353  10.140 -0.0974 -0.1307 -0.1765
  572loPI    C3 9139   0.366   4.514  10.505 -0.1557 -0.2002 -0.1508
  572loPI   PO4 9140   0.826   4.129  10.235 -0.3213 -0.1420  0.1753
  572loPI   GL1 9141   0.992   3.799  10.170  0.0083  0.0401 -0.0757
  572loPI   GL2 9142   1.274   4.011  10.009  0.2234  0.2529  0.0427
  572loPI   C1A 9143   1.021   3.575   9.815  0.0176 -0.0894 -0.1547
  572loPI   C2A 9144   1.141   3.525   9.458 -0.1062 -0.0886  0.2652
  572loPI   C3A 9145   1.075   3.351   9.077 -0.1011  0.1079  0.1536
  572loPI   C4A 9146   1.159   3.428   8.640 -0.0839 -0.0018  0.0957
  572loPI   C5A 9147   0.948   3.406   8.187  0.2011  0.0093 -0.1802
  572loPI   C6A 9148   0.542   3.326   7.976 -0.2416  0.0030  0.0579
  572loPI   C1B 9149   1.272   4.055   9.567  0.2467 -0.2358 -0.2673
  572loPI   C2B 9150   1.289   4.088   9.198  0.1666 -0.0114  0.0119
  572loPI   C3B 9151   1.728   4.251   9.127  0.0269 -0.2099  0.0847
  572loPI   C4B 9152   1.943   4.517   8.977 -0.0952  0.1537  0.0376
  573loPI    C1 9153  15.555   5.818  10.502  0.0416  0.1421 -0.1372
  573loPI    C2 9154  15.368   5.663  10.821 -0.1113  0.2039 -0.1958
  573loPI    C3 9155  15.402   6.060  10.781  0.0448  0.1931 -0.1796
  573loPI   PO4 9156  15.525   5.648  10.290  0.0371  0.3085  0.2130
  573loPI   GL1 9157  15.615   5.802   9.833 -0.2456  0.1386 -0.0370
  573loPI   GL2 9158  15.314   5.695   9.833 -0.0672 -0.1229 -0.1695
  573loPI   C1A 9159  15.516   5.965   9.438  0.1974  0.4136  0.1372
  573loPI   C2A 9160  15.507   5.903   8.971 -0.2773 -0.0955 -0.2682
  573loPI   C3A 9161  15.639   5.785   8.602 -0.1549  0.2258 -0.0331
  573loPI   C4A 9162  15.749   5.622   8.266 -0.0211 -0.2722  0.1055
  573loPI   C5A 9163  15.677   5.424   7.878 -0.1499  0.1686  0.0091
  573loPI   C6A 9164  15.278   5.320   7.721 -0.0386 -0.0453  0.3013
  573loPI   C1B 9165  15.205   5.551   9.388  0.1932 -0.1470 -0.1438
  573loPI   C2B 9166  15.275   5.511   8.903  0.2293 -0.1641  0.0620
  573loPI   C3B 9167  15.572   5.316   8.719  0.2998 -0.1692 -0.0568
  573loPI   C4B 9168  15.559   5.142   8.333 -0.0026 -0.0820  0.0741
  574loPI    C1 9169   0.800   8.162  11.259  0.2925 -0.4170  0.3446
  574loPI    C2 9170   0.890   8.552  11.255 -0.2487 -0.2835 -0.1772
  574loPI    C3 9171   0.794   8.372  11.599  0.1206  0.0099  0.0866
  574loPI   PO4 9172   0.565   8.188  11.051  0.0440 -0.2612 -0.0978
  574loPI   GL1 9173   0.493   8.282  10.593  0.0322 -0.3015  0.0188
  574loPI   GL2 9174   0.677   8.558  10.690 -0.1782 -0.0503  0.0016
  574loPI   C1A 9175   0.788   7.956  10.351 -0.0751  0.4266  0.2825
  574loPI   C2A 9176   0.840   7.855   9.998  0.0449 -0.1230 -0.3086
  574loPI   C3A 9177   0.767   7.898   9.549 -0.2194 -0.1127  0.0785
  574loPI   C4A 9178   0.845   8.002   9.111 -0.0512 -0.2431 -0.1258
  574loPI   C5A 9179   0.738   7.963   8.661 -0.1414 -0.0229 -0.2087
  574loPI   C6A 9180   0.533   7.664   8.459 -0.0519  0.0086  0.0478
  574loPI   C1B 9181   0.787   8.498  10.255 -0.1995  0.1280  0.0413
  574loPI   C2B 9182   0.805   8.486   9.842  0.0723  0.3203 -0.0190
  574loPI   C3B 9183   0.818   8.470   9.416  0.1106 -0.1773 -0.0975
  574loPI   C4B 9184   0.774   8.608   9.010  0.0684  0.0815  0.3842
  575loPI    C1 9185   1.590   5.016  10.978 -0.0899  0.2362  0.1765
  575loPI    C2 9186   1.190   5.025  10.967 -0.0924 -0.0552 -0.1947
  575loPI    C3 9187   1.380   4.688  11.069  0.0626  0.1362  0.1713
  575loPI   PO4 9188   1.657   5.255  10.828  0.1660  0.0657  0.0845
  575loPI   GL1 9189   1.609   5.245  10.354  0.3308  0.1535 -0.0855
  575loPI   GL2 9190   1.843   5.093  10.227 -0.0854 -0.1755  0.1801
  575loPI   C1A 9191   1.560   5.357   9.901  0.1519 -0.0434  0.0886
  575loPI   C2A 9192   1.686   5.333   9.471  0.1482  0.0702  0.2007
  575loPI   C3A 9193   1.599   5.444   9.091 -0.2081  0.0943  0.1407
  575loPI   C4A 9194   1.454   5.374   8.677 -0.0841 -0.0308  0.1641
  575loPI   C5A 9195   1.496   5.735   8.485 -0.1062 -0.0150 -0.4643
  575loPI   C6A 9196   1.451   6.120   8.291 -0.1787 -0.1288 -0.1442
  575loPI   C1B 9197   2.000   5.123   9.859  0.2332 -0.2104 -0.2233
  575loPI   C2B 9198   2.133   5.170   9.417 -0.0244  0.5206 -0.0240
  575loPI   C3B 9199   1.962   5.121   9.027 -0.1680 -0.1559  0.0626
  575loPI   C4B 9200   2.030   4.927   8.669 -0.0476 -0.0702  0.2354
  576loPI    C1 9201   5.632  17.617  10.333 -0.2486 -0.0748  0.0119
  576loPI    C2 9202   5.963  17.670  10.551 -0.1138 -0.0263 -0.2014
  576loPI    C3 9203   5.630  17.530  10.723  0.1083 -0.3795 -0.0483
  576loPI   PO4 9204   5.674  17.521  10.099  0.1080 -0.1261  0.1648
  576loPI   GL1 9205   5.597  17.171   9.887  0.1683 -0.2036  0.3232
  576loPI   GL2 9206   5.723  16.870   9.891  0.2498 -0.0153  0.0657
  576loPI   C1A 9207   5.336  17.182   9.502 -0.4487  0.1115 -0.3066
  576loPI   C2A 9208   5.250  17.133   9.117 -0.3214  0.1354 -0.1418
  576loPI   C3A 9209   5.238  17.062   8.685  0.1444  0.4296 -0.2142
  576loPI   C4A 9210   5.498  16.844   8.288 -0.0556 -0.2787  0.2265
  576loPI   C5A 9211   5.495  16.865   7.878 -0.0103 -0.0274  0.0632
  576loPI   C6A 9212   5.496  16.991   7.471 -0.0733  0.0640 -0.0159
  576loPI   C1B 9213   5.774  16.952   9.391 -0.4441  0.0863 -0.0604
  576loPI   C2B 9214   6.131  16.804   9.035  0.2491 -0.1987 -0.2724
  576loPI   C3B 9215   6.420  16.684   8.751 -0.0030 -0.1050  0.1001
  576loPI   C4B 9216   6.540  16.715   8.377 -0.0130 -0.5651 -0.4254
  577loPI    C1 9217   3.014  18.462  10.375  0.2741 -0.1099  0.0588
  577loPI    C2 9218   3.123  18.674  10.697 -0.0634  0.0550  0.0682
  577loPI    C3 9219   3.172  18.277  10.693 -0.0081  0.0582  0.3018
  577loPI   PO4 9220   3.146  18.772  10.150 -0.3040 -0.0555  0.1546
  577loPI   GL1 9221   2.999  19.179   9.883 -0.2693 -0.2309 -0.0637
  577loPI   GL2 9222   2.742  19.362  10.009  0.0240 -0.0424 -0.0707
  577loPI   C1A 9223   3.062  19.090   9.339  0.0435  0.0498 -0.3032
  577loPI   C2A 9224   3.254  19.203   8.909 -0.1804 -0.2482 -0.2668
  577loPI   C3A 9225   3.125  19.291   8.554  0.2759  0.0035 -0.0264
  577loPI   C4A 9226   3.095  19.415   8.107 -0.3842 -0.3619 -0.2632
  577loPI   C5A 9227   2.757  19.553   7.850 -0.1837  0.3646 -0.0744
  577loPI   C6A 9228   2.412  19.706   7.924 -0.2674  0.1979  0.0509
  577loPI   C1B 9229   2.766  19.553   9.637 -0.1067  0.0183  0.0191
  577loPI   C2B 9230   2.904  19.545   9.207  0.0719 -0.1044 -0.2452
  577loPI   C3B 9231   2.924  19.647   8.835  0.3362 -0.1039  0.2859
  577loPI   C4B 9232   2.792  19.653   8.417 -0.1138  0.1251 -0.1192
  578loPI    C1 9233   0.413   6.005  10.940  0.1878 -0.1171  0.1452
  578loPI    C2 9234   0.675   6.124  11.218  0.0312  0.1639  0.1756
  578loPI    C3 9235   0.285   6.102  11.306  0.0082  0.0319  0.0447
  578loPI   PO4 9236   0.487   6.136  10.755  0.1155  0.0507 -0.1241
  578loPI   GL1 9237   0.461   6.259  10.338  0.2306 -0.2584 -0.1931
  578loPI   GL2 9238   0.667   5.912  10.182  0.0760  0.2170  0.0060
  578loPI   C1A 9239   0.705   6.320   9.881  0.0352 -0.1680  0.1150
  578loPI   C2A 9240   0.690   6.380   9.460  0.0207  0.0088  0.2083
  578loPI   C3A 9241   0.729   6.413   9.069  0.2059 -0.1193 -0.0746
  578loPI   C4A 9242   0.649   6.357   8.639 -0.2455 -0.0135  0.1102
  578loPI   C5A 9243   0.889   6.369   8.266  0.0811 -0.3124  0.1630
  578loPI   C6A 9244   1.279   6.569   8.015  0.3326  0.2872 -0.2149
  578loPI   C1B 9245   0.723   5.863   9.736  0.1014 -0.2331  0.3279
  578loPI   C2B 9246   0.695   5.814   9.323 -0.2226  0.2725  0.2152
  578loPI   C3B 9247   0.620   5.829   8.847  0.2267  0.2152 -0.0787
  578loPI   C4B 9248   0.533   5.812   8.325 -0.2382  0.0782 -0.0705
  579loPI    C1 9249  10.018   2.825  10.615  0.0412  0.0888 -0.0533
  579loPI    C2 9250   9.980   2.436  10.700 -0.0451  0.0798 -0.1313
  579loPI    C3 9251   9.668   2.682  10.746  0.0219  0.1482 -0.0397
  579loPI   PO4 9252  10.136   2.776  10.275  0.1379 -0.0362  0.0336
  579loPI   GL1 9253  10.208   2.942   9.833 -0.1060 -0.2282  0.0574
  579loPI   GL2 9254  10.154   3.222   9.800  0.2864 -0.0041 -0.4400
  579loPI   C1A 9255  10.202   2.692   9.461  0.2576 -0.1206 -0.2065
  579loPI   C2A 9256  10.189   2.661   9.026 -0.2542  0.1898  0.1782
  579loPI   C3A 9257  10.247   2.751   8.626 -0.1375  0.3059  0.0685
  579loPI   C4A 9258  10.261   2.801   8.157 -0.0907 -0.3378 -0.0415
  579loPI   C5A 9259  10.183   2.959   7.655 -0.3086 -0.0405 -0.1933
  579loPI   C6A 9260  10.154   2.898   7.254 -0.1481 -0.1470  0.1783
  579loPI   C1B 9261  10.197   3.230   9.375 -0.1976  0.1638 -0.0824
  579loPI   C2B 9262  10.210   3.190   8.918  0.2653 -0.4728 -0.4030
  579loPI   C3B 9263  10.284   3.341   8.481  0.0671  0.0426 -0.0594
  579loPI   C4B 9264  10.217   3.290   7.975  0.1143 -0.2456  0.0911
  580loPI    C1 9265  11.090   5.989  10.864 -0.1985  0.2196  0.1088
  580loPI    C2 9266  10.724   5.888  10.989 -0.2128 -0.1562 -0.2163
  580loPI    C3 9267  10.999   5.605  10.929 -0.0148  0.0767 -0.4295
  580loPI   PO4 9268  11.109   6.139  10.687  0.0742  0.1670 -0.4756
  580loPI   GL1 9269  10.944   6.312  10.300 -0.1681 -0.0310  0.0849
  580loPI   GL2 9270  11.229   6.239  10.200 -0.1318  0.2887 -0.1301
  580loPI   C1A 9271  10.824   6.665   9.911  0.2403  0.0120  0.1000
  580loPI   C2A 9272  10.724   6.587   9.442  0.0264 -0.4493  0.3753
  580loPI   C3A 9273  10.647   6.615   8.967  0.3381 -0.2192 -0.3228
  580loPI   C4A 9274  10.537   6.816   8.531  0.0300  0.0173 -0.1913
  580loPI   C5A 9275  10.624   6.830   8.095 -0.0427  0.0549  0.0795
  580loPI   C6A 9276  10.789   6.516   8.007  0.0861  0.4951 -0.0158
  580loPI   C1B 9277  11.106   6.316   9.773  0.1833  0.0493  0.1716
  580loPI   C2B 9278  11.178   6.391   9.341  0.0053  0.1749  0.1616
  580loPI   C3B 9279  11.072   6.373   8.872 -0.4345 -0.2803  0.2204
  580loPI   C4B 9280  11.072   6.281   8.389  0.2689  0.0526  0.1395
  581loPI    C1 9281  12.842   3.614  10.075 -0.2694 -0.1466 -0.0563
  581loPI    C2 9282  12.953   3.493  10.439 -0.2763 -0.0368 -0.0173
  581loPI    C3 9283  12.705   3.803  10.399 -0.0806  0.1086 -0.1226
  581loPI   PO4 9284  13.012   3.685  10.002 -0.0239  0.1395  0.2213
  581loPI   GL1 9285  13.237   3.478   9.659  0.0421 -0.0761 -0.0838
  581loPI   GL2 9286  13.400   3.720   9.638  0.4423  0.1262  0.1134
  581loPI   C1A 9287  12.880   3.383   9.407 -0.3575  0.1791  0.4694
  581loPI   C2A 9288  12.994   3.323   8.940  0.2920  0.1687 -0.0941
  581loPI   C3A 9289  12.902   3.325   8.434  0.0342  0.0640  0.0524
  581loPI   C4A 9290  12.836   3.165   7.962 -0.1838  0.0690  0.1772
  581loPI   C5A 9291  12.569   3.390   7.647 -0.1889  0.1372  0.1247
  581loPI   C6A 9292  12.138   3.508   7.533 -0.1027 -0.1639  0.1157
  581loPI   C1B 9293  13.284   3.702   9.246  0.3124  0.0001 -0.1719
  581loPI   C2B 9294  13.244   4.081   8.971 -0.0431  0.0853  0.3140
  581loPI   C3B 9295  13.440   4.108   8.527 -0.3698 -0.3267  0.1414
  581loPI   C4B 9296  13.893   4.022   8.340 -0.2203 -0.0613 -0.3320
  582loPI    C1 9297   2.045   1.732  10.244 -0.0758 -0.2074  0.0312
  582loPI    C2 9298   1.932   1.453  10.508 -0.1741 -0.1569  0.0427
  582loPI    C3 9299   2.241   1.693  10.591 -0.2095 -0.1362  0.1157
  582loPI   PO4 9300   2.067   1.641  10.083 -0.0811  0.4607  0.1791
  582loPI   GL1 9301   1.978   1.799   9.724 -0.0963  0.0860  0.0610
  582loPI   GL2 9302   1.817   1.443   9.702  0.0309 -0.0761  0.0727
  582loPI   C1A 9303   2.283   1.792   9.278  0.1650 -0.0921 -0.2092
  582loPI   C2A 9304   2.351   1.877   8.791 -0.2561 -0.0881 -0.0177
  582loPI   C3A 9305   2.115   1.832   8.409  0.3083 -0.2046  0.1770
  582loPI   C4A 9306   2.332   1.931   8.086 -0.1799 -0.1097  0.0251
  582loPI   C5A 9307   2.603   2.098   7.747 -0.2119 -0.2296 -0.0304
  582loPI   C6A 9308   3.068   2.101   7.666  0.0454 -0.2560  0.1034
  582loPI   C1B 9309   1.818   1.536   9.295  0.2408 -0.1698  0.0145
  582loPI   C2B 9310   1.845   1.634   8.855  0.0524  0.0009 -0.2635
  582loPI   C3B 9311   2.045   1.373   8.531 -0.0289  0.1416  0.0331
  582loPI   C4B 9312   2.038   1.486   8.051  0.0272  0.3024 -0.0295
  583loPI    C1 9313   1.777   2.187  10.444  0.2669  0.0285 -0.3031
  583loPI    C2 9314   1.850   1.941  10.752 -0.0383  0.1515 -0.1273
  583loPI    C3 9315   2.117   2.223  10.652 -0.0372  0.2605  0.1733
  583loPI   PO4 9316   1.710   2.055  10.159  0.1900  0.1879 -0.1950
  583loPI   GL1 9317   1.793   2.266   9.852 -0.1327  0.2493  0.2570
  583loPI   GL2 9318   1.523   2.394   9.862  0.2578  0.1036  0.0006
  583loPI   C1A 9319   1.964   2.198   9.428  0.1565  0.2434 -0.0122
  583loPI   C2A 9320   1.925   2.138   8.970  0.1891 -0.0006  0.1295
  583loPI   C3A 9321   1.728   2.098   8.580 -0.2205 -0.0452  0.1245
  583loPI   C4A 9322   1.615   1.981   8.191  0.2850  0.0832 -0.3197
  583loPI   C5A 9323   1.286   1.889   7.973  0.1156 -0.1024  0.0179
  583loPI   C6A 9324   1.189   1.674   7.587 -0.0317 -0.1097  0.2452
  583loPI   C1B 9325   1.667   2.649   9.440  0.3666 -0.1388  0.0333
  583loPI   C2B 9326   1.699   2.675   9.028  0.5256 -0.0620 -0.2496
  583loPI   C3B 9327   1.731   2.641   8.605  0.2134  0.0039 -0.1717
  583loPI   C4B 9328   1.758   2.772   8.095 -0.0556  0.0101  0.0031
  584loPI    C1 9329   3.909   4.506  10.704 -0.1886 -0.4243  0.2592
  584loPI    C2 9330   3.571   4.705  10.782 -0.0825 -0.1054 -0.0677
  584loPI    C3 9331   3.894   4.763  11.011 -0.0585  0.0861 -0.1483
  584loPI   PO4 9332   3.890   4.544  10.359  0.1004  0.2037 -0.0939
  584loPI   GL1 9333   4.011   4.685   9.900 -0.0478  0.3189 -0.0560
  584loPI   GL2 9334   3.680   4.614   9.946 -0.2443 -0.0104  0.1222
  584loPI   C1A 9335   4.167   4.780   9.505  0.2055  0.1359 -0.1169
  584loPI   C2A 9336   4.300   4.897   9.084  0.0411 -0.2497 -0.1928
  584loPI   C3A 9337   4.258   4.728   8.688 -0.2896  0.1015 -0.1829
  584loPI   C4A 9338   4.227   4.855   8.296 -0.0476 -0.0662 -0.0017
  584loPI   C5A 9339   3.972   4.680   7.872  0.2580  0.0982 -0.3246
  584loPI   C6A 9340   3.746   4.322   8.056  0.0265  0.0138  0.3834
  584loPI   C1B 9341   3.852   4.373   9.564  0.2477  0.1554  0.1109
  584loPI   C2B 9342   3.746   4.217   9.190 -0.0332 -0.0009  0.1030
  584loPI   C3B 9343   3.914   4.026   8.897 -0.1927 -0.0157  0.1467
  584loPI   C4B 9344   4.168   3.766   8.847 -0.1250 -0.0709 -0.0317
  585loPI    C1 9345   4.453  16.753  10.531  0.0223  0.0433 -0.0018
  585loPI    C2 9346   4.401  17.123  10.676 -0.0100 -0.0719  0.2881
  585loPI    C3 9347   4.725  16.912  10.778  0.0855 -0.0687  0.0013
  585loPI   PO4 9348   4.323  16.821  10.278  0.1876  0.0262  0.2238
  585loPI   GL1 9349   4.182  16.720   9.880  0.2482 -0.0287  0.1165
  585loPI   GL2 9350   3.905  16.626   9.772 -0.1175  0.1785  0.0131
  585loPI   C1A 9351   4.478  16.468   9.663  0.1719  0.0441 -0.0289
  585loPI   C2A 9352   4.439  16.281   9.277  0.1271  0.0431 -0.4727
  585loPI   C3A 9353   4.457  16.136   8.891 -0.2490 -0.0145 -0.0586
  585loPI   C4A 9354   4.220  16.268   8.525 -0.0220 -0.0711  0.0293
  585loPI   C5A 9355   4.307  16.222   8.205 -0.3391  0.1544 -0.1155
  585loPI   C6A 9356   4.359  15.921   7.929  0.1890  0.0549  0.0748
  585loPI   C1B 9357   4.109  16.717   9.347 -0.0105  0.0086  0.0002
  585loPI   C2B 9358   4.155  16.628   8.959  0.4872 -0.0933  0.3143
  585loPI   C3B 9359   4.427  16.689   8.709  0.1934  0.0622 -0.1311
  585loPI   C4B 9360   4.440  16.762   8.253 -0.0802  0.5300 -0.1490
  586loPI    C1 9361   9.977   6.012  10.639 -0.0354  0.0116 -0.0093
  586loPI    C2 9362  10.237   5.751  10.794 -0.0601  0.0903  0.1670
  586loPI    C3 9363   9.854   5.740  10.906 -0.0761  0.1550  0.1190
  586loPI   PO4 9364  10.037   6.047  10.389 -0.2700  0.0861 -0.3270
  586loPI   GL1 9365   9.911   5.935  10.076  0.2179  0.0641  0.1166
  586loPI   GL2 9366   9.565   6.160  10.092  0.1209 -0.4656  0.1705
  586loPI   C1A 9367   9.906   6.137   9.633  0.1344  0.3233 -0.0081
  586loPI   C2A 9368   9.746   6.035   9.295  0.1743  0.0854  0.1973
  586loPI   C3A 9369   9.616   6.101   8.886 -0.2119  0.2125  0.0070
  586loPI   C4A 9370   9.652   6.228   8.462 -0.0909  0.2167 -0.1153
  586loPI   C5A 9371   9.585   6.393   8.027 -0.1011 -0.2476 -0.3386
  586loPI   C6A 9372   9.447   6.099   7.730  0.3676  0.0672  0.1943
  586loPI   C1B 9373   9.435   6.185   9.705 -0.2769  0.0901  0.0621
  586loPI   C2B 9374   9.327   6.291   9.245  0.3015  0.4744  0.0844
  586loPI   C3B 9375   9.245   6.498   8.802 -0.0119 -0.0762  0.0287
  586loPI   C4B 9376   9.170   6.481   8.383 -0.0192  0.3515  0.0519
  587loPI    C1 9377   5.722   4.144  10.808 -0.1805 -0.0615  0.1625
  587loPI    C2 9378   5.806   4.335  11.149 -0.0664  0.0532  0.0709
  587loPI    C3 9379   5.471   4.119  11.118  0.0214 -0.1238  0.3236
  587loPI   PO4 9380   5.791   4.366  10.623  0.0660  0.2573  0.3362
  587loPI   GL1 9381   5.817   4.476  10.165 -0.1272  0.0314  0.0300
  587loPI   GL2 9382   5.670   4.702  10.233 -0.1359 -0.1485 -0.0065
  587loPI   C1A 9383   5.994   4.494   9.642 -0.0650 -0.1139  0.2581
  587loPI   C2A 9384   5.937   4.689   9.207 -0.0022  0.3545  0.0721
  587loPI   C3A 9385   6.103   4.650   8.762  0.0377  0.0470  0.2082
  587loPI   C4A 9386   6.201   4.761   8.360 -0.2917  0.4652 -0.2577
  587loPI   C5A 9387   5.902   4.941   8.169 -0.2442  0.1846 -0.2988
  587loPI   C6A 9388   5.949   5.072   7.778 -0.0286 -0.1026  0.0909
  587loPI   C1B 9389   5.452   4.864   9.868 -0.0363 -0.0246  0.0035
  587loPI   C2B 9390   5.577   4.943   9.484 -0.0306  0.0130 -0.1997
  587loPI   C3B 9391   5.560   4.992   9.118 -0.4122  0.1390 -0.1264
  587loPI   C4B 9392   5.684   4.998   8.681 -0.1519  0.1533 -0.1303
  588loPI    C1 9393  10.796  17.283  10.089 -0.1523  0.0612 -0.2019
  588loPI    C2 9394  10.804  17.240  10.487 -0.1293  0.0337 -0.2053
  588loPI    C3 9395  10.454  17.250  10.294 -0.1380 -0.0343 -0.1929
  588loPI   PO4 9396  10.973  17.184   9.998  0.2961 -0.2414  0.0792
  588loPI   GL1 9397  11.080  17.372   9.602  0.5210  0.0911 -0.1799
  588loPI   GL2 9398  10.852  17.312   9.571 -0.1351 -0.0865  0.3233
  588loPI   C1A 9399  11.298  17.614   9.267  0.1355  0.1673 -0.1865
  588loPI   C2A 9400  11.441  17.608   8.802 -0.0511  0.0347  0.1426
  588loPI   C3A 9401  11.428  17.668   8.383  0.2222  0.1239 -0.3409
  588loPI   C4A 9402  11.270  17.602   7.855 -0.0612  0.0768  0.0575
  588loPI   C5A 9403  11.206  17.567   7.384 -0.0512  0.2061 -0.0453
  588loPI   C6A 9404  10.949  17.637   7.030  0.1572  0.1218 -0.1091
  588loPI   C1B 9405  10.661  17.429   9.107 -0.0668  0.1342 -0.0959
  588loPI   C2B 9406  10.933  17.596   8.788 -0.0787  0.7154 -0.0617
  588loPI   C3B 9407  11.006  17.663   8.257 -0.1215 -0.0941 -0.1095
  588loPI   C4B 9408  11.184  18.146   7.985  0.1477  0.0576 -0.3540
  589loPI    C1 9409   0.116  11.681  10.914 -0.0800 -0.1678  0.0673
  589loPI    C2 9410   0.390  11.721  11.202  0.1528 -0.2040 -0.1459
  589loPI    C3 9411   0.001  11.752  11.290  0.2175 -0.2970  0.1852
  589loPI   PO4 9412   0.181  11.794  10.734 -0.2789 -0.0795 -0.1553
  589loPI   GL1 9413   0.005  11.935  10.307 -0.1958 -0.0663  0.1996
  589loPI   GL2 9414   0.015  11.588  10.093 -0.0413 -0.5838  0.0759
  589loPI   C1A 9415   0.230  12.030   9.910  0.0693 -0.0401  0.2969
  589loPI   C2A 9416   0.361  11.980   9.470 -0.1225 -0.0338  0.2537
  589loPI   C3A 9417   0.446  11.938   9.002 -0.1370  0.1905  0.2874
  589loPI   C4A 9418   0.481  11.647   8.623 -0.0514 -0.0394  0.4059
  589loPI   C5A 9419   0.655  11.627   8.240  0.0516 -0.0147  0.1082
  589loPI   C6A 9420   1.118  11.597   8.071  0.2052  0.0909  0.0917
  589loPI   C1B 9421  -0.076  11.757   9.621 -0.0685  0.0939  0.0034
  589loPI   C2B 9422  -0.048  11.788   9.181  0.2802 -0.0602  0.0037
  589loPI   C3B 9423  -0.156  11.601   8.690  0.0099  0.1373  0.1002
  589loPI   C4B 9424  -0.402  11.430   8.339  0.1437  0.2377 -0.1494
  590loPI    C1 9425  16.780   7.611  10.530 -0.0518 -0.0399  0.0757
  590loPI    C2 9426  17.007   7.719  10.841  0.1629 -0.0145 -0.0879
  590loPI    C3 9427  16.820   7.365  10.843  0.0516  0.0440  0.1290
  590loPI   PO4 9428  16.611   7.758  10.557  0.2105 -0.2240  0.0092
  590loPI   GL1 9429  16.517   8.034  10.238  0.2255  0.1892 -0.2931
  590loPI   GL2 9430  16.651   8.302  10.171  0.0443  0.0877 -0.0910
  590loPI   C1A 9431  16.501   7.987   9.823  0.2441 -0.0840 -0.1117
  590loPI   C2A 9432  16.619   8.090   9.392  0.1482 -0.1248 -0.0443
  590loPI   C3A 9433  16.581   8.084   8.955 -0.2271  0.0736 -0.0487
  590loPI   C4A 9434  16.647   8.051   8.484  0.2286  0.0822  0.1180
  590loPI   C5A 9435  16.633   8.228   8.136  0.0345 -0.0216  0.0541
  590loPI   C6A 9436  16.397   8.248   7.821  0.1160  0.1165  0.0924
  590loPI   C1B 9437  16.570   8.509   9.764  0.0592  0.2856 -0.0238
  590loPI   C2B 9438  16.581   8.618   9.241  0.0352 -0.3430 -0.1039
  590loPI   C3B 9439  16.653   8.677   8.832  0.0723  0.1015 -0.0187
  590loPI   C4B 9440  16.664   8.800   8.366 -0.0467  0.0433 -0.1394
  591loPI    C1 9441  18.086  18.483   9.921  0.0250 -0.0982 -0.0290
  591loPI    C2 9442  18.280  18.269  10.198  0.1642 -0.0946 -0.1227
  591loPI    C3 9443  18.388  18.244   9.814 -0.1236 -0.2129 -0.1984
  591loPI   PO4 9444  17.865  18.459   9.843 -0.2336 -0.0362  0.0331
  591loPI   GL1 9445  17.714  18.266   9.459 -0.2101  0.0656  0.0300
  591loPI   GL2 9446  17.524  18.018   9.387 -0.1537  0.0715 -0.2131
  591loPI   C1A 9447  18.022  18.480   9.223  0.1448  0.1186  0.0841
  591loPI   C2A 9448  18.012  18.522   8.802 -0.1909  0.3014  0.1721
  591loPI   C3A 9449  18.101  18.613   8.393  0.1697  0.2555  0.0678
  591loPI   C4A 9450  18.165  18.711   8.006  0.0756  0.2474 -0.1016
  591loPI   C5A 9451  18.487  18.873   7.926 -0.3100 -0.0090  0.0890
  591loPI   C6A 9452  18.864  18.789   7.748  0.3633  0.0609 -0.0644
  591loPI   C1B 9453  17.703  18.197   8.934  0.1699  0.0834 -0.0637
  591loPI   C2B 9454  17.821  18.151   8.475  0.4075 -0.1663 -0.2904
  591loPI   C3B 9455  18.088  18.116   8.014 -0.0519  0.0027  0.4652
  591loPI   C4B 9456  18.232  18.037   7.655 -0.0061 -0.0594  0.2698
  592loPI    C1 9457  14.824   6.915  10.621  0.1849  0.0645  0.1212
  592loPI    C2 9458  14.661   7.254  10.758 -0.1667  0.0517 -0.2482
  592loPI    C3 9459  14.702   6.939  11.001 -0.0695  0.2748  0.0291
  592loPI   PO4 9460  14.954   7.080  10.333 -0.2469 -0.0345 -0.1026
  592loPI   GL1 9461  14.841   7.078   9.959 -0.0418  0.3688  0.0640
  592loPI   GL2 9462  14.766   7.389   9.819 -0.3600  0.3206 -0.1846
  592loPI   C1A 9463  14.731   6.983   9.499 -0.1544 -0.0592 -0.0417
  592loPI   C2A 9464  14.772   6.940   9.120  0.1301  0.3275 -0.2036
  592loPI   C3A 9465  14.781   6.951   8.618  0.0578  0.4263 -0.0243
  592loPI   C4A 9466  14.732   7.086   8.139  0.0653 -0.0515 -0.0580
  592loPI   C5A 9467  14.602   7.068   7.735 -0.1434  0.0110 -0.0921
  592loPI   C6A 9468  14.260   7.136   7.725  0.1183  0.1107  0.1705
  592loPI   C1B 9469  14.815   7.457   9.402 -0.1702  0.0211 -0.0421
  592loPI   C2B 9470  14.776   7.427   8.935  0.1389 -0.3507 -0.1548
  592loPI   C3B 9471  14.898   7.450   8.575  0.0608  0.0261  0.2708
  592loPI   C4B 9472  15.100   7.428   8.211  0.2472 -0.1135  0.2605
  593loPI    C1 9473   5.671  10.838  10.790  0.1353  0.1514  0.4133
  593loPI    C2 9474   5.289  10.782  10.894  0.0145 -0.2109 -0.1734
  593loPI    C3 9475   5.566  10.512  10.996  0.0666 -0.0929  0.0032
  593loPI   PO4 9476   5.708  10.835  10.489  0.0582 -0.2111 -0.2512
  593loPI   GL1 9477   5.892  11.039  10.075 -0.0350  0.0887 -0.0890
  593loPI   GL2 9478   5.805  11.318   9.999  0.0404  0.1587  0.3400
  593loPI   C1A 9479   5.839  11.124   9.522 -0.0845  0.2986 -0.3417
  593loPI   C2A 9480   5.862  11.156   9.084  0.3882  0.1062 -0.0301
  593loPI   C3A 9481   5.929  11.228   8.644  0.1785 -0.1721  0.0560
  593loPI   C4A 9482   6.026  11.151   8.207 -0.3949  0.4099 -0.0736
  593loPI   C5A 9483   5.913  11.342   7.803  0.2287 -0.1620  0.0864
  593loPI   C6A 9484   6.168  11.439   7.500 -0.2059  0.3053 -0.2791
  593loPI   C1B 9485   5.938  11.528   9.739  0.1747 -0.3697 -0.2399
  593loPI   C2B 9486   5.927  11.711   9.322  0.0276  0.2933 -0.3561
  593loPI   C3B 9487   5.887  11.759   8.898  0.0416 -0.1682 -0.0143
  593loPI   C4B 9488   5.916  11.781   8.403 -0.0823 -0.0106 -0.0270
  594loPI    C1 9489   7.469  11.885  10.698 -0.1957 -0.0398  0.1143
  594loPI    C2 9490   7.231  12.059  10.427 -0.0801  0.2665  0.2060
  594loPI    C3 9491   7.124  12.052  10.813  0.0478  0.3884  0.2447
  594loPI   PO4 9492   7.492  11.625  10.515  0.2435 -0.0408 -0.1703
  594loPI   GL1 9493   7.578  11.605  10.054  0.0592  0.0044  0.0589
  594loPI   GL2 9494   7.367  11.861   9.956 -0.0693  0.1582  0.0502
  594loPI   C1A 9495   7.304  11.399   9.632  0.4386  0.1555  0.2568
  594loPI   C2A 9496   7.287  11.467   9.180 -0.1448 -0.0061  0.0967
  594loPI   C3A 9497   7.255  11.449   8.735  0.0999 -0.0176 -0.0346
  594loPI   C4A 9498   7.202  11.522   8.305 -0.3526  0.0220 -0.1501
  594loPI   C5A 9499   7.353  11.547   7.859  0.0646  0.1325  0.4908
  594loPI   C6A 9500   7.687  11.711   7.557  0.1186 -0.2299  0.1444
  594loPI   C1B 9501   7.333  11.891   9.576 -0.1320 -0.1275  0.3610
  594loPI   C2B 9502   7.218  11.987   9.086 -0.0471  0.1125 -0.0092
  594loPI   C3B 9503   7.269  11.962   8.603 -0.0359 -0.1426 -0.3795
  594loPI   C4B 9504   7.213  12.120   8.182 -0.0578  0.4455 -0.2046
  595loPI    C1 9505   6.174   5.170  10.870 -0.0687 -0.1677 -0.1642
  595loPI    C2 9506   5.908   5.276  11.149  0.1138  0.0721 -0.0778
  595loPI    C3 9507   6.084   4.917  11.167 -0.0304  0.0040 -0.0045
  595loPI   PO4 9508   6.116   5.225  10.546  0.2502 -0.1034 -0.1703
  595loPI   GL1 9509   5.833   5.131  10.250  0.0913 -0.0252  0.2406
  595loPI   GL2 9510   5.645   5.295  10.056  0.2780 -0.2866 -0.1433
  595loPI   C1A 9511   5.975   4.991   9.861  0.0950 -0.1429  0.2378
  595loPI   C2A 9512   6.057   5.143   9.406 -0.0648 -0.2017  0.1665
  595loPI   C3A 9513   6.158   5.248   8.930  0.2181  0.1973  0.0742
  595loPI   C4A 9514   6.076   5.242   8.589  0.0691  0.0572  0.0199
  595loPI   C5A 9515   6.100   5.414   8.186  0.1983  0.0106  0.0543
  595loPI   C6A 9516   6.007   5.572   7.808 -0.0393 -0.1421  0.0799
  595loPI   C1B 9517   5.541   5.412   9.634 -0.1358  0.0131  0.0177
  595loPI   C2B 9518   5.740   5.523   9.284 -0.1477  0.2129 -0.0991
  595loPI   C3B 9519   5.699   5.499   8.888 -0.1006  0.0122 -0.2365
  595loPI   C4B 9520   5.658   5.474   8.400  0.2741 -0.0248 -0.1282
  596loPI    C1 9521  11.542   7.299  10.432  0.1487  0.2883  0.1539
  596loPI    C2 9522  11.361   7.305  10.789 -0.0529 -0.0408  0.0621
  596loPI    C3 9523  11.560   6.978  10.671  0.2461  0.1650 -0.0167
  596loPI   PO4 9524  11.629   7.503  10.426  0.2720  0.2464 -0.0113
  596loPI   GL1 9525  11.470   7.701  10.014  0.0000 -0.1146 -0.1827
  596loPI   GL2 9526  11.482   7.720   9.748  0.0612  0.1333  0.1434
  596loPI   C1A 9527  11.534   7.233   9.679  0.0063  0.1622 -0.0027
  596loPI   C2A 9528  11.643   7.157   9.095 -0.1343 -0.0535  0.0037
  596loPI   C3A 9529  11.618   7.217   8.648  0.0262 -0.0669 -0.2357
  596loPI   C4A 9530  11.727   7.371   8.215  0.2573 -0.2440 -0.1855
  596loPI   C5A 9531  11.560   7.415   7.893  0.0061 -0.1851 -0.2873
  596loPI   C6A 9532  11.438   7.312   7.481  0.0103  0.0612 -0.0042
  596loPI   C1B 9533  11.537   7.702   9.389  0.0322  0.2415 -0.1770
  596loPI   C2B 9534  11.558   7.720   8.928  0.1078 -0.0120 -0.1646
  596loPI   C3B 9535  11.555   7.782   8.549 -0.2168 -0.2255 -0.1221
  596loPI   C4B 9536  11.624   7.865   8.113  0.1547 -0.0845 -0.1103
  597loPI    C1 9537   1.510   3.267  10.550  0.0063  0.1932  0.1618
  597loPI    C2 9538   1.717   3.141  10.867 -0.1541 -0.1473  0.1364
  597loPI    C3 9539   1.381   3.351  10.919 -0.0434  0.0210  0.1844
  597loPI   PO4 9540   1.522   3.078  10.387 -0.1572 -0.1034  0.1302
  597loPI   GL1 9541   1.739   3.062  10.011 -0.0093 -0.3955 -0.0622
  597loPI   GL2 9542   1.801   2.859   9.847 -0.0019 -0.0707  0.4207
  597loPI   C1A 9543   1.456   3.115   9.591  0.2382 -0.1523 -0.0798
  597loPI   C2A 9544   1.524   3.141   9.169 -0.3544 -0.4240  0.3727
  597loPI   C3A 9545   1.582   3.160   8.706  0.0522  0.0665 -0.1533
  597loPI   C4A 9546   1.570   3.238   8.302  0.2235  0.0034 -0.2479
  597loPI   C5A 9547   1.679   3.475   8.033  0.2143 -0.4306  0.1981
  597loPI   C6A 9548   1.878   3.720   7.765  0.0142 -0.2657  0.3022
  597loPI   C1B 9549   1.920   3.193   9.464  0.2583 -0.1528 -0.2284
  597loPI   C2B 9550   1.906   3.395   9.017 -0.0625 -0.0800  0.0646
  597loPI   C3B 9551   2.171   3.581   8.670 -0.2496 -0.1452  0.0633
  597loPI   C4B 9552   2.554   3.726   8.815  0.1104 -0.1985  0.0533
  598loPI    C1 9553  15.851  15.517  10.540 -0.0619 -0.4605 -0.1010
  598loPI    C2 9554  15.524  15.625  10.744  0.0044 -0.0058 -0.2248
  598loPI    C3 9555  15.867  15.554  10.938 -0.0770 -0.1366 -0.1278
  598loPI   PO4 9556  15.800  15.690  10.338 -0.3595 -0.0260 -0.1264
  598loPI   GL1 9557  15.898  15.830   9.951  0.0676 -0.2573  0.0951
  598loPI   GL2 9558  15.736  15.561   9.809  0.2222  0.1028  0.1947
  598loPI   C1A 9559  15.737  16.174   9.648  0.1939  0.1131 -0.0695
  598loPI   C2A 9560  15.688  16.402   9.290 -0.1057 -0.0434 -0.0887
  598loPI   C3A 9561  15.868  16.600   8.846  0.1957 -0.2600 -0.0746
  598loPI   C4A 9562  16.051  16.522   8.485 -0.0908 -0.0363  0.0183
  598loPI   C5A 9563  16.272  16.750   8.123 -0.1318 -0.2473  0.4083
  598loPI   C6A 9564  16.331  16.684   7.628 -0.0729  0.0621  0.1099
  598loPI   C1B 9565  15.938  15.725   9.441 -0.0935  0.2663 -0.4103
  598loPI   C2B 9566  15.911  15.737   8.920  0.0438 -0.2453 -0.0618
  598loPI   C3B 9567  16.038  15.693   8.430  0.2823  0.1208 -0.0826
  598loPI   C4B 9568  16.273  15.803   8.000 -0.0789 -0.0052  0.0539
  599loPI    C1 9569  17.678   6.198  10.713 -0.4536  0.4866  0.1089
  599loPI    C2 9570  18.030   6.368  10.627 -0.2228  0.0032  0.0605
  599loPI    C3 9571  17.917   6.324  11.008 -0.1485 -0.0024  0.0819
  599loPI   PO4 9572  17.582   5.996  10.548  0.0010 -0.0761  0.2490
  599loPI   GL1 9573  17.373   5.971  10.101 -0.0826  0.0928  0.2636
  599loPI   GL2 9574  17.352   5.698   9.828 -0.1097  0.2617 -0.1439
  599loPI   C1A 9575  17.416   6.249   9.634 -0.1395 -0.2022  0.0877
  599loPI   C2A 9576  17.572   6.394   9.287 -0.2679 -0.1511  0.1358
  599loPI   C3A 9577  17.469   6.426   8.903 -0.2762 -0.0209  0.1737
  599loPI   C4A 9578  17.488   6.449   8.491  0.1532 -0.0141  0.1555
  599loPI   C5A 9579  17.329   6.441   8.088  0.0321 -0.2611  0.0779
  599loPI   C6A 9580  17.097   6.508   7.803  0.0102 -0.0039  0.2887
  599loPI   C1B 9581  17.377   5.766   9.404  0.0012 -0.0536 -0.3220
  599loPI   C2B 9582  17.532   5.861   8.955  0.3478  0.2944  0.1638
  599loPI   C3B 9583  17.440   5.917   8.579  0.0554  0.1380 -0.1562
  599loPI   C4B 9584  17.501   6.010   8.199  0.3972 -0.1379 -0.1510
  600loPI    C1 9585  13.456  17.881  10.453  0.1495  0.1682 -0.3416
  600loPI    C2 9586  13.775  17.682  10.589  0.0305  0.1828 -0.0322
  600loPI    C3 9587  13.785  18.081  10.563  0.0983  0.1716 -0.1929
  600loPI   PO4 9588  13.438  17.733  10.130 -0.2425  0.0422  0.0180
  600loPI   GL1 9589  13.340  17.696   9.694  0.2535 -0.3191 -0.1478
  600loPI   GL2 9590  13.529  17.408   9.764  0.0318 -0.2248 -0.2568
  600loPI   C1A 9591  13.127  17.771   9.328 -0.2043 -0.0705  0.1871
  600loPI   C2A 9592  13.071  17.972   9.015  0.0004 -0.1031 -0.1205
  600loPI   C3A 9593  12.957  18.209   8.604 -0.3156 -0.2799 -0.0881
  600loPI   C4A 9594  12.950  18.328   8.201  0.2837 -0.2309  0.1566
  600loPI   C5A 9595  12.843  18.280   7.838  0.3163  0.0358  0.3203
  600loPI   C6A 9596  12.634  18.231   7.563  0.0038  0.3152  0.2649
  600loPI   C1B 9597  13.525  17.442   9.351  0.2057 -0.0623 -0.0962
  600loPI   C2B 9598  13.501  17.648   8.942 -0.0774  0.0876 -0.1363
  600loPI   C3B 9599  13.287  17.732   8.537  0.0325 -0.0173 -0.0006
  600loPI   C4B 9600  13.004  17.674   8.260  0.0915 -0.1832  0.0525
  601loPI    C1 9601   9.011  11.028  10.467  0.1702 -0.2730 -0.0852
  601loPI    C2 9602   9.125  10.878  10.820  0.1903  0.1928  0.1127
  601loPI    C3 9603   8.858  11.176  10.805 -0.1112 -0.0863 -0.2892
  601loPI   PO4 9604   9.029  10.778  10.304 -0.2424  0.2340 -0.3154
  601loPI   GL1 9605   9.209  10.502   9.879 -0.0864  0.2764  0.3530
  601loPI   GL2 9606   8.959  10.692   9.813 -0.1311  0.1956 -0.1338
  601loPI   C1A 9607   9.123  10.451   9.377 -0.3815  0.2181  0.3464
  601loPI   C2A 9608   9.050  10.482   8.910  0.1109 -0.0759  0.1586
  601loPI   C3A 9609   9.033  10.357   8.552 -0.0455  0.0866 -0.1114
  601loPI   C4A 9610   9.311  10.022   8.395  0.3452 -0.1189  0.0974
  601loPI   C5A 9611   9.605  10.039   8.103 -0.0992 -0.1987  0.1829
  601loPI   C6A 9612   9.990   9.956   8.226 -0.2073 -0.0927 -0.2070
  601loPI   C1B 9613   8.661  10.678   9.532 -0.4402  0.2943  0.1252
  601loPI   C2B 9614   8.565  10.583   9.158  0.0193 -0.0387 -0.1642
  601loPI   C3B 9615   8.567  10.651   8.799 -0.1525  0.1519 -0.0539
  601loPI   C4B 9616   8.620  10.656   8.478 -0.1487  0.0219 -0.0932
  602loPI    C1 9617  11.956   6.433  10.768 -0.0126 -0.1272 -0.0042
  602loPI    C2 9618  11.726   6.644  11.018  0.1579  0.0970 -0.0333
  602loPI    C3 9619  12.014   6.408  11.163  0.1438  0.0934 -0.0114
  602loPI   PO4 9620  11.908   6.678  10.500 -0.1644  0.1214 -0.5945
  602loPI   GL1 9621  11.708   6.789  10.243 -0.1415  0.2291 -0.1018
  602loPI   GL2 9622  11.677   6.420  10.126  0.3501  0.2613 -0.0666
  602loPI   C1A 9623  11.834   6.988   9.916  0.1183  0.3600 -0.1475
  602loPI   C2A 9624  11.990   6.967   9.548  0.2397 -0.2135 -0.0299
  602loPI   C3A 9625  12.132   6.872   9.116 -0.0591  0.3909  0.1816
  602loPI   C4A 9626  11.989   6.967   8.745 -0.1199  0.4817  0.0990
  602loPI   C5A 9627  11.978   6.858   8.396  0.2755 -0.2047  0.1962
  602loPI   C6A 9628  11.522   6.870   8.140  0.1429 -0.2023  0.3003
  602loPI   C1B 9629  11.652   6.535   9.776 -0.1164  0.1808 -0.2004
  602loPI   C2B 9630  11.644   6.696   9.315  0.0742  0.0642 -0.0885
  602loPI   C3B 9631  11.617   6.707   8.930  0.0650 -0.2219  0.1311
  602loPI   C4B 9632  11.535   6.592   8.543  0.1621  0.1627 -0.2162
  603loPI    C1 9633  13.854  12.518  10.620 -0.3736 -0.0010  0.0158
  603loPI    C2 9634  13.836  12.453  11.015  0.0016  0.1690  0.0648
  603loPI    C3 9635  13.580  12.267  10.770 -0.0879 -0.1132  0.3653
  603loPI   PO4 9636  14.114  12.598  10.567  0.0987  0.0586  0.0423
  603loPI   GL1 9637  14.329  12.549  10.165 -0.1690  0.2110 -0.0780
  603loPI   GL2 9638  14.190  12.359  10.093  0.0879 -0.3265 -0.4013
  603loPI   C1A 9639  14.273  12.830   9.922 -0.4366 -0.1107 -0.2834
  603loPI   C2A 9640  14.441  12.843   9.533 -0.4401 -0.0038  0.2751
  603loPI   C3A 9641  14.485  12.924   9.072 -0.0348  0.1476  0.1710
  603loPI   C4A 9642  14.533  12.922   8.633 -0.1383  0.2370 -0.1922
  603loPI   C5A 9643  14.465  12.669   8.299  0.0890  0.1929 -0.2102
  603loPI   C6A 9644  14.481  12.288   8.298 -0.2036 -0.0103  0.0253
  603loPI   C1B 9645  14.346  12.382   9.673 -0.4334  0.0594 -0.0945
  603loPI   C2B 9646  14.360  12.385   9.183  0.2786  0.5496 -0.2839
  603loPI   C3B 9647  14.345  12.516   8.770  0.1215 -0.0807  0.0662
  603loPI   C4B 9648  14.067  12.774   8.456  0.3475 -0.0247  0.0940
  604loPI    C1 9649   6.055  11.164  10.604 -0.0947 -0.0971 -0.0896
  604loPI    C2 9650   5.960  11.331  10.954 -0.1124 -0.2047 -0.0428
  604loPI    C3 9651   6.311  11.144  10.911 -0.1374 -0.2471 -0.0630
  604loPI   PO4 9652   6.037  11.374  10.431  0.0054  0.1844  0.2968
  604loPI   GL1 9653   6.328  11.419  10.079 -0.0834  0.2128 -0.0052
  604loPI   GL2 9654   6.352  11.069  10.178  0.3403  0.1634 -0.0297
  604loPI   C1A 9655   6.445  11.477   9.641  0.2472  0.1754  0.0084
  604loPI   C2A 9656   6.359  11.393   9.237 -0.0969 -0.1613 -0.2992
  604loPI   C3A 9657   6.289  11.396   8.921  0.0733  0.1729 -0.2287
  604loPI   C4A 9658   6.320  11.559   8.539  0.2997 -0.0238 -0.0052
  604loPI   C5A 9659   6.350  11.513   8.023  0.1730  0.1023  0.0803
  604loPI   C6A 9660   6.505  11.798   7.670  0.0996 -0.0307  0.0894
  604loPI   C1B 9661   6.294  10.930   9.784  0.3603  0.3132  0.1083
  604loPI   C2B 9662   6.374  10.934   9.391  0.4912 -0.4217  0.2576
  604loPI   C3B 9663   6.257  10.897   8.951  0.3433  0.0493 -0.2819
  604loPI   C4B 9664   6.339  10.999   8.542  0.0656 -0.2204  0.1661
  605loPI    C1 9665   2.657  13.850  10.927  0.1924  0.2573  0.1882
  605loPI    C2 9666   2.848  13.652  11.217  0.2108  0.2240  0.1535
  605loPI    C3 9667   2.449  13.667  11.216  0.2003 -0.0133  0.0263
  605loPI   PO4 9668   2.738  13.820  10.725  0.0413 -0.0718 -0.4244
  605loPI   GL1 9669   2.775  13.934  10.289 -0.0075 -0.0796  0.3183
  605loPI   GL2 9670   2.731  13.698  10.061  0.0046 -0.0366  0.3824
  605loPI   C1A 9671   2.787  14.217   9.904  0.0860  0.1404 -0.1957
  605loPI   C2A 9672   2.844  14.246   9.501 -0.0582 -0.0577  0.0778
  605loPI   C3A 9673   2.799  14.220   9.094  0.1459 -0.0223 -0.3784
  605loPI   C4A 9674   2.798  14.059   8.593 -0.2897  0.0631 -0.1005
  605loPI   C5A 9675   2.809  13.973   8.135 -0.0954 -0.0723  0.0523
  605loPI   C6A 9676   3.003  14.248   7.863 -0.4061 -0.0972 -0.2009
  605loPI   C1B 9677   2.774  13.783   9.650 -0.1470  0.0144 -0.0800
  605loPI   C2B 9678   2.701  13.674   9.222  0.1849 -0.1916  0.0438
  605loPI   C3B 9679   2.796  13.599   8.841 -0.2407  0.0059  0.1360
  605loPI   C4B 9680   2.737  13.591   8.379  0.0808 -0.0179  0.2539
  606loPI    C1 9681   5.486   1.207  10.429  0.2903  0.0791 -0.2212
  606loPI    C2 9682   5.595   0.843  10.304  0.1469 -0.0508  0.0240
  606loPI    C3 9683   5.383   0.884  10.641  0.1708  0.2618  0.0044
  606loPI   PO4 9684   5.482   1.308  10.144 -0.0626 -0.0485 -0.3399
  606loPI   GL1 9685   5.660   1.083   9.836 -0.2644 -0.0606 -0.2797
  606loPI   GL2 9686   5.870   1.083   9.898 -0.1989  0.1027 -0.3146
  606loPI   C1A 9687   5.591   1.088   9.366 -0.3134  0.1358  0.0853
  606loPI   C2A 9688   5.449   1.302   9.036  0.1397 -0.0258  0.1709
  606loPI   C3A 9689   5.368   1.627   8.674  0.1638 -0.3516  0.1311
  606loPI   C4A 9690   5.558   1.826   8.416 -0.1336 -0.0147 -0.0372
  606loPI   C5A 9691   5.936   1.843   8.164 -0.1152  0.4343 -0.0787
  606loPI   C6A 9692   6.257   2.166   7.965  0.1002 -0.2208 -0.1051
  606loPI   C1B 9693   6.130   1.333   9.537  0.1099 -0.2488 -0.1373
  606loPI   C2B 9694   6.146   1.275   9.127 -0.1044 -0.2697  0.0674
  606loPI   C3B 9695   5.880   1.169   8.760  0.1214 -0.0977  0.3182
  606loPI   C4B 9696   5.656   0.966   8.429 -0.1637 -0.0703  0.1204
  607loPI    C1 9697   7.180  13.240  10.660 -0.0536 -0.0216  0.1197
  607loPI    C2 9698   7.177  13.617  10.794  0.0139  0.0207  0.0037
  607loPI    C3 9699   7.112  13.314  11.048 -0.0948  0.1130  0.0873
  607loPI   PO4 9700   7.114  13.268  10.326 -0.2730  0.2644  0.1819
  607loPI   GL1 9701   7.380  13.301   9.884  0.1351 -0.1505 -0.0707
  607loPI   GL2 9702   7.268  12.972   9.914 -0.2140  0.1167  0.2825
  607loPI   C1A 9703   7.347  13.497   9.596 -0.2703 -0.0034  0.3833
  607loPI   C2A 9704   7.354  13.533   9.198  0.2048  0.0394 -0.0699
  607loPI   C3A 9705   7.233  13.552   8.958  0.0858 -0.0266  0.1545
  607loPI   C4A 9706   7.127  13.576   8.570 -0.1242  0.0047  0.1576
  607loPI   C5A 9707   7.212  13.561   8.203  0.1813 -0.5264  0.1590
  607loPI   C6A 9708   6.973  13.441   7.811 -0.0664 -0.2013 -0.0817
  607loPI   C1B 9709   7.258  13.026   9.466  0.2700  0.0945 -0.1931
  607loPI   C2B 9710   7.326  12.990   9.132 -0.0173 -0.0961  0.3551
  607loPI   C3B 9711   7.284  12.981   8.681 -0.1530 -0.1245  0.1314
  607loPI   C4B 9712   7.200  13.093   8.302 -0.2252  0.0532  0.1012
  608loPI    C1 9713   3.148  14.114  10.621  0.1070  0.1176 -0.2438
  608loPI    C2 9714   3.461  14.139  10.869  0.0704  0.0481 -0.1905
  608loPI    C3 9715   3.233  13.810  10.866 -0.1072  0.1687 -0.1038
  608loPI   PO4 9716   3.192  14.142  10.431  0.0068  0.1152  0.3219
  608loPI   GL1 9717   3.389  14.007  10.107 -0.2164 -0.2366  0.0093
  608loPI   GL2 9718   3.178  13.896   9.940  0.1386 -0.0946 -0.0630
  608loPI   C1A 9719   3.647  13.719   9.834 -0.0556  0.0316 -0.3301
  608loPI   C2A 9720   3.752  13.670   9.438 -0.0208 -0.3343  0.0329
  608loPI   C3A 9721   3.687  13.571   8.975  0.1154  0.3437  0.0912
  608loPI   C4A 9722   3.697  13.567   8.543  0.1094 -0.1258 -0.0902
  608loPI   C5A 9723   3.634  13.488   8.152  0.3208  0.1747  0.0613
  608loPI   C6A 9724   3.575  13.286   7.749  0.2808  0.1764  0.2627
  608loPI   C1B 9725   3.288  13.941   9.464  0.2077 -0.2941  0.0153
  608loPI   C2B 9726   3.230  13.846   8.956 -0.3700 -0.1187 -0.2249
  608loPI   C3B 9727   3.209  13.770   8.579  0.0311 -0.0556  0.0606
  608loPI   C4B 9728   3.312  13.900   8.042 -0.2526  0.1805 -0.1305
  609POPI    C1 9729   8.397   0.233  10.265  0.0312 -0.1769  0.0965
  609POPI    C2 9730   8.332   0.173  10.655  0.0471 -0.2874  0.0824
  609POPI    C3 9731   8.703   0.147  10.507  0.0364 -0.2798  0.0541
  609POPI   PO4 9732   8.229   0.492  10.126 -0.2052 -0.0400 -0.0016
  609POPI   GL1 9733   8.013   0.347   9.756  0.1380 -0.3776 -0.3012
  609POPI   GL2 9734   7.840   0.006   9.539 -0.0627 -0.1721 -0.3503
  609POPI   C1A 9735   8.195   0.276   9.336  0.0857 -0.3180 -0.2069
  609POPI   D2A 9736   8.378   0.629   9.193 -0.0687  0.2050  0.0017
  609POPI   C3A 9737   8.652   0.396   8.914 -0.2068 -0.0831 -0.2601
  609POPI   C4A 9738   8.958   0.337   8.579  0.1980  0.3787  0.0601
  609POPI   C1B 9739   7.927  -0.041   9.028 -0.1731 -0.2680 -0.1364
  609POPI   C2B 9740   7.814  -0.018   8.675 -0.0043 -0.2254 -0.0998
  609POPI   C3B 9741   7.626  -0.041   8.329 -0.4230  0.2169 -0.2937
  609POPI   C4B 9742   7.291  -0.337   8.354  0.0357 -0.1795  0.1900
  610POPI    C1 9743  18.552  15.978  10.689 -0.0526 -0.0435 -0.3013
  610POPI    C2 9744  18.880  15.801  10.543  0.1288  0.0764 -0.0467
  610POPI    C3 9745  18.767  15.733  10.921  0.0199  0.2556 -0.0463
  610POPI   PO4 9746  18.466  16.083  10.422 -0.1700 -0.0955  0.1733
  610POPI   GL1 9747  18.570  15.758  10.110  0.1778 -0.0319  0.0648
  610POPI   GL2 9748  18.738  16.057  10.014  0.0950  0.1498 -0.1350
  610POPI   C1A 9749  18.355  15.676   9.716  0.1705  0.2317  0.2045
  610POPI   D2A 9750  18.116  15.758   9.378 -0.0329 -0.1179 -0.2781
  610POPI   C3A 9751  18.120  15.766   8.917  0.2363 -0.0779  0.0107
  610POPI   C4A 9752  18.159  15.673   8.514  0.1508 -0.2112 -0.2901
  610POPI   C1B 9753  18.728  15.993   9.565  0.1659 -0.0562 -0.1794
  610POPI   C2B 9754  18.672  15.992   9.118 -0.1187  0.2258  0.2113
  610POPI   C3B 9755  18.613  15.905   8.633  0.0041 -0.0109 -0.2537
  610POPI   C4B 9756  18.584  15.786   8.125  0.1639  0.1504  0.3745
  611POPI    C1 9757   5.849  12.096  10.646 -0.1734 -0.0031 -0.1606
  611POPI    C2 9758   6.058  11.854  10.406  0.0807  0.1638 -0.1115
  611POPI    C3 9759   6.129  11.855  10.800  0.0954  0.3314 -0.1141
  611POPI   PO4 9760   5.804  12.276  10.481 -0.2141  0.2013 -0.1135
  611POPI   GL1 9761   5.902  12.221  10.067  0.0039 -0.0540  0.0646
  611POPI   GL2 9762   5.642  11.982   9.909 -0.1689 -0.0753 -0.0522
  611POPI   C1A 9763   5.909  12.345   9.692 -0.1459  0.0083  0.0207
  611POPI   D2A 9764   5.960  12.214   9.284  0.2251  0.2097  0.1191
  611POPI   C3A 9765   5.898  12.387   8.969 -0.1076  0.1601 -0.0120
  611POPI   C4A 9766   5.963  12.313   8.622  0.0983  0.1635  0.0077
  611POPI   C1B 9767   5.349  12.068   9.472 -0.6088  0.1395 -0.2563
  611POPI   C2B 9768   5.509  12.057   9.065 -0.3671 -0.0650  0.2921
  611POPI   C3B 9769   5.485  12.033   8.576 -0.0726 -0.2725  0.2431
  611POPI   C4B 9770   5.859  12.211   8.162  0.1196 -0.3680  0.2006
  612POPI    C1 9771   3.122  17.026  10.343  0.0457  0.0495  0.3139
  612POPI    C2 9772   2.726  17.075  10.324  0.0208 -0.3002 -0.4015
  612POPI    C3 9773   2.970  17.342  10.152  0.1214  0.0367  0.2319
  612POPI   PO4 9774   3.222  16.821  10.326  0.0708  0.3267  0.2939
  612POPI   GL1 9775   3.090  16.713   9.932 -0.1565  0.0852 -0.0768
  612POPI   GL2 9776   2.810  16.881   9.853  0.0979  0.0932 -0.0537
  612POPI   C1A 9777   3.443  16.572   9.555 -0.0349 -0.0729  0.2530
  612POPI   D2A 9778   3.594  16.460   9.078  0.0039 -0.0669 -0.0246
  612POPI   C3A 9779   3.651  16.722   8.681  0.0963 -0.3548 -0.0334
  612POPI   C4A 9780   3.814  16.910   8.263  0.2916 -0.0035  0.1314
  612POPI   C1B 9781   3.056  16.882   9.396  0.0446  0.3155 -0.1044
  612POPI   C2B 9782   3.104  16.787   8.904 -0.1959 -0.1274 -0.0703
  612POPI   C3B 9783   3.267  16.461   8.549  0.0036 -0.1811 -0.2481
  612POPI   C4B 9784   3.185  16.322   8.189 -0.0846 -0.1299 -0.1974
  613POPI    C1 9785   8.969   2.610  10.469  0.0642 -0.1167  0.2177
  613POPI    C2 9786   9.208   2.860  10.670  0.0846 -0.1129  0.1885
  613POPI    C3 9787   9.032   2.556  10.861 -0.1128  0.0514  0.2709
  613POPI   PO4 9788   9.174   2.519  10.291 -0.3208 -0.1472  0.0279
  613POPI   GL1 9789   9.454   2.247   9.994 -0.0366  0.1387 -0.4168
  613POPI   GL2 9790   9.736   2.042   9.826 -0.2447  0.1054 -0.4301
  613POPI   C1A 9791   9.255   2.570   9.658  0.1925 -0.0959  0.4715
  613POPI   D2A 9792   9.219   2.637   9.283 -0.2444 -0.1069 -0.3027
  613POPI   C3A 9793   9.271   2.782   8.857  0.0284 -0.3996  0.0859
  613POPI   C4A 9794   9.416   2.788   8.414 -0.1577 -0.2112 -0.1575
  613POPI   C1B 9795   9.743   1.920   9.440  0.4126  0.4120  0.0813
  613POPI   C2B 9796   9.719   1.957   8.950  0.1720 -0.0237  0.1491
  613POPI   C3B 9797   9.817   1.963   8.486  0.1111 -0.1423  0.1492
  613POPI   C4B 9798   9.812   2.102   8.109 -0.1821  0.4307 -0.2762
  614POPI    C1 9799  16.355  17.140  10.047  0.2233 -0.2618 -0.0209
  614POPI    C2 9800  16.742  17.162   9.948  0.1905  0.0105 -0.0939
  614POPI    C3 9801  16.615  17.316  10.295  0.1528 -0.1093 -0.0542
  614POPI   PO4 9802  16.134  17.175   9.828  0.0356  0.1588  0.0534
  614POPI   GL1 9803  16.045  17.178   9.373  0.1765  0.2340 -0.0751
  614POPI   GL2 9804  16.380  17.163   9.283 -0.0760  0.0072 -0.1111
  614POPI   C1A 9805  16.035  17.168   8.953  0.1010  0.0225  0.0901
  614POPI   D2A 9806  15.912  17.018   8.595  0.1138  0.3447  0.2402
  614POPI   C3A 9807  15.728  17.213   8.339  0.0804  0.4329 -0.1941
  614POPI   C4A 9808  15.605  17.430   7.968  0.1953  0.1990 -0.1387
  614POPI   C1B 9809  16.487  17.334   8.838  0.5206 -0.5213 -0.3059
  614POPI   C2B 9810  16.228  17.411   8.470  0.1023  0.0143 -0.0888
  614POPI   C3B 9811  16.333  17.608   8.111 -0.3193 -0.0419 -0.2371
  614POPI   C4B 9812  16.427  17.854   7.744  0.3836 -0.0610 -0.2648
  615POPI    C1 9813   9.865  16.586  10.241  0.0735  0.1522  0.1482
  615POPI    C2 9814  10.235  16.499  10.116  0.0231 -0.0515  0.1372
  615POPI    C3 9815  10.178  16.782  10.394  0.1690  0.1243 -0.0099
  615POPI   PO4 9816   9.713  16.550   9.979 -0.0604  0.0933 -0.1438
  615POPI   GL1 9817   9.701  16.257   9.575  0.1246 -0.4183  0.0914
  615POPI   GL2 9818   9.578  15.885   9.612  0.3683  0.1648  0.3247
  615POPI   C1A 9819   9.935  16.391   9.123  0.0865 -0.2951 -0.4249
  615POPI   D2A 9820   9.809  16.328   8.751  0.1706 -0.2431  0.0276
  615POPI   C3A 9821   9.791  16.494   8.393  0.0178 -0.0838  0.0710
  615POPI   C4A 9822   9.753  16.652   7.991  0.2612 -0.3713 -0.1974
  615POPI   C1B 9823   9.536  16.071   9.158 -0.4755  0.0340 -0.0427
  615POPI   C2B 9824   9.497  15.971   8.798  0.3481  0.2653 -0.3195
  615POPI   C3B 9825   9.533  16.062   8.365  0.0669 -0.0335 -0.1969
  615POPI   C4B 9826   9.485  16.260   7.882 -0.0303 -0.2392 -0.3173
  616POPI    C1 9827   1.768   4.460  10.641  0.0074  0.0918  0.2189
  616POPI    C2 9828   1.963   4.610  10.957 -0.0136 -0.1255  0.3375
  616POPI    C3 9829   1.742   4.279  10.997  0.1701 -0.2882  0.0428
  616POPI   PO4 9830   1.664   4.703  10.516 -0.1801  0.1125  0.1330
  616POPI   GL1 9831   1.565   4.683  10.105 -0.1661  0.1718 -0.2416
  616POPI   GL2 9832   1.688   4.335  10.095  0.2835 -0.0803  0.3187
  616POPI   C1A 9833   1.505   4.895   9.815  0.0034 -0.0807  0.1214
  616POPI   D2A 9834   1.142   5.065   9.688  0.3489  0.0854  0.1778
  616POPI   C3A 9835   1.231   5.172   9.282 -0.1994 -0.2245  0.1981
  616POPI   C4A 9836   1.139   5.083   8.847  0.2908  0.0389  0.0830
  616POPI   C1B 9837   1.918   4.609   9.787 -0.0750  0.2431  0.0197
  616POPI   C2B 9838   1.838   4.812   9.388 -0.0050  0.1336 -0.0447
  616POPI   C3B 9839   1.525   4.770   8.975 -0.1752  0.4795  0.0433
  616POPI   C4B 9840   1.497   4.847   8.561  0.0857 -0.0625  0.1518
  617POPI    C1 9841  17.712   0.224  10.271  0.0398 -0.1090 -0.0960
  617POPI    C2 9842  17.806  -0.156  10.354  0.0365 -0.0765  0.0609
  617POPI    C3 9843  17.662   0.081  10.642  0.0433  0.0455 -0.0354
  617POPI   PO4 9844  17.611   0.283  10.024 -0.2705  0.2049 -0.0984
  617POPI   GL1 9845  17.406   0.394   9.622  0.1038  0.1249 -0.0444
  617POPI   GL2 9846  17.753   0.334   9.559 -0.0936  0.2759  0.2500
  617POPI   C1A 9847  17.191   0.497   9.186 -0.4140  0.5937  0.3790
  617POPI   D2A 9848  17.131   0.434   8.629 -0.1312  0.1513  0.1706
  617POPI   C3A 9849  17.222   0.404   8.174 -0.1785 -0.0593  0.1527
  617POPI   C4A 9850  17.310   0.669   7.904 -0.1010 -0.1429 -0.1769
  617POPI   C1B 9851  17.931   0.456   9.200 -0.0829 -0.0622 -0.0264
  617POPI   C2B 9852  18.093   0.426   8.794 -0.0863 -0.2257  0.2647
  617POPI   C3B 9853  18.267   0.658   8.378  0.1359  0.2394  0.3109
  617POPI   C4B 9854  17.988   0.991   8.176  0.1801  0.0757  0.0450
  618POPI    C1 9855   4.161   8.314  11.000 -0.2194  0.0169  0.0352
  618POPI    C2 9856   4.013   8.679  10.930 -0.0537  0.0915  0.0693
  618POPI    C3 9857   4.081   8.560  11.306 -0.0929  0.0309  0.0573
  618POPI   PO4 9858   4.189   8.262  10.711  0.3256 -0.0108  0.0889
  618POPI   GL1 9859   4.233   8.077  10.342 -0.2596  0.4062 -0.2247
  618POPI   GL2 9860   4.484   7.884  10.127  0.2222 -0.2698 -0.0945
  618POPI   C1A 9861   4.033   8.030  10.075 -0.4163  0.1942  0.0873
  618POPI   D2A 9862   3.848   8.137   9.696  0.1068 -0.1250  0.0383
  618POPI   C3A 9863   3.945   8.098   9.228  0.2067 -0.1902  0.3130
  618POPI   C4A 9864   4.014   8.058   8.831  0.0138  0.1805 -0.2186
  618POPI   C1B 9865   4.421   7.770   9.713  0.0350  0.1981 -0.0256
  618POPI   C2B 9866   4.339   7.820   9.318 -0.1100 -0.3823 -0.0879
  618POPI   C3B 9867   4.467   7.790   8.997 -0.1608 -0.2269 -0.1488
  618POPI   C4B 9868   4.480   7.771   8.514  0.2506 -0.2449  0.2137
  619POPI    C1 9869  12.077   4.437  10.293 -0.1529  0.0885  0.1941
  619POPI    C2 9870  11.988   4.312  10.662  0.1864 -0.1032  0.2148
  619POPI    C3 9871  12.216   4.636  10.611 -0.0321  0.0454  0.1688
  619POPI   PO4 9872  12.187   4.321  10.143  0.0233  0.0585  0.0224
  619POPI   GL1 9873  12.133   4.119   9.744 -0.1016  0.0120  0.3138
  619POPI   GL2 9874  11.934   3.867   9.654 -0.2436  0.0684  0.0402
  619POPI   C1A 9875  12.443   4.067   9.358 -0.2205  0.0951 -0.0881
  619POPI   D2A 9876  12.429   4.019   8.929  0.0915 -0.1478  0.1534
  619POPI   C3A 9877  12.444   4.161   8.530  0.1660 -0.0011 -0.2527
  619POPI   C4A 9878  12.480   4.169   8.032 -0.1075 -0.1889 -0.0840
  619POPI   C1B 9879  12.008   3.805   9.147 -0.1302  0.1201  0.5157
  619POPI   C2B 9880  11.958   3.866   8.664  0.0363  0.2155  0.0447
  619POPI   C3B 9881  12.097   3.876   8.295 -0.0017 -0.0250 -0.1900
  619POPI   C4B 9882  12.131   3.804   7.911  0.2518  0.1132  0.1276
  620POPI    C1 9883  11.809  12.685  10.406  0.0388 -0.0762 -0.1053
  620POPI    C2 9884  12.203  12.749  10.377  0.0652 -0.1271  0.1209
  620POPI    C3 9885  12.020  12.785  10.731 -0.1889  0.1949 -0.0373
  620POPI   PO4 9886  11.694  12.727  10.309 -0.0449  0.1255  0.0828
  620POPI   GL1 9887  11.676  12.849   9.945 -0.2754 -0.3647  0.0085
  620POPI   GL2 9888  11.927  12.610   9.749 -0.1012  0.3270  0.1027
  620POPI   C1A 9889  11.472  13.038   9.535  0.5345  0.2067 -0.2115
  620POPI   D2A 9890  11.289  13.314   9.245 -0.0950  0.0239 -0.0720
  620POPI   C3A 9891  11.435  13.197   8.823  0.0674  0.0915  0.0784
  620POPI   C4A 9892  11.463  13.336   8.417  0.0315 -0.1545 -0.0232
  620POPI   C1B 9893  11.825  12.601   9.345 -0.0406  0.2023 -0.0904
  620POPI   C2B 9894  11.716  12.113   9.202 -0.1496 -0.0173  0.2494
  620POPI   C3B 9895  11.422  11.946   9.171  0.0779 -0.3318  0.0865
  620POPI   C4B 9896  11.419  11.772   8.833  0.0001 -0.3715  0.1676
  621POPI    C1 9897  17.437   1.162  10.286 -0.0965  0.3458  0.1833
  621POPI    C2 9898  17.420   0.799  10.453  0.1216  0.1506 -0.2048
  621POPI    C3 9899  17.294   1.119  10.657 -0.2926 -0.1687  0.0569
  621POPI   PO4 9900  17.322   1.123  10.028 -0.0868  0.2883 -0.0306
  621POPI   GL1 9901  17.373   0.929   9.567 -0.2271  0.0148 -0.3610
  621POPI   GL2 9902  17.697   0.854   9.458  0.0846  0.1737  0.1142
  621POPI   C1A 9903  17.226   1.176   9.305 -0.0210 -0.2680 -0.1285
  621POPI   D2A 9904  17.111   1.524   8.988  0.2018  0.1832 -0.2480
  621POPI   C3A 9905  16.930   1.273   8.693  0.0183  0.1089 -0.2002
  621POPI   C4A 9906  16.934   1.301   8.251 -0.2136  0.0476 -0.1153
  621POPI   C1B 9907  17.572   0.854   9.123 -0.0376 -0.1964  0.2073
  621POPI   C2B 9908  17.299   0.886   8.790 -0.0374 -0.0041 -0.0513
  621POPI   C3B 9909  17.276   0.933   8.356  0.3910 -0.0355  0.2398
  621POPI   C4B 9910  17.350   1.223   8.026 -0.0295 -0.0907  0.2550
  622POPI    C1 9911  13.597  10.963  10.170  0.0638 -0.1742  0.0711
  622POPI    C2 9912  13.748  11.316  10.283  0.2018 -0.2413  0.0986
  622POPI    C3 9913  13.472  11.134  10.509  0.1568 -0.1685  0.1027
  622POPI   PO4 9914  13.549  11.017   9.896 -0.0232  0.1202  0.0958
  622POPI   GL1 9915  13.304  11.162   9.524 -0.1771 -0.0313  0.0151
  622POPI   GL2 9916  12.967  11.132   9.421 -0.2206 -0.3894  0.1460
  622POPI   C1A 9917  13.621  11.434   9.256  0.3532  0.3528 -0.0109
  622POPI   D2A 9918  13.925  11.709   8.970 -0.2071  0.0047 -0.3215
  622POPI   C3A 9919  14.211  11.929   9.037  0.2546 -0.1618  0.0654
  622POPI   C4A 9920  14.371  12.058   8.784  0.0421 -0.0947  0.1276
  622POPI   C1B 9921  12.752  10.719   9.276 -0.1619  0.0964 -0.0502
  622POPI   C2B 9922  12.461  10.861   8.904 -0.3110 -0.3758  0.0295
  622POPI   C3B 9923  12.514  10.939   8.442 -0.0947  0.0881 -0.0682
  622POPI   C4B 9924  12.353  10.853   8.167  0.2556  0.1317 -0.1850
  623POPI    C1 9925   8.373   3.340  10.525 -0.1018 -0.1837 -0.2334
  623POPI    C2 9926   8.146   3.550  10.272  0.1286  0.3085 -0.0435
  623POPI    C3 9927   7.994   3.426  10.620 -0.0167  0.1286 -0.1686
  623POPI   PO4 9928   8.462   3.148  10.369  0.0407 -0.1365  0.4262
  623POPI   GL1 9929   8.470   3.101  10.034  0.2437  0.1988  0.2658
  623POPI   GL2 9930   8.802   2.822   9.967 -0.0382 -0.1527  0.2530
  623POPI   C1A 9931   8.308   3.209   9.655  0.0484  0.2746  0.1052
  623POPI   D2A 9932   8.230   3.197   9.165 -0.3312 -0.1660 -0.2685
  623POPI   C3A 9933   8.409   3.298   8.814 -0.1548 -0.0198 -0.0452
  623POPI   C4A 9934   8.336   3.222   8.344 -0.0377  0.0545 -0.3611
  623POPI   C1B 9935   8.821   2.912   9.552  0.0318  0.0795 -0.2758
  623POPI   C2B 9936   8.740   3.001   9.148  0.1014 -0.4057  0.1413
  623POPI   C3B 9937   8.800   2.998   8.722 -0.4527  0.0046  0.1211
  623POPI   C4B 9938   8.862   3.072   8.308  0.0243  0.1469  0.3607
  624POPI    C1 9939   1.375   5.636  10.719  0.0456  0.0593 -0.1566
  624POPI    C2 9940   1.117   5.698  10.419 -0.0295  0.0364 -0.0972
  624POPI    C3 9941   1.085   5.370  10.647 -0.0904  0.1473  0.0553
  624POPI   PO4 9942   1.624   5.698  10.588  0.0511 -0.1261 -0.0482
  624POPI   GL1 9943   1.746   6.026  10.270 -0.1332  0.2312 -0.1085
  624POPI   GL2 9944   1.600   6.243  10.188 -0.0623  0.2535  0.0238
  624POPI   C1A 9945   1.626   5.886   9.869 -0.1270  0.0035  0.1767
  624POPI   D2A 9946   1.590   5.801   9.452  0.1463  0.0494  0.1118
  624POPI   C3A 9947   1.570   5.941   8.997  0.1661 -0.0970  0.1252
  624POPI   C4A 9948   1.723   6.312   8.821  0.2013  0.1395  0.1237
  624POPI   C1B 9949   1.604   6.333   9.707  0.3150  0.2023  0.0026
  624POPI   C2B 9950   1.710   6.403   9.297 -0.2124 -0.2393  0.0503
  624POPI   C3B 9951   2.093   6.586   9.105 -0.2778 -0.2728  0.0674
  624POPI   C4B 9952   2.151   6.724   8.681  0.2417 -0.4042  0.0056
  625DPPI    C1 9953  11.043   6.755  10.565  0.2640 -0.3155  0.0162
  625DPPI    C2 9954  11.139   6.715  10.951  0.0873  0.0376  0.1011
  625DPPI    C3 9955  10.815   6.531  10.805  0.0557  0.0447  0.1619
  625DPPI   PO4 9956  11.103   7.027  10.488  0.1962 -0.1974  0.1911
  625DPPI   GL1 9957  11.169   7.170  10.030 -0.1277  0.0261 -0.0400
  625DPPI   GL2 9958  11.065   7.424   9.864 -0.3769 -0.1788  0.1062
  625DPPI   C1A 9959  11.241   6.857   9.667  0.0288  0.2404  0.1351
  625DPPI   C2A 9960  11.193   6.926   9.200 -0.1367 -0.1339  0.0850
  625DPPI   C3A 9961  11.082   6.831   8.836  0.3308 -0.2054  0.0823
  625DPPI   C4A 9962  11.019   6.903   8.335 -0.1329  0.4378 -0.2488
  625DPPI   C1B 9963  11.104   7.396   9.534 -0.1053 -0.2548 -0.0230
  625DPPI   C2B 9964  11.160   7.473   9.090  0.0947 -0.0586  0.0145
  625DPPI   C3B 9965  11.150   7.294   8.657 -0.0699  0.3380 -0.1616
  625DPPI   C4B 9966  11.180   7.386   8.293  0.4085 -0.1074  0.3009
  626DPPI    C1 9967   4.934  16.153  10.205  0.2468 -0.0252 -0.3015
  626DPPI    C2 9968   4.765  16.494  10.079 -0.0648 -0.0563  0.0154
  626DPPI    C3 9969   4.925  16.473  10.445  0.2622 -0.1534 -0.1289
  626DPPI   PO4 9970   5.124  16.154  10.127  0.1205  0.0214  0.0157
  626DPPI   GL1 9971   5.392  16.040   9.716 -0.3337 -0.0141  0.0584
  626DPPI   GL2 9972   5.597  15.964   9.910  0.0254  0.0102 -0.0312
  626DPPI   C1A 9973   5.496  16.167   9.355 -0.0628  0.0758 -0.0431
  626DPPI   C2A 9974   5.479  16.175   8.925 -0.0750  0.0217 -0.0284
  626DPPI   C3A 9975   5.362  16.363   8.644 -0.1430  0.2296  0.0854
  626DPPI   C4A 9976   5.303  16.160   8.218  0.2218  0.0835 -0.1851
  626DPPI   C1B 9977   5.653  15.672   9.593 -0.1856 -0.0491 -0.0760
  626DPPI   C2B 9978   5.437  15.655   9.191 -0.2552  0.2549  0.1247
  626DPPI   C3B 9979   5.458  15.650   8.770  0.0044 -0.0218 -0.0165
  626DPPI   C4B 9980   5.322  15.734   8.353  0.1291  0.2530  0.3123
  627DPPI    C1 9981   9.719  14.824  10.486  0.0258  0.1868  0.2259
  627DPPI    C2 9982   9.380  14.625  10.410  0.2021 -0.1541  0.3107
  627DPPI    C3 9983   9.366  14.995  10.562 -0.1344  0.0082 -0.0972
  627DPPI   PO4 9984   9.841  14.790  10.332 -0.1178 -0.0081 -0.2714
  627DPPI   GL1 9985   9.753  14.788   9.873 -0.2983 -0.0633 -0.2260
  627DPPI   GL2 9986   9.538  14.940   9.699  0.0776  0.0324  0.3091
  627DPPI   C1A 9987   9.859  14.647   9.426  0.1385  0.0674  0.4697
  627DPPI   C2A 9988   9.944  14.681   8.970  0.2326  0.0227 -0.0511
  627DPPI   C3A 9989   9.972  14.642   8.501  0.2378  0.0072 -0.0218
  627DPPI   C4A 9990  10.127  14.909   8.200 -0.0038  0.0190  0.1734
  627DPPI   C1B 9991   9.495  15.010   9.206 -0.0461 -0.0676 -0.1564
  627DPPI   C2B 9992   9.546  15.005   8.878  0.1034  0.4261  0.0152
  627DPPI   C3B 9993   9.672  15.049   8.523  0.0741  0.0555  0.1233
  627DPPI   C4B 9994   9.696  15.140   8.039  0.4049 -0.0239 -0.3558
  628DPPI    C1 9995  18.537   6.289  10.751 -0.0232  0.0588 -0.0630
  628DPPI    C2 9996  18.396   6.620  10.925 -0.0030  0.0517 -0.0330
  628DPPI    C3 9997  18.422   6.281  11.134  0.2537  0.1037  0.0233
  628DPPI   PO4 9998  18.537   6.312  10.406 -0.1704  0.1142  0.1373
  628DPPI   GL1 9999  18.540   6.223  10.012 -0.1957  0.1412  0.1943
  628DPPI   GL210000  18.868   6.066   9.895 -0.1651  0.2036  0.1328
  628DPPI   C1A10001  18.383   6.393   9.580 -0.0210 -0.3525  0.1228
  628DPPI   C2A10002  18.384   6.339   9.187 -0.0043  0.0703  0.0672
  628DPPI   C3A10003  18.345   6.477   8.744  0.0478 -0.1626  0.1178
  628DPPI   C4A10004  18.400   6.415   8.290 -0.0139 -0.1600  0.0466
  628DPPI   C1B10005  18.837   6.126   9.582  0.1115 -0.2325 -0.3263
  628DPPI   C2B10006  18.863   6.117   9.148  0.3641  0.1109 -0.2583
  628DPPI   C3B10007  18.799   6.127   8.630  0.5114 -0.1299  0.0342
  628DPPI   C4B10008  18.864   6.203   8.185  0.2023 -0.1846 -0.1300
  629DPPI    C110009   5.526   7.674  10.872  0.2650  0.1166  0.0054
  629DPPI    C210010   5.534   8.010  11.088  0.1371  0.1341 -0.0163
  629DPPI    C310011   5.675   7.670  11.243 -0.2794  0.0680  0.2332
  629DPPI   PO410012   5.529   7.807  10.569  0.0641  0.1548 -0.0093
  629DPPI   GL110013   5.392   7.663  10.191 -0.2558 -0.1999 -0.0964
  629DPPI   GL210014   5.302   7.400  10.244  0.1646  0.0448  0.1256
  629DPPI   C1A10015   5.413   7.794   9.749 -0.2248 -0.2154  0.3410
  629DPPI   C2A10016   5.359   7.819   9.341 -0.1087 -0.0800  0.2360
  629DPPI   C3A10017   5.287   7.847   8.942  0.0787  0.1516 -0.2270
  629DPPI   C4A10018   5.387   7.759   8.454  0.0265  0.4721  0.2387
  629DPPI   C1B10019   5.315   7.250   9.803  0.0251 -0.0300 -0.0333
  629DPPI   C2B10020   5.296   7.354   9.428  0.2424 -0.0930  0.3052
  629DPPI   C3B10021   5.289   7.290   8.954  0.0529  0.5033 -0.0302
  629DPPI   C4B10022   5.361   7.216   8.531 -0.1308  0.2613 -0.3512
  630DPPI    C110023  13.400  15.502   9.926  0.3313 -0.4061  0.0661
  630DPPI    C210024  13.125  15.456  10.212 -0.0165 -0.0467 -0.2002
  630DPPI    C310025  13.424  15.717  10.262 -0.0304 -0.0436 -0.1317
  630DPPI   PO410026  13.449  15.291   9.837 -0.3094  0.0489 -0.3482
  630DPPI   GL110027  13.472  15.072   9.449 -0.0923  0.1254 -0.0160
  630DPPI   GL210028  13.175  14.963   9.548  0.0231 -0.0962  0.2237
  630DPPI   C1A10029  13.671  14.987   8.975 -0.0432  0.1576  0.1021
  630DPPI   C2A10030  13.918  15.072   8.646  0.2166  0.1581 -0.1194
  630DPPI   C3A10031  13.765  15.232   8.281  0.3026  0.0113  0.1635
  630DPPI   C4A10032  13.289  15.269   8.057 -0.4900 -0.1509 -0.2348
  630DPPI   C1B10033  13.175  15.027   9.031  0.3569 -0.3643  0.0608
  630DPPI   C2B10034  13.288  15.106   8.608 -0.2250 -0.1489 -0.0847
  630DPPI   C3B10035  13.628  14.760   8.284  0.1670 -0.0625  0.1275
  630DPPI   C4B10036  13.750  14.571   7.956 -0.2087 -0.3216 -0.3002
  631DPPI    C110037   3.964   5.476  10.734 -0.0869  0.0052 -0.2341
  631DPPI    C210038   4.307   5.271  10.709 -0.1530 -0.1136 -0.1749
  631DPPI    C310039   4.068   5.224  11.027 -0.1882  0.0254 -0.1801
  631DPPI   PO410040   3.884   5.498  10.499  0.0634  0.0938  0.1275
  631DPPI   GL110041   3.865   5.573   9.998  0.0364  0.0027  0.2655
  631DPPI   GL210042   3.790   5.230  10.108  0.2699  0.1644  0.1976
  631DPPI   C1A10043   3.818   5.595   9.594 -0.2680 -0.3340 -0.2063
  631DPPI   C2A10044   3.854   5.618   9.165  0.2271 -0.1757 -0.1391
  631DPPI   C3A10045   3.823   5.479   8.777  0.0660 -0.2059  0.0798
  631DPPI   C4A10046   3.879   5.089   8.634 -0.0681  0.0181 -0.4290
  631DPPI   C1B10047   3.780   5.064   9.681  0.1154 -0.0500  0.1542
  631DPPI   C2B10048   3.812   4.994   9.186  0.1519 -0.1820  0.3495
  631DPPI   C3B10049   3.821   4.657   8.926  0.0406  0.0455  0.1296
  631DPPI   C4B10050   3.839   4.445   8.662 -0.1042  0.2692 -0.1481
  632DPPI    C110051   1.027  16.521  10.298  0.3739 -0.0722 -0.0197
  632DPPI    C210052   1.161  16.763  10.586 -0.3613  0.0485  0.2424
  632DPPI    C310053   1.177  16.367  10.635 -0.3367  0.0661  0.3814
  632DPPI   PO410054   0.810  16.706  10.205 -0.1914  0.0265  0.1318
  632DPPI   GL110055   0.766  16.856   9.834  0.1962 -0.2102 -0.1149
  632DPPI   GL210056   0.460  17.112   9.761 -0.0644 -0.0464 -0.1065
  632DPPI   C1A10057   1.005  16.836   9.505  0.4394  0.1208 -0.1502
  632DPPI   C2A10058   0.949  17.063   9.234  0.1616 -0.3967 -0.0386
  632DPPI   C3A10059   1.017  16.969   8.781 -0.1884 -0.4377 -0.1085
  632DPPI   C4A10060   1.247  16.743   8.476  0.0143 -0.0717 -0.2551
  632DPPI   C1B10061   0.479  17.225   9.396 -0.4367  0.3221 -0.5173
  632DPPI   C2B10062   0.611  17.357   8.961 -0.2636  0.1525 -0.2636
  632DPPI   C3B10063   0.642  17.214   8.627  0.4188  0.2496  0.3000
  632DPPI   C4B10064   0.691  16.818   8.489 -0.0488 -0.0299  0.1915
  633DPPI    C110065  12.794  10.014  10.029  0.0322  0.1467  0.0463
  633DPPI    C210066  12.538   9.790  10.239 -0.1829  0.1580 -0.1986
  633DPPI    C310067  12.724  10.099  10.413 -0.3980  0.1998 -0.0389
  633DPPI   PO410068  12.682   9.867   9.763 -0.0499 -0.1960 -0.1201
  633DPPI   GL110069  12.863   9.707   9.410 -0.0969  0.0658  0.1299
  633DPPI   GL210070  12.538   9.819   9.287  0.1798 -0.0314  0.2886
  633DPPI   C1A10071  13.031   9.692   8.940 -0.0292 -0.0330 -0.1040
  633DPPI   C2A10072  13.006   9.634   8.493  0.0210  0.0998 -0.1992
  633DPPI   C3A10073  12.760   9.627   8.117 -0.0908  0.0063 -0.1994
  633DPPI   C4A10074  12.615   9.466   7.747  0.1955  0.0454  0.1363
  633DPPI   C1B10075  12.513   9.833   8.860  0.1000 -0.5164  0.0390
  633DPPI   C2B10076  12.502   9.607   8.617  0.1707 -0.0775  0.0727
  633DPPI   C3B10077  12.276   9.622   8.151 -0.0994  0.1107 -0.4219
  633DPPI   C4B10078  12.049   9.392   7.801  0.1381  0.0258  0.1756
  634DPPI    C110079   7.933   7.608  10.484  0.0976  0.0180 -0.0311
  634DPPI    C210080   8.223   7.441  10.704  0.0204  0.0431  0.0909
  634DPPI    C310081   8.084   7.804  10.799 -0.1536 -0.0309  0.1226
  634DPPI   PO410082   7.930   7.597  10.222 -0.0198  0.1636 -0.2861
  634DPPI   GL110083   8.057   7.883   9.937 -0.0251 -0.0551  0.2649
  634DPPI   GL210084   8.175   8.176   9.806 -0.0597  0.0634 -0.1290
  634DPPI   C1A10085   8.011   7.750   9.584  0.2888 -0.0511 -0.1168
  634DPPI   C2A10086   7.919   7.729   9.185  0.1371 -0.4408  0.0637
  634DPPI   C3A10087   7.935   7.763   8.766 -0.1062 -0.1570  0.0320
  634DPPI   C4A10088   7.978   7.780   8.273 -0.2289 -0.2847  0.0146
  634DPPI   C1B10089   7.995   8.289   9.508 -0.2511  0.1281  0.3006
  634DPPI   C2B10090   7.907   8.436   9.098 -0.1565  0.2891 -0.1922
  634DPPI   C3B10091   7.989   8.346   8.669  0.4394 -0.1007 -0.0228
  634DPPI   C4B10092   8.032   8.238   8.297  0.0155  0.1727 -0.0636
  635PYPI    C110093  13.626  10.082  10.439 -0.1739 -0.0231 -0.0268
  635PYPI    C210094  13.652   9.728  10.623 -0.0130 -0.0868 -0.1703
  635PYPI    C310095  13.781  10.058  10.807 -0.0534 -0.1194 -0.0832
  635PYPI   PO410096  13.673  10.029  10.245  0.4307 -0.1595 -0.0311
  635PYPI   GL110097  13.666   9.847   9.806  0.1563  0.0874  0.1466
  635PYPI   GL210098  13.897  10.074   9.720 -0.0701 -0.2375 -0.0089
  635PYPI   C1A10099  13.731   9.719   9.401  0.0691 -0.0259 -0.1258
  635PYPI   C2A10100  13.886   9.664   9.061 -0.3500  0.3414 -0.0304
  635PYPI   D3A10101  14.035   9.704   8.567 -0.2645  0.0878 -0.1465
  635PYPI   C4A10102  13.990   9.773   8.109  0.0154 -0.0280 -0.0508
  635PYPI   C1B10103  14.133  10.012   9.331 -0.2511  0.2247 -0.4392
  635PYPI   C2B10104  14.359   9.992   8.994  0.0156  0.1545  0.2086
  635PYPI   C3B10105  14.387  10.033   8.567 -0.1660  0.1913 -0.0682
  635PYPI   C4B10106  14.397  10.083   8.198  0.3564  0.1300 -0.3300
  636PYPI    C110107  11.189  12.209  10.684 -0.0106 -0.1172  0.0895
  636PYPI    C210108  11.476  12.477  10.763 -0.0187 -0.1065  0.0824
  636PYPI    C310109  11.105  12.533  10.904 -0.0454 -0.0622 -0.0045
  636PYPI   PO410110  11.195  12.142  10.436 -0.0588  0.3346  0.5027
  636PYPI   GL110111  11.022  12.287  10.094  0.1658 -0.0141 -0.3052
  636PYPI   GL210112  10.910  12.122   9.826 -0.2400  0.3729  0.2905
  636PYPI   C1A10113  11.277  12.551   9.833  0.1537 -0.0310  0.3459
  636PYPI   C2A10114  11.371  12.425   9.388 -0.0377  0.0356  0.0808
  636PYPI   D3A10115  11.437  12.716   9.060 -0.0864 -0.1419  0.2624
  636PYPI   C4A10116  11.426  12.746   8.596  0.0297  0.0191 -0.2487
  636PYPI   C1B10117  10.895  12.192   9.463  0.0616 -0.0532 -0.1489
  636PYPI   C2B10118  10.980  12.009   9.006  0.0513 -0.0032 -0.1510
  636PYPI   C3B10119  10.974  12.008   8.616 -0.1261  0.0795  0.1045
  636PYPI   C4B10120  10.828  12.167   8.198 -0.2220  0.0357 -0.0125
  637PYPI    C110121  16.782   2.160   9.993 -0.1691 -0.0450  0.1766
  637PYPI    C210122  16.800   1.885  10.283 -0.1865 -0.0790  0.1455
  637PYPI    C310123  16.708   2.264  10.372  0.0509 -0.0368  0.2187
  637PYPI   PO410124  16.627   2.041   9.783 -0.1108  0.2509  0.1664
  637PYPI   GL110125  16.483   1.943   9.471  0.1136 -0.0265 -0.2372
  637PYPI   GL210126  16.306   2.199   9.360  0.1143  0.2602 -0.1538
  637PYPI   C1A10127  16.687   2.077   9.046 -0.0090  0.0474 -0.2448
  637PYPI   C2A10128  16.872   2.225   8.748 -0.3805 -0.3342 -0.4140
  637PYPI   D3A10129  17.101   2.240   8.278  0.1600  0.0946  0.2092
  637PYPI   C4A10130  17.081   2.236   7.800  0.2188  0.2633  0.0408
  637PYPI   C1B10131  16.227   2.203   8.965  0.5107 -0.2775  0.1763
  637PYPI   C2B10132  16.385   2.057   8.643  0.4734  0.1029  0.0807
  637PYPI   C3B10133  16.713   1.855   8.324 -0.0095  0.1230  0.0309
  637PYPI   C4B10134  16.786   1.855   7.909  0.0873  0.0090 -0.2803
  638PYPI    C110135  16.101  11.387  10.628  0.1118  0.0770  0.0467
  638PYPI    C210136  16.220  11.041  10.790  0.0979  0.0315 -0.0400
  638PYPI    C310137  15.954  11.270  10.982  0.3336  0.1406  0.1619
  638PYPI   PO410138  16.069  11.355  10.399  0.1072 -0.0839 -0.2349
  638PYPI   GL110139  15.955  11.545  10.033  0.1123  0.2101 -0.2293
  638PYPI   GL210140  16.250  11.593   9.989 -0.4153  0.1952  0.5111
  638PYPI   C1A10141  15.706  11.561   9.595 -0.2864  0.2435 -0.0672
  638PYPI   C2A10142  15.750  11.404   9.255 -0.2380  0.1575  0.2920
  638PYPI   D3A10143  15.709  11.456   8.799 -0.5268  0.1065  0.1558
  638PYPI   C4A10144  16.033  11.219   8.645  0.1847 -0.0334  0.3356
  638PYPI   C1B10145  16.213  11.497   9.567 -0.0451  0.1873  0.1875
  638PYPI   C2B10146  16.218  11.511   9.116  0.1484 -0.2288  0.2581
  638PYPI   C3B10147  16.159  11.711   8.721  0.0192  0.0075 -0.1302
  638PYPI   C4B10148  16.239  11.997   8.353  0.2846 -0.0060  0.0402
  639PYPI    C110149   9.414  10.068  10.846 -0.1116  0.0885  0.0423
  639PYPI    C210150   9.682   9.851  11.050  0.0956  0.1092 -0.2025
  639PYPI    C310151   9.387  10.039  11.244  0.1441 -0.0713  0.0506
  639PYPI   PO410152   9.400   9.919  10.568 -0.0763  0.0664  0.1361
  639PYPI   GL110153   9.394  10.018  10.125  0.0788 -0.1071  0.0134
  639PYPI   GL210154   9.125   9.841   9.923  0.0231  0.0219 -0.2150
  639PYPI   C1A10155   9.507  10.128   9.617  0.2090 -0.0199 -0.2238
  639PYPI   C2A10156   9.547   9.890   9.277  0.0786 -0.2388 -0.0219
  639PYPI   D3A10157   9.517   9.516   9.046 -0.0421  0.1853  0.0501
  639PYPI   C4A10158   9.391   9.480   8.604 -0.2770  0.0102  0.2034
  639PYPI   C1B10159   9.045   9.965   9.512 -0.3597  0.3111 -0.1244
  639PYPI   C2B10160   9.081   9.927   9.041 -0.0432  0.1692 -0.1157
  639PYPI   C3B10161   8.988   9.731   8.587 -0.2582 -0.2120 -0.0726
  639PYPI   C4B10162   9.005   9.480   8.249  0.0566  0.1982 -0.3807
  640PYPI    C110163   9.580   7.582  10.812 -0.0103 -0.1595 -0.0783
  640PYPI    C210164   9.774   7.249  10.921  0.1812 -0.0287 -0.0148
  640PYPI    C310165   9.967   7.538  10.723 -0.0063  0.0087 -0.1466
  640PYPI   PO410166   9.358   7.507  10.620  0.1208  0.1678  0.2084
  640PYPI   GL110167   9.226   7.576  10.160 -0.1345  0.0280  0.1589
  640PYPI   GL210168   8.945   7.422  10.018  0.1101 -0.5083  0.0163
  640PYPI   C1A10169   9.373   7.530   9.768 -0.0732 -0.3800 -0.0369
  640PYPI   C2A10170   9.413   7.383   9.295  0.0107  0.3024  0.0582
  640PYPI   D3A10171   9.149   7.475   8.945  0.2248 -0.1637  0.2505
  640PYPI   C4A10172   9.289   7.574   8.526 -0.0112  0.0103  0.0045
  640PYPI   C1B10173   8.965   7.728   9.518 -0.0513  0.1870 -0.2018
  640PYPI   C2B10174   8.813   7.788   9.122 -0.1129 -0.2123 -0.0793
  640PYPI   C3B10175   8.828   7.780   8.657 -0.0015  0.1652 -0.3621
  640PYPI   C4B10176   8.894   7.712   8.153 -0.2528 -0.1669 -0.0944
  641ERGO   ROH10177  13.244  15.478   9.461  0.0287 -0.2986  0.0017
  641ERGO    R110178  13.074  15.455   9.237 -0.0603  0.1547  0.0137
  641ERGO    R210179  13.024  15.666   9.065  0.4082  0.3256  0.0735
  641ERGO    R310180  13.106  15.489   8.876 -0.0212  0.1735  0.0193
  641ERGO    R410181  12.979  15.705   8.725  0.2384  0.3842  0.1018
  641ERGO    R510182  12.932  15.493   8.711 -0.1321  0.4586  0.1393
  641ERGO    C110183  13.029  15.561   8.349 -0.2637  0.2756  0.0675
  641ERGO    C210184  13.002  15.736   8.013 -0.3634 -0.1349  0.1083
  642ERGO   ROH10185   2.314   1.164   9.856  0.0272 -0.0450  0.1004
  642ERGO    R110186   2.232   1.097   9.593  0.0879 -0.1346  0.1036
  642ERGO    R210187   2.223   1.282   9.388  0.0099 -0.1744  0.0687
  642ERGO    R310188   2.381   1.101   9.261  0.1190 -0.1140  0.1180
  642ERGO    R410189   2.218   1.220   9.049  0.0165 -0.3014  0.0920
  642ERGO    R510190   2.240   1.007   9.092  0.1648 -0.2710  0.1665
  642ERGO    C110191   2.363   1.013   8.731  0.1227 -0.3187  0.1518
  642ERGO    C210192   2.321   0.974   8.408  0.1685  0.1856  0.0598
  643ERGO   ROH10193   9.745   4.009   9.750  0.0715  0.1770  0.0027
  643ERGO    R110194   9.688   3.956   9.478  0.0124  0.1109  0.0288
  643ERGO    R210195   9.599   4.151   9.304  0.0500  0.0834 -0.0147
  643ERGO    R310196   9.811   4.069   9.155 -0.0014 -0.0311 -0.0284
  643ERGO    R410197   9.599   4.123   8.959  0.1196  0.4522 -0.0495
  643ERGO    R510198   9.714   3.938   8.979 -0.1194  0.2755 -0.2039
  643ERGO    C110199   9.798   4.030   8.619  0.1119  0.5595 -0.0828
  643ERGO    C210200   9.761   4.067   8.286 -0.0177 -0.0890  0.1624
  644ERGO   ROH10201  10.936  11.686   9.595 -0.0196 -0.0447  0.0176
  644ERGO    R110202  10.988  11.664   9.318  0.1419 -0.1348  0.0531
  644ERGO    R210203  11.153  11.469   9.212 -0.0757 -0.3957  0.1766
  644ERGO    R310204  10.936  11.415   9.058 -0.0580 -0.0713  0.0312
  644ERGO    R410205  11.166  11.362   8.884 -0.0134 -0.4568  0.1994
  644ERGO    R510206  10.997  11.493   8.840  0.2201 -0.1924  0.0628
  644ERGO    C110207  10.970  11.249   8.548  0.0393 -0.1877  0.0761
  644ERGO    C210208  11.096  11.245   8.181  0.0516 -0.0724  0.1186
  645ERGO   ROH10209  16.100   6.286   9.921 -0.0606  0.0554  0.0457
  645ERGO    R110210  16.144   6.136   9.685 -0.0455 -0.0225  0.0991
  645ERGO    R210211  15.954   6.112   9.486 -0.0384 -0.1094  0.1106
  645ERGO    R310212  16.155   6.202   9.327 -0.0484 -0.1506  0.0728
  645ERGO    R410213  15.949   6.109   9.141 -0.0427 -0.2798  0.1110
  645ERGO    R510214  16.158   6.048   9.143 -0.0253 -0.2461  0.1449
  645ERGO    C110215  16.135   6.191   8.790 -0.0547 -0.4177  0.0758
  645ERGO    C210216  16.000   6.211   8.457 -0.3507  0.0742  0.0218
  646ERGO   ROH10217   2.725   9.616  10.427 -0.0152 -0.1194 -0.0373
  646ERGO    R110218   2.640   9.484  10.191 -0.0980 -0.0691 -0.0348
  646ERGO    R210219   2.508   9.615   9.987 -0.0036  0.0128 -0.0396
  646ERGO    R310220   2.707   9.510   9.835 -0.0723 -0.1271 -0.0351
  646ERGO    R410221   2.472   9.514   9.659 -0.0614  0.0753 -0.0534
  646ERGO    R510222   2.598   9.341   9.703 -0.1971 -0.0306 -0.0608
  646ERGO    C110223   2.638   9.356   9.324 -0.1595 -0.0194 -0.0573
  646ERGO    C210224   2.614   9.391   8.977 -0.0945  0.0705 -0.0149
  647ERGO   ROH10225   1.213  18.174   9.644  0.1053  0.0697  0.0151
  647ERGO    R110226   1.130  18.044   9.406  0.2751 -0.0360  0.0138
  647ERGO    R210227   1.026  18.182   9.190  0.1509 -0.1634  0.0006
  647ERGO    R310228   1.223  18.052   9.054  0.3061  0.0418  0.0213
  647ERGO    R410229   1.051  18.166   8.845  0.1161 -0.2408  0.0002
  647ERGO    R510230   1.112  17.958   8.864  0.3916 -0.1678  0.0653
  647ERGO    C110231   1.251  18.035   8.518  0.2415 -0.0932  0.0192
  647ERGO    C210232   1.250  18.044   8.203 -0.0533 -0.0529 -0.0900
  648ERGO   ROH10233  18.285  18.099   9.334  0.1662  0.0247  0.1584
  648ERGO    R110234  18.220  17.953   9.100  0.1984 -0.0395  0.1883
  648ERGO    R210235  18.173  18.076   8.857 -0.0327 -0.0818  0.2037
  648ERGO    R310236  18.366  17.905   8.770  0.0974  0.1035  0.1239
  648ERGO    R410237  18.248  18.017   8.525 -0.1603 -0.0789  0.1740
  648ERGO    R510238  18.272  17.805   8.573  0.0922 -0.0397  0.2040
  648ERGO    C110239  18.473  17.822   8.250 -0.1126  0.0966  0.0820
  648ERGO    C210240  18.548  17.778   7.935  0.4692  0.1018 -0.1470
  649ERGO   ROH10241  16.071  12.203  10.127 -0.1198 -0.0435  0.0106
  649ERGO    R110242  16.189  12.168   9.872 -0.0992  0.0816  0.0024
  649ERGO    R210243  16.113  11.965   9.699  0.0490  0.0485 -0.0220
  649ERGO    R310244  16.078  12.172   9.526 -0.1111  0.0456  0.0051
  649ERGO    R410245  16.160  11.947   9.357  0.1265  0.1412 -0.0170
  649ERGO    R510246  16.252  12.145   9.364 -0.0540  0.2284  0.0306
  649ERGO    C110247  16.154  12.131   8.996  0.0214  0.1926  0.0115
  649ERGO    C210248  16.359  12.238   8.758 -0.0441 -0.2096  0.0275
  650ERGO   ROH10249   8.657  16.528   9.197  0.0282  0.3901 -0.1701
  650ERGO    R110250   8.750  16.520   8.930  0.0693  0.1585 -0.1506
  650ERGO    R210251   8.669  16.327   8.749 -0.0383  0.1075 -0.0430
  650ERGO    R310252   8.602  16.542   8.598  0.1445  0.0618 -0.1926
  650ERGO    R410253   8.695  16.341   8.405 -0.0147 -0.1618 -0.0550
  650ERGO    R510254   8.767  16.546   8.424  0.1585 -0.2018 -0.1947
  650ERGO    C110255   8.647  16.552   8.062  0.1707 -0.3618 -0.2024
  650ERGO    C210256   8.436  16.669   7.681  0.0367 -0.0835 -0.0020
  651ERGO   ROH10257  12.053  16.498   9.715 -0.0449  0.2828 -0.0185
  651ERGO    R110258  12.226  16.550   9.496  0.0284  0.1213 -0.0005
  651ERGO    R210259  12.290  16.358   9.308 -0.1156  0.0544  0.0195
  651ERGO    R310260  12.201  16.546   9.134  0.0704  0.1234 -0.0042
  651ERGO    R410261  12.340  16.351   8.966 -0.1387 -0.0529  0.0181
  651ERGO    R510262  12.375  16.565   8.971  0.0861 -0.0851 -0.0165
  651ERGO    C110263  12.285  16.523   8.603  0.0225 -0.0507 -0.0050
  651ERGO    C210264  12.355  16.519   8.298  0.0068 -0.2348 -0.2618
  652ERGO   ROH10265   9.357  12.044   9.688 -0.1570  0.2467  0.0547
  652ERGO    R110266   9.276  11.946   9.434 -0.0433  0.1631  0.0503
  652ERGO    R210267   9.022  11.985   9.333 -0.0410  0.0098 -0.0178
  652ERGO    R310268   9.157  12.089   9.121 -0.0455  0.0495 -0.0011
  652ERGO    R410269   8.963  11.905   9.002 -0.0637  0.0886 -0.0329
  652ERGO    R510270   9.178  11.906   8.968 -0.0652  0.0827 -0.0439
  652ERGO    C110271   9.054  11.956   8.611 -0.0810  0.1719 -0.0261
  652ERGO    C210272   9.066  12.133   8.363  0.0494  0.2107 -0.0149
  653ERGO   ROH10273  16.379  16.127   9.851  0.1549 -0.0249 -0.1121
  653ERGO    R110274  16.232  16.173   9.614  0.0633 -0.0523 -0.0613
  653ERGO    R210275  16.335  16.316   9.401 -0.0580  0.0146 -0.0753
  653ERGO    R310276  16.268  16.093   9.261 -0.0143  0.0061 -0.0830
  653ERGO    R410277  16.307  16.301   9.057  0.0719 -0.0096 -0.0853
  653ERGO    R510278  16.130  16.174   9.082  0.0562 -0.0009 -0.1416
  653ERGO    C110279  16.228  16.082   8.725  0.1884 -0.0319 -0.0982
  653ERGO    C210280  16.399  15.986   8.429 -0.0955 -0.1809  0.2011
  654ERGO   ROH10281   0.459  11.741  10.299  0.0290  0.0100 -0.0349
  654ERGO    R110282   0.632  11.764  10.076 -0.0332 -0.0512 -0.0906
  654ERGO    R210283   0.741  11.545   9.948 -0.0028 -0.0859 -0.0103
  654ERGO    R310284   0.630  11.659   9.728 -0.0925 -0.2249 -0.0382
  654ERGO    R410285   0.836  11.480   9.622  0.1758  0.0504  0.0139
  654ERGO    R510286   0.814  11.692   9.579 -0.0927  0.0241  0.0153
  654ERGO    C110287   0.787  11.550   9.226  0.1956 -0.0005  0.0018
  654ERGO    C210288   0.878  11.638   8.871 -0.2109  0.1754 -0.0582
  655ERGO   ROH10289   4.614  17.264   9.764 -0.2135 -0.1055  0.0011
  655ERGO    R110290   4.675  17.149   9.513 -0.2332 -0.0975 -0.0077
  655ERGO    R210291   4.485  17.115   9.315 -0.2210  0.0331 -0.0449
  655ERGO    R310292   4.664  17.254   9.164 -0.1233 -0.0347  0.0077
  655ERGO    R410293   4.553  17.052   8.982 -0.0595 -0.0640  0.0057
  655ERGO    R510294   4.765  17.088   9.024 -0.0764 -0.0854  0.1028
  655ERGO    C110295   4.761  17.145   8.647  0.1263 -0.1841  0.0848
  655ERGO    C210296   4.871  17.046   8.351  0.0320  0.0831  0.1221
  656ERGO   ROH10297   6.175   9.938  10.141 -0.0362  0.3501 -0.0496
  656ERGO    R110298   6.183  10.018   9.870 -0.1400  0.2152 -0.0930
  656ERGO    R210299   6.408   9.991   9.713 -0.1698  0.2329 -0.1349
  656ERGO    R310300   6.239   9.857   9.548 -0.1539  0.0759 -0.0275
  656ERGO    R410301   6.434   9.984   9.369 -0.2524  0.0799 -0.1395
  656ERGO    R510302   6.217  10.001   9.357 -0.2660 -0.0229 -0.0927
  656ERGO    C110303   6.291   9.855   9.013 -0.2855 -0.1567 -0.0413
  656ERGO    C210304   6.284   9.966   8.690 -0.1196  0.1242 -0.0416
  657ERGO   ROH10305  13.366   5.503   9.678 -0.1404 -0.0798  0.0163
  657ERGO    R110306  13.474   5.627   9.448 -0.0775 -0.1696 -0.0031
  657ERGO    R210307  13.539   5.485   9.219 -0.2446 -0.2248 -0.0198
  657ERGO    R310308  13.377   5.667   9.099 -0.1128 -0.0811  0.0174
  657ERGO    R410309  13.517   5.536   8.878 -0.0623  0.0088  0.0010
  657ERGO    R510310  13.506   5.750   8.916  0.0069 -0.0123  0.1334
  657ERGO    C110311  13.352   5.737   8.567  0.1675  0.2797  0.0482
  657ERGO    C210312  13.363   5.562   8.274 -0.1654  0.0351 -0.3946
  658ERGO   ROH10313   3.283   0.174   9.701 -0.1323  0.1472 -0.1586
  658ERGO    R110314   3.440   0.150   9.466 -0.0875  0.0625 -0.1212
  658ERGO    R210315   3.352   0.015   9.242 -0.0475 -0.0149 -0.0951
  658ERGO    R310316   3.411   0.249   9.117 -0.0210 -0.0574 -0.1605
  658ERGO    R410317   3.357   0.061   8.899 -0.1464 -0.0797 -0.1050
  658ERGO    R510318   3.535   0.184   8.923 -0.1054 -0.1280 -0.1884
  658ERGO    C110319   3.415   0.309   8.583 -0.1790 -0.1574 -0.1721
  658ERGO    C210320   3.416   0.324   8.293 -0.1331  0.0919  0.1731
  659ERGO   ROH10321  10.801   4.375   9.790  0.0815 -0.1499 -0.1243
  659ERGO    R110322  10.715   4.503   9.552  0.0777 -0.0937 -0.0932
  659ERGO    R210323  10.889   4.569   9.347  0.0798 -0.0181 -0.0695
  659ERGO    R310324  10.712   4.426   9.197  0.1014  0.0031 -0.1143
  659ERGO    R410325  10.797   4.645   9.022 -0.0159  0.1338 -0.0072
  659ERGO    R510326  10.592   4.591   9.072  0.0149  0.0302  0.0049
  659ERGO    C110327  10.578   4.556   8.693 -0.0514  0.2421 -0.0130
  659ERGO    C210328  10.627   4.557   8.284  0.1750 -0.4238  0.0304
  660ERGO   ROH10329   1.534  11.148   9.899  0.1002 -0.1090  0.1332
  660ERGO    R110330   1.706  11.156   9.674  0.0328 -0.0375  0.0834
  660ERGO    R210331   1.735  10.943   9.501  0.1433 -0.0619  0.1281
  660ERGO    R310332   1.670  11.128   9.313 -0.0484 -0.1547  0.1005
  660ERGO    R410333   1.790  10.908   9.161  0.0380 -0.1152  0.1165
  660ERGO    R510334   1.849  11.117   9.154 -0.1018 -0.0790  0.0365
  660ERGO    C110335   1.761  11.062   8.787 -0.2034 -0.2333  0.0838
  660ERGO    C210336   1.893  11.012   8.481 -0.4676  0.1799  0.1784
  661ERGO   ROH10337  16.213   7.104   9.994 -0.1501 -0.0370  0.1000
  661ERGO    R110338  16.137   7.116   9.722  0.0255 -0.0896  0.0476
  661ERGO    R210339  16.118   7.353   9.583 -0.1332 -0.0918  0.0625
  661ERGO    R310340  16.287   7.228   9.410  0.1236  0.1060  0.1640
  661ERGO    R410341  16.130   7.410   9.242 -0.2942 -0.3814  0.0052
  661ERGO    R510342  16.156   7.196   9.212  0.1658 -0.3628  0.2030
  661ERGO    C110343  16.295   7.326   8.882 -0.1468 -0.3644  0.0672
  661ERGO    C210344  16.253   7.270   8.526 -0.1122  0.0299  0.0677
  662ERGO   ROH10345   8.864   2.180  10.021 -0.1210 -0.0874 -0.0899
  662ERGO    R110346   8.754   2.201   9.761 -0.1478  0.1452 -0.0644
  662ERGO    R210347   8.719   2.443   9.633  0.1073  0.2487  0.0339
  662ERGO    R310348   8.864   2.323   9.437 -0.0600  0.1518 -0.0290
  662ERGO    R410349   8.728   2.544   9.302 -0.0287  0.1705  0.0073
  662ERGO    R510350   8.724   2.335   9.243 -0.1539  0.1718  0.0495
  662ERGO    C110351   8.869   2.490   8.926 -0.2648  0.0340 -0.0671
  662ERGO    C210352   8.809   2.490   8.585 -0.1915 -0.0014  0.4064
  663ERGO   ROH10353  18.225   8.003  10.306 -0.4218  0.0800  0.0147
  663ERGO    R110354  18.373   8.071  10.074 -0.3930  0.1570  0.0549
  663ERGO    R210355  18.476   7.880   9.903 -0.0897  0.2020  0.1789
  663ERGO    R310356  18.339   8.022   9.715 -0.1730 -0.0339  0.0587
  663ERGO    R410357  18.550   7.882   9.565  0.1287  0.2370  0.2254
  663ERGO    R510358  18.508   8.096   9.562 -0.1798  0.1786  0.1546
  663ERGO    C110359  18.464   8.015   9.192  0.1774  0.0359  0.1396
  663ERGO    C210360  18.388   8.060   8.851 -0.2600  0.3450 -0.2562
  664ERGO   ROH10361  11.206   1.861   9.910  0.2107 -0.0865  0.0133
  664ERGO    R110362  11.124   2.035   9.702  0.0452 -0.1102  0.0598
  664ERGO    R210363  11.301   2.147   9.523 -0.0460  0.1971  0.1668
  664ERGO    R310364  11.135   2.037   9.338  0.1574  0.0551  0.0608
  664ERGO    R410365  11.278   2.250   9.194 -0.0243  0.2873  0.1921
  664ERGO    R510366  11.061   2.224   9.207 -0.0105  0.0226  0.0957
  664ERGO    C110367  11.108   2.208   8.829  0.1792  0.2065  0.1073
  664ERGO    C210368  11.193   2.313   8.502  0.0095  0.0437  0.1253
  665ERGO   ROH10369  13.882  11.030   9.438  0.0268 -0.0472  0.0370
  665ERGO    R110370  13.881  10.755   9.374  0.1480 -0.0632  0.1039
  665ERGO    R210371  13.697  10.643   9.200  0.1076 -0.2093  0.2477
  665ERGO    R310372  13.920  10.552   9.074  0.0792 -0.1164  0.1276
  665ERGO    R410373  13.702  10.385   8.970  0.0779 -0.2320  0.2721
  665ERGO    R510374  13.888  10.315   9.060  0.1718 -0.1387  0.1757
  665ERGO    C110375  13.914  10.150   8.717  0.0339 -0.1581  0.1734
  665ERGO    C210376  13.934  10.185   8.378  0.1136 -0.2663 -0.1337
  666ERGO   ROH10377   1.762  16.034   9.910  0.0560  0.1848  0.1536
  666ERGO    R110378   1.897  16.060   9.663  0.0664  0.2087  0.1625
  666ERGO    R210379   1.972  15.841   9.511  0.1293  0.2235  0.1775
  666ERGO    R310380   1.832  15.969   9.316  0.1137  0.1813  0.1597
  666ERGO    R410381   1.952  15.739   9.181  0.2186  0.2232  0.1714
  666ERGO    R510382   1.968  15.947   9.120  0.1552  0.2337  0.1799
  666ERGO    C110383   1.809  15.799   8.807  0.2559  0.1833  0.1511
  666ERGO    C210384   1.562  15.841   8.500 -0.1799 -0.0460 -0.1873
  667ERGO   ROH10385   8.745   8.731   9.864 -0.2091 -0.0431  0.0845
  667ERGO    R110386   8.704   8.623   9.606 -0.2689 -0.0995  0.1172
  667ERGO    R210387   8.467   8.499   9.532 -0.3958  0.1361  0.1129
  667ERGO    R310388   8.474   8.680   9.330 -0.1416  0.0541  0.0416
  667ERGO    R410389   8.431   8.423   9.197 -0.2582  0.0341  0.1204
  667ERGO    R510390   8.588   8.567   9.152 -0.1218 -0.1009  0.1516
  667ERGO    C110391   8.417   8.548   8.812  0.0606 -0.1021  0.0579
  667ERGO    C210392   8.428   8.595   8.507  0.3025 -0.2527 -0.2137
  668ERGO   ROH10393  17.204   3.713   9.574  0.1041  0.3449 -0.0213
  668ERGO    R110394  17.332   3.869   9.375  0.3364  0.1946  0.0056
  668ERGO    R210395  17.578   3.803   9.269  0.1622 -0.2600 -0.1434
  668ERGO    R310396  17.445   3.820   9.033  0.0778  0.1388 -0.0735
  668ERGO    R410397  17.721   3.898   8.969  0.1697 -0.2327 -0.1312
  668ERGO    R510398  17.540   4.012   8.925  0.3224  0.0835  0.0420
  668ERGO    C110399  17.679   3.970   8.573  0.0945  0.1576 -0.0585
  668ERGO    C210400  17.686   3.988   8.236  0.0913 -0.0406 -0.1290
  669ERGO   ROH10401   4.889  16.033   9.631 -0.0533  0.3091  0.0857
  669ERGO    R110402   4.973  16.110   9.371 -0.0385  0.1135  0.0310
  669ERGO    R210403   5.068  15.928   9.186 -0.0923 -0.0375  0.1484
  669ERGO    R310404   4.873  16.035   9.029 -0.0670 -0.0884  0.0818
  669ERGO    R410405   5.060  15.913   8.841  0.0901  0.0585  0.1391
  669ERGO    R510406   4.990  16.119   8.838 -0.0104  0.0251  0.1645
  669ERGO    C110407   4.873  16.005   8.493  0.2200  0.0668  0.0713
  669ERGO    C210408   4.799  16.193   8.190  0.1450 -0.0594  0.2387
  670ERGO   ROH10409  13.895  12.527   9.715 -0.0976  0.1562  0.0486
  670ERGO    R110410  13.831  12.737   9.536 -0.0609  0.1077 -0.0212
  670ERGO    R210411  13.987  12.964   9.511  0.0047  0.0488 -0.1328
  670ERGO    R310412  13.988  12.896   9.249 -0.0585 -0.0488 -0.1086
  670ERGO    R410413  14.027  13.186   9.249 -0.1805 -0.0254 -0.2264
  670ERGO    R510414  13.875  13.076   9.139 -0.1756 -0.1333 -0.1344
  670ERGO    C110415  14.053  13.250   8.850 -0.3477 -0.1602 -0.2581
  670ERGO    C210416  14.178  13.278   8.579 -0.0674 -0.2175  0.1732
  671ERGO   ROH10417  11.890  15.458   9.641  0.1724  0.2997  0.1413
  671ERGO    R110418  11.791  15.418   9.379  0.1260 -0.1028  0.2145
  671ERGO    R210419  11.768  15.623   9.196 -0.3214 -0.2931  0.0459
  671ERGO    R310420  11.916  15.457   9.040 -0.0892 -0.1656  0.1258
  671ERGO    R410421  11.772  15.627   8.850  0.0193 -0.1582  0.0473
  671ERGO    R510422  11.775  15.409   8.852  0.1161 -0.1591 -0.0344
  671ERGO    C110423  11.914  15.473   8.503  0.4357  0.0401  0.1231
  671ERGO    C210424  11.921  15.671   8.145 -0.1743  0.1865 -0.2367
  672ERGO   ROH10425   0.835  16.230   9.951  0.2521 -0.3259 -0.1714
  672ERGO    R110426   0.731  16.300   9.697  0.2551 -0.1105 -0.1177
  672ERGO    R210427   0.870  16.256   9.462  0.2146 -0.0198 -0.1719
  672ERGO    R310428   0.643  16.125   9.390  0.1477  0.1258 -0.2200
  672ERGO    R410429   0.775  16.191   9.137  0.2518 -0.0105 -0.1829
  672ERGO    R510430   0.569  16.239   9.193  0.2772  0.1356 -0.2533
  672ERGO    C110431   0.506  16.031   8.879  0.2107  0.1317 -0.2345
  672ERGO    C210432   0.591  16.017   8.567  0.0254  0.0147 -0.2696
  673ERGO   ROH10433  15.396   2.943   9.416  0.0085 -0.1001 -0.1258
  673ERGO    R110434  15.493   2.877   9.159 -0.0104 -0.1335 -0.1244
  673ERGO    R210435  15.347   2.921   8.929  0.0256 -0.0436 -0.1303
  673ERGO    R310436  15.571   3.055   8.851  0.0991 -0.1531 -0.1086
  673ERGO    R410437  15.420   3.014   8.604  0.0333  0.0440 -0.1038
  673ERGO    R510438  15.628   2.959   8.640  0.0052 -0.1029 -0.1574
  673ERGO    C110439  15.672   3.194   8.342  0.1068 -0.0078 -0.0679
  673ERGO    C210440  15.724   3.285   8.096  0.1645 -0.1540  0.0440
  674PSPI    C110441  13.815  10.236   5.324  0.2130  0.1968 -0.0180
  674PSPI    C210442  13.947  10.587   5.184  0.2915  0.1437 -0.0779
  674PSPI    C310443  13.915  10.273   4.938  0.2246  0.1079 -0.0237
  674PSPI   PO410444  13.847  10.270   5.564 -0.1259 -0.3912  0.1661
  674PSPI   GL110445  13.860  10.147   5.974  0.2342  0.2963 -0.4742
  674PSPI   GL210446  14.085  10.296   5.977  0.0027  0.1358 -0.0611
  674PSPI   C1A10447  13.842   9.943   6.325  0.1815 -0.0447  0.0248
  674PSPI   C2A10448  14.112  10.007   6.627  0.4564 -0.0721  0.1195
  674PSPI   C3A10449  14.324  10.158   6.906  0.0697 -0.0444  0.0164
  674PSPI   C4A10450  14.518  10.408   7.207 -0.1998  0.1557 -0.3534
  674PSPI   C1B10451  14.029  10.439   6.385  0.0645  0.0490  0.0839
  674PSPI   C2B10452  13.878  10.509   6.769 -0.1205 -0.1146  0.0739
  674PSPI   C3B10453  13.914  10.412   7.142 -0.1921 -0.0777 -0.0130
  674PSPI   C4B10454  13.771  10.445   7.488  0.0260  0.1808  0.2679
  675PSPI    C110455   9.317  15.910   5.211  0.1678  0.0013 -0.0157
  675PSPI    C210456   9.353  15.732   5.568 -0.0375  0.0603  0.0357
  675PSPI    C310457   8.997  15.867   5.446  0.0162 -0.0259 -0.2248
  675PSPI   PO410458   9.464  16.132   5.229 -0.1910  0.0049 -0.1597
  675PSPI   GL110459   9.555  16.251   5.731 -0.0102  0.0152 -0.0305
  675PSPI   GL210460   9.902  16.338   5.805 -0.2005  0.2263 -0.0590
  675PSPI   C1A10461   9.588  15.864   6.025 -0.0856  0.1214 -0.1202
  675PSPI   C2A10462   9.190  15.722   6.372  0.1012 -0.1361 -0.0919
  675PSPI   C3A10463   8.907  15.447   6.680 -0.3312 -0.1571 -0.0325
  675PSPI   C4A10464   8.928  15.570   7.067  0.1561 -0.1702  0.1197
  675PSPI   C1B10465   9.742  16.313   6.207  0.2488  0.0474 -0.0306
  675PSPI   C2B10466   9.609  16.035   6.521  0.0248 -0.0163  0.1495
  675PSPI   C3B10467   9.738  15.987   6.854  0.5179  0.2965 -0.1505
  675PSPI   C4B10468   9.859  15.743   7.201  0.1203 -0.2748  0.0146
  676PSPI    C110469   5.106   9.808   5.775 -0.1593  0.0951 -0.0240
  676PSPI    C210470   5.302   9.980   6.079 -0.1019  0.0517 -0.0360
  676PSPI    C310471   5.396  10.074   5.702 -0.0030 -0.0782 -0.0445
  676PSPI   PO410472   5.089   9.527   5.887  0.0881 -0.1446 -0.1868
  676PSPI   GL110473   4.922   9.582   6.310  0.2145 -0.1909  0.0402
  676PSPI   GL210474   5.050   9.238   6.332  0.0777  0.2135  0.0864
  676PSPI   C1A10475   5.062   9.914   6.620  0.1577 -0.1755 -0.0494
  676PSPI   C2A10476   5.209  10.018   7.013  0.1511  0.1084 -0.1651
  676PSPI   C3A10477   5.121  10.137   7.353  0.1023  0.0361 -0.3275
  676PSPI   C4A10478   5.000  10.139   7.748 -0.2835  0.1162  0.1352
  676PSPI   C1B10479   5.349   9.488   6.518 -0.1434 -0.4041 -0.0041
  676PSPI   C2B10480   5.552   9.684   6.846  0.0751 -0.0046 -0.0963
  676PSPI   C3B10481   5.442   9.500   7.195  0.0675 -0.0718  0.1771
  676PSPI   C4B10482   5.528   9.158   7.556  0.1041 -0.1498 -0.0385
  677PSPI    C110483   6.681   2.224   5.902  0.0264 -0.2884 -0.0028
  677PSPI    C210484   6.755   2.363   5.535  0.1065 -0.0817  0.0900
  677PSPI    C310485   6.455   2.106   5.594 -0.0966  0.1132 -0.0730
  677PSPI   PO410486   6.981   2.115   6.000 -0.1854 -0.0645 -0.0114
  677PSPI   GL110487   7.221   2.098   6.375  0.0713  0.0637  0.2873
  677PSPI   GL210488   7.109   1.769   6.386 -0.0970  0.3511 -0.1163
  677PSPI   C1A10489   7.162   2.252   6.744 -0.0910  0.1977  0.0102
  677PSPI   C2A10490   7.110   2.478   7.132 -0.0486 -0.4641 -0.1576
  677PSPI   C3A10491   6.937   2.650   7.453 -0.1197  0.1569  0.0036
  677PSPI   C4A10492   7.033   2.982   7.753 -0.1821 -0.1223  0.2908
  677PSPI   C1B10493   6.843   1.667   6.721  0.1951 -0.0716 -0.0253
  677PSPI   C2B10494   6.889   1.498   7.063 -0.2354  0.1548  0.0726
  677PSPI   C3B10495   7.004   1.597   7.469 -0.1500 -0.3357  0.1153
  677PSPI   C4B10496   7.006   1.713   7.904  0.0844 -0.2191 -0.0281
  678PSPI    C110497  18.090  12.008   5.521  0.0121 -0.2592  0.1302
  678PSPI    C210498  18.216  12.388   5.512 -0.1929 -0.1919  0.0522
  678PSPI    C310499  18.383  12.117   5.270 -0.1506 -0.1185 -0.0013
  678PSPI   PO410500  18.093  11.963   5.825 -0.0693  0.2434  0.2409
  678PSPI   GL110501  18.337  11.744   6.198  0.1013 -0.1765  0.1737
  678PSPI   GL210502  18.619  11.923   6.195  0.2150  0.1465 -0.1911
  678PSPI   C1A10503  18.141  11.767   6.588  0.1153 -0.0647 -0.1982
  678PSPI   C2A10504  18.339  11.584   6.928 -0.2143 -0.0859 -0.1614
  678PSPI   C3A10505  18.339  11.232   7.213 -0.1598 -0.0451 -0.0721
  678PSPI   C4A10506  18.412  10.946   7.533 -0.0171 -0.0558 -0.1733
  678PSPI   C1B10507  18.646  12.028   6.568 -0.3046 -0.1620 -0.1317
  678PSPI   C2B10508  18.756  11.921   7.002 -0.1580  0.2139 -0.1942
  678PSPI   C3B10509  18.586  11.684   7.379 -0.1964 -0.0154  0.0689
  678PSPI   C4B10510  18.349  11.478   7.622  0.2311 -0.1705 -0.1831
  679PSPI    C110511   0.367  14.084   5.932  0.0376 -0.1503 -0.0715
  679PSPI    C210512   0.207  14.325   5.655  0.0626  0.0450  0.0816
  679PSPI    C310513   0.041  13.968   5.731  0.0156  0.0193 -0.1353
  679PSPI   PO410514   0.567  14.120   5.965 -0.0654  0.3056 -0.3603
  679PSPI   GL110515   0.509  14.268   6.427 -0.2555  0.0847 -0.0309
  679PSPI   GL210516   0.271  13.994   6.418 -0.2458  0.1123  0.2126
  679PSPI   C1A10517   0.603  13.992   6.759  0.1450 -0.2542  0.2848
  679PSPI   C2A10518   0.789  13.689   6.938  0.0018 -0.0108  0.0393
  679PSPI   C3A10519   0.926  13.462   7.253 -0.1450  0.1739  0.1471
  679PSPI   C4A10520   0.996  13.460   7.689  0.0691  0.1364  0.0210
  679PSPI   C1B10521   0.033  14.031   6.690 -0.2629 -0.2477  0.3016
  679PSPI   C2B10522  -0.082  14.049   7.062 -0.1849  0.0256 -0.1187
  679PSPI   C3B10523  -0.189  14.363   7.492  0.1253 -0.1328  0.1237
  679PSPI   C4B10524  -0.214  14.089   7.880  0.2154 -0.0177 -0.1716
  680PSPI    C110525   1.013  12.967   6.034 -0.0652 -0.0718  0.1267
  680PSPI    C210526   0.884  12.589   6.015 -0.0678 -0.0741  0.1899
  680PSPI    C310527   1.198  12.704   5.796 -0.1808 -0.0667  0.0303
  680PSPI   PO410528   0.736  13.118   6.009  0.1051 -0.0734 -0.3199
  680PSPI   GL110529   0.711  12.945   6.413 -0.0460  0.5416 -0.0951
  680PSPI   GL210530   1.014  12.785   6.536 -0.2184  0.0834  0.2790
  680PSPI   C1A10531   0.898  13.198   6.710 -0.1758 -0.2922 -0.1781
  680PSPI   C2A10532   1.197  13.117   6.973 -0.4024 -0.0443 -0.1448
  680PSPI   C3A10533   1.215  13.032   7.344 -0.2345  0.1007  0.3354
  680PSPI   C4A10534   1.176  12.670   7.714 -0.0007  0.2278  0.1182
  680PSPI   C1B10535   0.881  12.771   7.055  0.0405  0.2120  0.2112
  680PSPI   C2B10536   0.737  12.908   7.357  0.1275  0.2637 -0.0353
  680PSPI   C3B10537   0.722  12.880   7.841 -0.0589 -0.3012 -0.1373
  680PSPI   C4B10538   0.857  12.984   8.227 -0.2164  0.1912  0.2284
  681PSPI    C110539  11.805  10.283   5.924  0.0878  0.1841  0.0514
  681PSPI    C210540  11.463  10.286   6.132  0.0494 -0.1474 -0.0019
  681PSPI    C310541  11.456  10.336   5.735  0.0820  0.0384  0.0201
  681PSPI   PO410542  12.041  10.057   5.950  0.1776  0.1288 -0.4523
  681PSPI   GL110543  12.055  10.002   6.337 -0.0442  0.0135  0.0021
  681PSPI   GL210544  12.355  10.045   6.372 -0.2894 -0.0304  0.1017
  681PSPI   C1A10545  11.886  10.146   6.673  0.0642  0.0681  0.2317
  681PSPI   C2A10546  11.776   9.980   7.048 -0.2264 -0.1124  0.3005
  681PSPI   C3A10547  11.858   9.598   7.126  0.2108 -0.3394 -0.0895
  681PSPI   C4A10548  12.185   9.447   7.307  0.1854  0.2439  0.0318
  681PSPI   C1B10549  12.463  10.236   6.620 -0.0215  0.0688  0.0823
  681PSPI   C2B10550  12.828  10.303   6.819 -0.1779 -0.0978 -0.1277
  681PSPI   C3B10551  13.247  10.483   6.854  0.1149  0.1384 -0.0043
  681PSPI   C4B10552  13.387  10.596   7.231  0.2022  0.0275 -0.4034
  682PSPI    C110553  17.255   5.392   5.757 -0.1383  0.0721  0.0174
  682PSPI    C210554  16.960   5.654   5.821 -0.1919  0.1165 -0.3873
  682PSPI    C310555  16.873   5.275   5.731 -0.1175  0.0326 -0.1161
  682PSPI   PO410556  17.373   5.366   5.936 -0.1703 -0.0148  0.2091
  682PSPI   GL110557  17.241   5.249   6.290 -0.0277 -0.0887  0.1885
  682PSPI   GL210558  16.995   5.337   6.304 -0.0705 -0.2445 -0.2830
  682PSPI   C1A10559  17.375   5.013   6.667 -0.0868  0.1961 -0.0993
  682PSPI   C2A10560  17.410   4.924   7.182 -0.0530  0.1675  0.1147
  682PSPI   C3A10561  17.631   4.975   7.574  0.1925  0.0469 -0.1088
  682PSPI   C4A10562  18.010   5.052   7.862 -0.2448  0.3216 -0.1599
  682PSPI   C1B10563  16.928   5.178   6.739  0.1254 -0.2536 -0.0622
  682PSPI   C2B10564  16.929   5.153   7.132 -0.1190 -0.1424 -0.3761
  682PSPI   C3B10565  17.101   5.029   7.612  0.1646  0.0589 -0.1871
  682PSPI   C4B10566  17.396   4.956   8.055  0.0201  0.1990 -0.0009
  683PSPI    C110567   6.018  18.250   5.240 -0.2743 -0.0768  0.0757
  683PSPI    C210568   6.271  18.198   4.935 -0.0861  0.0023  0.2167
  683PSPI    C310569   5.880  18.244   4.864 -0.0618 -0.1145 -0.0029
  683PSPI   PO410570   6.157  18.116   5.405 -0.0398  0.2651 -0.2469
  683PSPI   GL110571   6.191  17.945   5.885  0.0434 -0.0813 -0.1413
  683PSPI   GL210572   5.916  18.267   6.026 -0.0372  0.4724  0.1918
  683PSPI   C1A10573   6.481  18.059   6.270 -0.1055 -0.1105 -0.0392
  683PSPI   C2A10574   6.486  18.293   6.712  0.1700  0.1963  0.2454
  683PSPI   C3A10575   6.503  18.311   7.137 -0.1539  0.2449 -0.0001
  683PSPI   C4A10576   6.611  18.135   7.653  0.0500  0.0385 -0.0484
  683PSPI   C1B10577   6.045  18.184   6.473 -0.3505  0.0903  0.1381
  683PSPI   C2B10578   6.194  17.891   6.682  0.1306  0.0529  0.1063
  683PSPI   C3B10579   6.274  17.832   7.180 -0.2828 -0.1446 -0.0243
  683PSPI   C4B10580   6.493  17.652   7.483  0.0198  0.2492  0.1058
  684PSPI    C110581   7.992   5.280   5.791  0.3271 -0.1915  0.3183
  684PSPI    C210582   8.141   5.439   5.455  0.2440 -0.1235  0.3134
  684PSPI    C310583   8.208   5.054   5.541  0.1686 -0.1716  0.1609
  684PSPI   PO410584   7.968   5.512   5.934 -0.2105  0.0144 -0.0940
  684PSPI   GL110585   8.237   5.526   6.229  0.1121 -0.1874 -0.2754
  684PSPI   GL210586   8.384   5.756   6.196  0.1640  0.2341 -0.0531
  684PSPI   C1A10587   8.206   5.245   6.585  0.2792 -0.2413  0.2658
  684PSPI   C2A10588   8.026   5.079   6.950 -0.1198 -0.1531  0.0435
  684PSPI   C3A10589   8.056   4.997   7.418 -0.3291  0.2110 -0.1708
  684PSPI   C4A10590   8.459   4.946   7.677 -0.0013  0.2827 -0.2249
  684PSPI   C1B10591   8.091   5.934   6.519 -0.4244  0.1823 -0.3686
  684PSPI   C2B10592   7.998   5.754   6.873  0.2404  0.2555  0.1911
  684PSPI   C3B10593   7.651   5.467   7.210  0.0335  0.1816 -0.4176
  684PSPI   C4B10594   7.253   5.459   7.373  0.0054  0.0613  0.1645
  685PSPI    C110595   3.915  13.587   5.636 -0.0426 -0.1649 -0.3284
  685PSPI    C210596   4.303  13.568   5.542  0.0304 -0.1699 -0.0331
  685PSPI    C310597   4.087  13.888   5.437  0.1629 -0.0766 -0.0236
  685PSPI   PO410598   3.874  13.366   5.778 -0.0774 -0.1869 -0.1853
  685PSPI   GL110599   3.743  13.554   6.087  0.1468 -0.0935  0.1882
  685PSPI   GL210600   3.486  13.286   6.115 -0.0347 -0.1932 -0.2085
  685PSPI   C1A10601   3.477  13.681   6.367 -0.0383  0.1426  0.0446
  685PSPI   C2A10602   3.287  13.744   6.774 -0.0678 -0.1449  0.4326
  685PSPI   C3A10603   3.271  13.733   7.118 -0.0119  0.3773  0.3143
  685PSPI   C4A10604   3.265  13.667   7.583  0.1475  0.0286 -0.0019
  685PSPI   C1B10605   3.712  13.195   6.513 -0.0596 -0.1895 -0.1285
  685PSPI   C2B10606   3.978  13.270   6.885  0.3337  0.1847  0.0202
  685PSPI   C3B10607   4.333  13.058   6.895  0.0585 -0.1999  0.0078
  685PSPI   C4B10608   4.637  12.720   6.859 -0.2989  0.1360 -0.0176
  686PSPI    C110609  16.005  14.039   6.001 -0.1497 -0.1350 -0.1356
  686PSPI    C210610  16.249  14.174   5.714  0.2318 -0.0862  0.2032
  686PSPI    C310611  15.958  14.408   5.856  0.1529 -0.0478 -0.0192
  686PSPI   PO410612  15.827  13.738   5.831 -0.2560 -0.0900 -0.0850
  686PSPI   GL110613  15.841  13.494   6.148 -0.0298 -0.0718  0.3536
  686PSPI   GL210614  16.003  13.715   6.337  0.1962 -0.2666 -0.2501
  686PSPI   C1A10615  16.012  13.210   6.507 -0.2444  0.2051  0.2683
  686PSPI   C2A10616  15.802  13.165   6.766  0.0299 -0.1710 -0.0193
  686PSPI   C3A10617  15.884  12.991   7.068 -0.2114 -0.4550 -0.2202
  686PSPI   C4A10618  15.747  13.136   7.457  0.3761 -0.3517 -0.1889
  686PSPI   C1B10619  16.009  13.606   6.732  0.3226  0.2709  0.3897
  686PSPI   C2B10620  16.084  13.480   7.178  0.0615  0.3055 -0.3293
  686PSPI   C3B10621  16.233  13.236   7.610  0.3576 -0.2979  0.3415
  686PSPI   C4B10622  16.554  13.275   7.972 -0.2243 -0.2187  0.0768
  687PSPI    C110623   0.071   4.737   5.687  0.2224  0.0198  0.2784
  687PSPI    C210624   0.059   5.062   5.455 -0.1869 -0.1979 -0.0186
  687PSPI    C310625   0.330   4.776   5.385 -0.0518 -0.0815  0.0248
  687PSPI   PO410626  -0.082   4.719   5.816 -0.1194 -0.1090  0.2478
  687PSPI   GL110627  -0.052   4.868   6.233  0.0143 -0.2963 -0.2849
  687PSPI   GL210628  -0.166   4.585   6.479 -0.2027  0.2006 -0.3198
  687PSPI   C1A10629   0.073   5.059   6.608  0.1274 -0.2029  0.0622
  687PSPI   C2A10630  -0.029   5.113   7.086 -0.1386  0.0619  0.0022
  687PSPI   C3A10631  -0.108   5.062   7.509  0.1500 -0.1538  0.0015
  687PSPI   C4A10632   0.232   5.060   7.736 -0.0561  0.0549  0.1476
  687PSPI   C1B10633  -0.056   4.605   6.946  0.1353  0.0536 -0.1655
  687PSPI   C2B10634   0.012   4.617   7.389 -0.1356 -0.1276  0.0454
  687PSPI   C3B10635  -0.160   4.605   7.755 -0.1434 -0.0991  0.1192
  687PSPI   C4B10636   0.075   4.546   8.125 -0.0602 -0.2433 -0.0673
  688PSPI    C110637  10.062  10.247   5.505  0.0544 -0.1576 -0.0131
  688PSPI    C210638  10.434  10.213   5.362  0.0769  0.0923 -0.0189
  688PSPI    C310639  10.256  10.571   5.372 -0.0998  0.0017  0.1442
  688PSPI   PO410640  10.115  10.021   5.707 -0.2271 -0.0086 -0.1872
  688PSPI   GL110641  10.373   9.928   5.980 -0.0316 -0.1301  0.0721
  688PSPI   GL210642  10.106   9.842   6.191  0.0574  0.1479 -0.1558
  688PSPI   C1A10643  10.507  10.026   6.441  0.3874 -0.0544  0.0619
  688PSPI   C2A10644  10.400  10.047   6.870 -0.0921 -0.0831  0.0930
  688PSPI   C3A10645  10.449   9.977   7.267  0.0761 -0.1657 -0.4894
  688PSPI   C4A10646  10.567  10.265   7.478 -0.1861  0.0426 -0.3822
  688PSPI   C1B10647  10.062   9.714   6.633  0.1613  0.1669  0.0748
  688PSPI   C2B10648  10.072   9.628   7.050 -0.0375  0.1259  0.0028
  688PSPI   C3B10649  10.110   9.433   7.504  0.0338 -0.0760  0.0348
  688PSPI   C4B10650  10.142   9.151   7.913 -0.0920  0.3709  0.2264
  689PSPI    C110651  11.601   2.650   5.630  0.1547  0.1723 -0.0935
  689PSPI    C210652  11.823   2.967   5.529  0.0572  0.1871 -0.2645
  689PSPI    C310653  11.745   2.683   5.258  0.1993 -0.0170 -0.0942
  689PSPI   PO410654  11.382   2.782   5.782 -0.0528 -0.2205  0.0028
  689PSPI   GL110655  11.033   2.703   6.012  0.2522 -0.1217  0.2358
  689PSPI   GL210656  10.980   2.996   6.034  0.0608 -0.0542  0.1445
  689PSPI   C1A10657  11.181   2.693   6.463 -0.3181 -0.1604  0.4037
  689PSPI   C2A10658  11.115   2.580   6.944  0.2834  0.1932  0.0932
  689PSPI   C3A10659  10.969   2.507   7.438  0.1413 -0.0400  0.2808
  689PSPI   C4A10660  10.725   2.303   7.729 -0.4023 -0.3982 -0.1757
  689PSPI   C1B10661  11.063   3.401   6.047  0.0379  0.0818  0.0055
  689PSPI   C2B10662  11.122   3.600   6.501  0.0151 -0.0070 -0.0383
  689PSPI   C3B10663  11.055   3.847   6.846  0.0247 -0.1785 -0.0249
  689PSPI   C4B10664  10.809   3.823   7.282  0.1214 -0.2078 -0.2139
  690PSPI    C110665  18.281   7.034   5.652  0.1531  0.1202  0.2786
  690PSPI    C210666  18.258   6.639   5.596  0.4305  0.1533 -0.1148
  690PSPI    C310667  18.183   6.888   5.293  0.2805  0.4057  0.1245
  690PSPI   PO410668  18.128   7.043   5.915  0.0585 -0.4491 -0.0203
  690PSPI   GL110669  18.135   6.888   6.398  0.3627 -0.1656  0.1226
  690PSPI   GL210670  18.233   6.551   6.466  0.4746  0.0033 -0.2391
  690PSPI   C1A10671  18.300   6.922   6.816 -0.0253 -0.1093  0.2237
  690PSPI   C2A10672  18.274   6.762   7.142 -0.0799 -0.1731  0.1170
  690PSPI   C3A10673  18.487   6.894   7.431  0.0119 -0.0611  0.0739
  690PSPI   C4A10674  18.934   6.630   7.412  0.0072  0.1154 -0.1115
  690PSPI   C1B10675  18.167   6.349   6.835  0.0461  0.1960 -0.0130
  690PSPI   C2B10676  18.163   5.952   7.068  0.1325 -0.2419 -0.1143
  690PSPI   C3B10677  17.779   5.957   7.296  0.0232  0.2540 -0.2534
  690PSPI   C4B10678  17.782   5.954   7.699 -0.4654 -0.2288  0.0535
  691PSPI    C110679  10.241  16.436   5.396  0.1024  0.0133 -0.2656
  691PSPI    C210680   9.858  16.540   5.340  0.1205  0.0761 -0.2738
  691PSPI    C310681   9.999  16.201   5.181 -0.0160 -0.1143  0.0015
  691PSPI   PO410682  10.264  16.624   5.645  0.1994  0.2530 -0.1447
  691PSPI   GL110683  10.226  16.649   6.062  0.0570 -0.1559  0.0895
  691PSPI   GL210684   9.999  16.709   6.262 -0.0010  0.0070  0.0784
  691PSPI   C1A10685  10.454  16.421   6.425  0.1160  0.1654 -0.0570
  691PSPI   C2A10686  10.454  16.251   6.834  0.0861  0.1448 -0.1168
  691PSPI   C3A10687  10.136  16.168   7.098 -0.2206 -0.1669 -0.2453
  691PSPI   C4A10688  10.161  16.157   7.510  0.2981  0.1907  0.4238
  691PSPI   C1B10689   9.985  16.478   6.586  0.0975  0.0011 -0.1828
  691PSPI   C2B10690   9.808  16.472   6.872  0.1794  0.1417  0.1091
  691PSPI   C3B10691   9.844  16.501   7.322  0.3164 -0.1727 -0.1731
  691PSPI   C4B10692   9.648  16.185   7.437  0.2326  0.0126 -0.2183
  692PSPI    C110693  15.347  16.521   5.279 -0.1320  0.1322  0.0035
  692PSPI    C210694  15.468  16.892   5.189  0.0949  0.0045 -0.2285
  692PSPI    C310695  15.347  16.644   4.899  0.0156 -0.1293 -0.0831
  692PSPI   PO410696  15.407  16.523   5.584  0.0325  0.0970 -0.1800
  692PSPI   GL110697  15.489  16.683   5.934 -0.1259 -0.0610 -0.1443
  692PSPI   GL210698  15.339  16.382   6.142  0.3222  0.0252 -0.0049
  692PSPI   C1A10699  15.453  16.854   6.334  0.0499  0.2524  0.2752
  692PSPI   C2A10700  15.709  17.152   6.559 -0.0903 -0.0138 -0.2362
  692PSPI   C3A10701  16.164  17.039   6.824 -0.0406 -0.0291  0.1020
  692PSPI   C4A10702  16.481  16.870   7.185 -0.0906 -0.0210 -0.0131
  692PSPI   C1B10703  15.084  16.315   6.475  0.1077 -0.1906  0.3259
  692PSPI   C2B10704  14.914  16.166   6.854 -0.0530  0.1548 -0.1527
  692PSPI   C3B10705  14.723  15.819   7.215  0.1798 -0.3271 -0.1177
  692PSPI   C4B10706  14.550  15.953   7.580  0.0352  0.0891 -0.0235
  693POPI    C110707   3.469  11.521   5.327  0.2194 -0.1391  0.1428
  693POPI    C210708   3.573  11.570   4.944  0.1676  0.1964  0.1686
  693POPI    C310709   3.736  11.275   5.159  0.1998  0.0080 -0.1089
  693POPI   PO410710   3.541  11.801   5.559  0.1974 -0.3266  0.1708
  693POPI   GL110711   3.645  11.813   5.963 -0.1387  0.2404  0.0962
  693POPI   GL210712   3.406  11.925   6.175 -0.0357 -0.2725  0.0038
  693POPI   C1A10713   3.840  12.026   6.371 -0.1503  0.2513  0.0486
  693POPI   D2A10714   4.249  12.115   6.562 -0.1029  0.3847  0.2856
  693POPI   C3A10715   4.423  12.533   6.342  0.0100 -0.2644  0.2187
  693POPI   C4A10716   4.786  12.640   6.319 -0.0318  0.1330  0.2937
  693POPI   C1B10717   3.381  12.038   6.603 -0.1379 -0.3424  0.4575
  693POPI   C2B10718   3.279  11.983   7.041  0.0239  0.0043  0.1491
  693POPI   C3B10719   3.357  11.914   7.436  0.2248  0.2038  0.0885
  693POPI   C4B10720   3.373  11.724   7.828 -0.4035  0.0819  0.0562
  694POPI    C110721  12.094  14.309   6.141  0.0336  0.0870 -0.0971
  694POPI    C210722  12.311  13.973   6.163  0.0782  0.1171 -0.0779
  694POPI    C310723  12.191  14.110   5.807 -0.1357 -0.0443 -0.0696
  694POPI   PO410724  12.245  14.552   6.272  0.0210 -0.0692 -0.4194
  694POPI   GL110725  12.686  14.498   6.379  0.2940 -0.0622  0.2273
  694POPI   GL210726  12.739  14.141   6.172  0.0624 -0.0451 -0.0713
  694POPI   C1A10727  12.750  14.542   6.748  0.0125 -0.1090 -0.0979
  694POPI   D2A10728  12.890  14.301   7.059  0.0162  0.3349 -0.0844
  694POPI   C3A10729  12.971  14.544   7.520 -0.0517 -0.0152  0.1709
  694POPI   C4A10730  12.766  14.660   7.880 -0.0326 -0.1065  0.2738
  694POPI   C1B10731  12.554  14.058   6.569 -0.0821  0.1114  0.3386
  694POPI   C2B10732  12.640  13.834   6.943 -0.0526 -0.2458  0.0413
  694POPI   C3B10733  12.582  13.989   7.373  0.2194 -0.1285 -0.1690
  694POPI   C4B10734  12.494  13.747   7.636  0.1994 -0.2386 -0.0541
  695POPI    C110735   2.953   6.781   5.799  0.1616 -0.0471  0.0632
  695POPI    C210736   2.812   7.149   5.869  0.1431 -0.0359 -0.0316
  695POPI    C310737   3.042   7.080   5.548  0.0280 -0.1368 -0.0932
  695POPI   PO410738   2.843   6.657   6.013  0.1611  0.0900  0.0136
  695POPI   GL110739   2.827   6.802   6.383  0.3426 -0.0329  0.1039
  695POPI   GL210740   3.098   7.038   6.512  0.0910 -0.2349  0.2452
  695POPI   C1A10741   2.768   6.450   6.772  0.1580 -0.0543  0.3606
  695POPI   D2A10742   2.724   6.389   7.093 -0.1879 -0.0443 -0.1107
  695POPI   C3A10743   2.592   6.338   7.503  0.0207  0.0487 -0.0233
  695POPI   C4A10744   2.465   6.131   7.968  0.2618 -0.1185  0.2453
  695POPI   C1B10745   3.120   6.862   6.937 -0.0238 -0.0468 -0.0223
  695POPI   C2B10746   3.463   6.776   7.301  0.1381  0.1559 -0.1091
  695POPI   C3B10747   3.407   6.869   7.693  0.1380 -0.3431 -0.2237
  695POPI   C4B10748   3.571   6.827   8.176  0.1857 -0.3328  0.3243
  696POPI    C110749   9.809   1.364   5.642  0.0899  0.0963  0.0004
  696POPI    C210750  10.077   1.285   5.356  0.0738  0.0174  0.0068
  696POPI    C310751  10.161   1.554   5.640  0.1880 -0.0816  0.0678
  696POPI   PO410752   9.698   1.049   5.770  0.2024 -0.0236  0.1937
  696POPI   GL110753   9.680   1.097   6.189 -0.4075 -0.1202  0.0503
  696POPI   GL210754   9.347   1.009   6.117 -0.1556 -0.0882  0.1753
  696POPI   C1A10755   9.822   0.935   6.617 -0.1662  0.1089 -0.0496
  696POPI   D2A10756   9.596   0.790   6.965  0.0052 -0.0497  0.1139
  696POPI   C3A10757   9.690   0.660   7.352  0.0669  0.1192  0.0367
  696POPI   C4A10758   9.775   0.604   7.857  0.0157 -0.1315 -0.0805
  696POPI   C1B10759   9.334   1.128   6.551 -0.2267 -0.1485 -0.0160
  696POPI   C2B10760   9.449   1.300   7.021 -0.4599 -0.4409 -0.1442
  696POPI   C3B10761   9.717   1.528   7.129 -0.3050  0.2394 -0.0093
  696POPI   C4B10762   9.898   1.471   7.462  0.1622 -0.0288  0.0189
  697POPI    C110763  14.713  14.680   5.444  0.1078  0.1697  0.1248
  697POPI    C210764  14.569  14.936   5.172  0.1030  0.1512  0.1099
  697POPI    C310765  14.959  14.936   5.261  0.1634 -0.0697 -0.1425
  697POPI   PO410766  14.496  14.694   5.613  0.2786  0.0083  0.1529
  697POPI   GL110767  14.274  15.026   5.868  0.0653 -0.1238 -0.0833
  697POPI   GL210768  14.356  15.346   6.026  0.1288  0.0246 -0.2008
  697POPI   C1A10769  13.968  15.025   6.254 -0.1497 -0.0649 -0.0465
  697POPI   D2A10770  13.465  14.838   6.309 -0.1257  0.0589 -0.0457
  697POPI   C3A10771  13.097  14.897   6.634 -0.2500 -0.0061  0.0249
  697POPI   C4A10772  13.124  14.761   7.117 -0.1709 -0.0341  0.3967
  697POPI   C1B10773  14.002  15.526   6.213 -0.1615 -0.3794 -0.0830
  697POPI   C2B10774  13.785  15.690   6.457 -0.3308 -0.3348 -0.1659
  697POPI   C3B10775  13.534  15.695   6.745 -0.0691  0.0149 -0.2075
  697POPI   C4B10776  13.419  15.538   7.123  0.4394  0.1136 -0.0395
  698POPI    C110777   5.310   6.738   5.694 -0.0061  0.2741  0.0396
  698POPI    C210778   5.613   6.487   5.621 -0.0810  0.1011  0.3102
  698POPI    C310779   5.383   6.615   5.320  0.0609 -0.0228  0.1473
  698POPI   PO410780   5.227   6.639   5.950  0.0993 -0.1990  0.1112
  698POPI   GL110781   5.218   6.832   6.344 -0.0510  0.1731 -0.0265
  698POPI   GL210782   5.284   6.533   6.490  0.1535  0.1180  0.2200
  698POPI   C1A10783   5.388   6.958   6.794 -0.1021  0.0169 -0.0167
  698POPI   D2A10784   5.550   7.084   7.140 -0.0708 -0.1073  0.0655
  698POPI   C3A10785   5.670   6.863   7.458  0.0829 -0.2639  0.2559
  698POPI   C4A10786   5.866   6.800   7.867  0.3487 -0.1237  0.0294
  698POPI   C1B10787   5.008   6.301   6.868  0.0141  0.3011 -0.0916
  698POPI   C2B10788   5.007   5.801   7.074  0.3283 -0.1662  0.0941
  698POPI   C3B10789   4.936   5.477   7.296  0.2263  0.1018 -0.0942
  698POPI   C4B10790   4.663   5.090   7.541  0.1236 -0.1900  0.3061
  699POPI    C110791   3.786   7.122   5.833  0.0801 -0.2950 -0.1834
  699POPI    C210792   3.963   7.460   5.714  0.2500 -0.2769  0.1125
  699POPI    C310793   3.887   7.171   5.449 -0.0037  0.0375 -0.1656
  699POPI   PO410794   3.854   7.192   6.130  0.0156 -0.0656  0.2376
  699POPI   GL110795   3.637   7.382   6.536  0.0117 -0.0924  0.1188
  699POPI   GL210796   3.342   7.410   6.620 -0.1376 -0.1882 -0.1054
  699POPI   C1A10797   4.046   7.420   6.688 -0.0024  0.0180 -0.0557
  699POPI   D2A10798   4.448   7.536   7.004 -0.2746  0.2715  0.0795
  699POPI   C3A10799   4.441   7.398   7.430 -0.1133 -0.0254 -0.2343
  699POPI   C4A10800   4.344   7.363   7.855 -0.0928 -0.1407 -0.2182
  699POPI   C1B10801   3.417   7.600   6.966 -0.1139 -0.0704 -0.1040
  699POPI   C2B10802   3.405   7.995   7.278 -0.2479 -0.1407  0.1754
  699POPI   C3B10803   3.420   8.071   7.723 -0.1755  0.3016 -0.0304
  699POPI   C4B10804   3.259   8.243   8.183  0.2891 -0.2238 -0.0034
  700POPI    C110805   9.363   9.636   5.577  0.1107  0.0268  0.0940
  700POPI    C210806   9.477   9.330   5.807  0.2314  0.0890  0.1171
  700POPI    C310807   9.174   9.285   5.551  0.2144 -0.0341  0.1584
  700POPI   PO410808   9.321   9.814   5.751 -0.5318  0.1371  0.1088
  700POPI   GL110809   9.068   9.740   6.102 -0.0280 -0.0261  0.0451
  700POPI   GL210810   9.056   9.430   6.106  0.1317 -0.0692  0.0827
  700POPI   C1A10811   9.207   9.852   6.538 -0.1238  0.0034  0.0251
  700POPI   D2A10812   9.024   9.803   6.908  0.1988  0.2678 -0.2546
  700POPI   C3A10813   9.073   9.825   7.371 -0.1296 -0.0796 -0.2073
  700POPI   C4A10814   8.940  10.131   7.676 -0.0123 -0.2658  0.2610
  700POPI   C1B10815   8.808   9.537   6.533 -0.0431 -0.4791 -0.3124
  700POPI   C2B10816   8.655   9.306   6.872 -0.2468  0.0952 -0.0017
  700POPI   C3B10817   8.902   8.962   7.091  0.0010 -0.2238 -0.0572
  700POPI   C4B10818   8.800   8.758   7.398  0.0001 -0.1496  0.0799
  701POPI    C110819  11.758  13.842   5.578  0.1147  0.0579 -0.3219
  701POPI    C210820  11.524  13.540   5.462 -0.2171  0.0440  0.3367
  701POPI    C310821  11.630  13.822   5.199 -0.4814 -0.2646 -0.1166
  701POPI   PO410822  11.866  13.681   5.813  0.1524 -0.3405 -0.1262
  701POPI   GL110823  11.982  13.538   6.184 -0.0807  0.1035 -0.0536
  701POPI   GL210824  11.819  13.500   6.381 -0.3197 -0.3474 -0.1085
  701POPI   C1A10825  12.178  13.114   6.451 -0.5484  0.1743 -0.1679
  701POPI   D2A10826  12.359  12.760   6.685 -0.0303 -0.0296  0.1802
  701POPI   C3A10827  12.187  12.795   7.032 -0.0260 -0.0025  0.0946
  701POPI   C4A10828  11.922  12.814   7.436  0.0177 -0.2867 -0.1234
  701POPI   C1B10829  11.838  13.286   6.753  0.0295 -0.1328 -0.1338
  701POPI   C2B10830  11.752  13.346   7.139  0.0007  0.4246 -0.0554
  701POPI   C3B10831  11.532  13.220   7.482  0.0850 -0.1069 -0.0413
  701POPI   C4B10832  11.340  13.378   7.954  0.2093  0.0719  0.6117
  702POPI    C110833  17.345   2.135   5.296  0.0622 -0.1992  0.0175
  702POPI    C210834  17.576   1.917   5.052 -0.0106  0.1145 -0.3416
  702POPI    C310835  17.250   2.100   4.909 -0.2767 -0.0149  0.0801
  702POPI   PO410836  17.289   1.990   5.530  0.2107 -0.0757  0.1787
  702POPI   GL110837  16.978   2.042   5.666  0.0895  0.1574  0.0646
  702POPI   GL210838  16.669   2.021   5.706 -0.1476  0.2245 -0.1200
  702POPI   C1A10839  16.819   1.710   6.040  0.0089  0.1083  0.0366
  702POPI   D2A10840  17.003   1.447   6.409  0.1518 -0.0786 -0.1969
  702POPI   C3A10841  16.939   1.537   6.840 -0.0440  0.1746  0.1042
  702POPI   C4A10842  16.983   1.354   7.188  0.2059 -0.0426  0.1897
  702POPI   C1B10843  16.420   2.325   6.011  0.1021 -0.0714  0.0029
  702POPI   C2B10844  16.374   2.385   6.505 -0.1673  0.2901 -0.0916
  702POPI   C3B10845  16.305   2.146   6.901 -0.3889  0.0368 -0.1394
  702POPI   C4B10846  16.193   1.883   7.102 -0.2799 -0.0916 -0.2291
  703POPI    C110847   1.232  16.211   5.553  0.1003 -0.3633  0.2512
  703POPI    C210848   1.219  16.325   5.169  0.2474  0.1055  0.3782
  703POPI    C310849   1.155  15.942   5.267  0.4580 -0.0690 -0.1344
  703POPI   PO410850   0.896  16.388   5.747 -0.0828  0.1536  0.1884
  703POPI   GL110851   0.895  16.425   6.211  0.4358 -0.0682  0.2166
  703POPI   GL210852   0.818  16.210   6.418  0.2669  0.1617 -0.0813
  703POPI   C1A10853   1.281  16.432   6.438  0.1040 -0.3614  0.0120
  703POPI   D2A10854   1.710  16.511   6.657 -0.0580 -0.2140 -0.1785
  703POPI   C3A10855   1.794  16.560   7.169  0.0624  0.2289 -0.0568
  703POPI   C4A10856   1.485  16.657   7.598 -0.1673 -0.0383 -0.2496
  703POPI   C1B10857   0.869  16.354   6.817 -0.2942 -0.3299  0.0588
  703POPI   C2B10858   0.793  16.728   7.084 -0.0168 -0.0413  0.0101
  703POPI   C3B10859   0.699  16.835   7.495  0.4658 -0.2448  0.2170
  703POPI   C4B10860   0.564  16.541   7.863 -0.1235  0.0219 -0.1219
  704POPI    C110861   6.016  11.998   5.662  0.2032 -0.1080 -0.0851
  704POPI    C210862   5.704  12.158   5.471  0.0796 -0.2207  0.0208
  704POPI    C310863   6.076  12.260   5.366  0.0036  0.1660  0.1119
  704POPI   PO410864   5.920  11.951   5.867  0.0790  0.0109 -0.1000
  704POPI   GL110865   6.021  11.860   6.246 -0.0873  0.0419 -0.0648
  704POPI   GL210866   6.225  11.620   6.201  0.1595  0.0672  0.1493
  704POPI   C1A10867   5.962  11.686   6.701 -0.0633 -0.0124  0.2607
  704POPI   D2A10868   5.904  11.582   7.117  0.1464 -0.1722 -0.1539
  704POPI   C3A10869   6.145  11.931   7.341 -0.2545  0.3035 -0.1027
  704POPI   C4A10870   6.128  12.264   7.489  0.2060 -0.2700 -0.2674
  704POPI   C1B10871   6.480  11.465   6.526  0.0747  0.3075  0.1900
  704POPI   C2B10872   6.327  11.291   6.887 -0.1694 -0.2940  0.1776
  704POPI   C3B10873   6.204  11.066   7.171  0.3433 -0.1082 -0.0342
  704POPI   C4B10874   5.877  10.879   7.324 -0.1516 -0.0989  0.2056
  705POPI    C110875  14.679   1.436   5.334  0.1229  0.1901 -0.0419
  705POPI    C210876  14.291   1.415   5.238  0.0822  0.0872  0.1422
  705POPI    C310877  14.531   1.103   5.168  0.0561  0.0182  0.3532
  705POPI   PO410878  14.690   1.735   5.262 -0.1250  0.0721  0.1783
  705POPI   GL110879  14.755   2.074   5.636 -0.1435  0.0554 -0.0767
  705POPI   GL210880  15.053   2.140   5.636 -0.0125 -0.4136  0.1395
  705POPI   C1A10881  14.664   1.986   6.029 -0.1875 -0.4272  0.2285
  705POPI   D2A10882  14.654   2.107   6.403  0.0508  0.1590 -0.2769
  705POPI   C3A10883  14.797   1.920   6.821  0.3082  0.0070 -0.0645
  705POPI   C4A10884  14.925   1.546   7.096 -0.1187 -0.2370 -0.1180
  705POPI   C1B10885  14.923   2.376   5.993  0.1545 -0.2840 -0.0693
  705POPI   C2B10886  14.863   2.599   6.402  0.1902  0.0916 -0.0224
  705POPI   C3B10887  14.848   2.479   6.806  0.0170 -0.1060  0.0609
  705POPI   C4B10888  14.956   2.509   7.249  0.0319 -0.1913  0.0945
  706POPI    C110889  10.934   0.402   5.536  0.1295 -0.1532 -0.1296
  706POPI    C210890  10.944   0.714   5.285 -0.1804  0.1430  0.2126
  706POPI    C310891  10.594   0.546   5.381 -0.0272 -0.2321  0.1338
  706POPI   PO410892  11.058   0.480   5.767 -0.1046  0.1451  0.1267
  706POPI   GL110893  11.240   0.559   6.174  0.0781  0.2302 -0.1060
  706POPI   GL210894  11.386   0.776   6.099  0.1729  0.0916  0.0789
  706POPI   C1A10895  11.315   0.200   6.338  0.2730 -0.0433 -0.1038
  706POPI   D2A10896  11.544   0.138   6.708 -0.3658 -0.1681  0.0901
  706POPI   C3A10897  11.531   0.353   7.033 -0.0534  0.0099 -0.3422
  706POPI   C4A10898  11.403   0.562   7.286 -0.0159  0.3366 -0.1043
  706POPI   C1B10899  11.551   1.056   6.316 -0.1561 -0.0444 -0.1275
  706POPI   C2B10900  11.582   1.355   6.607 -0.2244  0.0008  0.1157
  706POPI   C3B10901  11.723   1.601   6.964  0.3614  0.0715  0.0263
  706POPI   C4B10902  11.741   1.914   7.312 -0.1361  0.4057 -0.0639
  707POPI    C110903  17.083  16.454   5.557 -0.2787 -0.2038  0.1106
  707POPI    C210904  16.860  16.674   5.309  0.1317  0.4322  0.2788
  707POPI    C310905  17.126  16.414   5.162 -0.4619 -0.0868  0.0777
  707POPI   PO410906  17.138  16.640   5.796 -0.0517  0.1585 -0.4160
  707POPI   GL110907  16.785  16.683   6.059 -0.1116 -0.0871  0.0099
  707POPI   GL210908  16.725  16.332   6.145 -0.3132 -0.1269  0.0629
  707POPI   C1A10909  17.091  16.506   6.467  0.0999 -0.1830  0.2606
  707POPI   D2A10910  17.301  16.530   6.884 -0.1028  0.1225 -0.1477
  707POPI   C3A10911  17.807  16.621   6.889 -0.0002 -0.0685  0.1070
  707POPI   C4A10912  18.103  16.270   7.082 -0.0622 -0.4565 -0.1180
  707POPI   C1B10913  16.542  16.327   6.538  0.3410  0.0946 -0.0631
  707POPI   C2B10914  16.532  16.458   6.899  0.0220 -0.0273 -0.2408
  707POPI   C3B10915  16.663  16.375   7.305 -0.0797  0.1800 -0.4440
  707POPI   C4B10916  16.828  16.287   7.694  0.1009 -0.0354  0.1595
  708POPI    C110917  12.270  10.786   5.559 -0.2095  0.0849  0.1147
  708POPI    C210918  11.985  11.042   5.675 -0.1540  0.2098 -0.0208
  708POPI    C310919  12.065  10.995   5.286  0.0719  0.2429  0.0200
  708POPI   PO410920  12.232  10.550   5.784  0.2507 -0.4374  0.1146
  708POPI   GL110921  12.176  10.495   6.223 -0.2475 -0.2265 -0.0214
  708POPI   GL210922  12.071  10.869   6.182  0.2731  0.1682 -0.0048
  708POPI   C1A10923  12.154  10.570   6.667  0.0161  0.2485  0.0478
  708POPI   D2A10924  12.332  10.539   7.050  0.0512 -0.0134  0.3128
  708POPI   C3A10925  12.725  10.733   7.042 -0.1261 -0.2733 -0.1931
  708POPI   C4A10926  13.036  11.009   6.738 -0.3670  0.0297  0.1430
  708POPI   C1B10927  12.030  11.020   6.535 -0.2240  0.0683  0.1279
  708POPI   C2B10928  11.976  10.906   6.977  0.1587  0.2631 -0.0481
  708POPI   C3B10929  11.934  10.585   7.319 -0.3581 -0.3286  0.1889
  708POPI   C4B10930  12.025  10.222   7.430 -0.1315  0.0589  0.1214
  709POPI    C110931  11.159  10.764   5.673 -0.0050 -0.1907  0.1560
  709POPI    C210932  11.091  10.904   5.305  0.1434 -0.2619  0.1010
  709POPI    C310933  11.314  10.576   5.356  0.0441 -0.3071  0.2485
  709POPI   PO410934  11.134  11.091   5.798 -0.2099  0.4201 -0.0174
  709POPI   GL110935  11.249  11.049   6.146  0.0206 -0.0622  0.1955
  709POPI   GL210936  11.601  11.119   6.303  0.1464  0.0381  0.3805
  709POPI   C1A10937  11.135  10.684   6.418 -0.0133 -0.1617 -0.1183
  709POPI   D2A10938  11.075  10.755   6.839 -0.5087  0.2339 -0.0560
  709POPI   C3A10939  10.765  10.401   7.005 -0.0166 -0.1804  0.0849
  709POPI   C4A10940  10.909  10.012   7.055 -0.2992 -0.0631  0.4665
  709POPI   C1B10941  11.438  11.074   6.636  0.4247  0.1966 -0.0637
  709POPI   C2B10942  11.498  10.962   7.005 -0.1595 -0.2676 -0.2093
  709POPI   C3B10943  11.474  10.951   7.382 -0.0814  0.1233 -0.2127
  709POPI   C4B10944  11.584  10.741   7.714 -0.0162  0.3145  0.2028
  710POPI    C110945   1.582  15.622   5.328  0.1536 -0.0448  0.2209
  710POPI    C210946   1.246  15.474   5.167  0.0122  0.2513  0.2364
  710POPI    C310947   1.521  15.226   5.320 -0.1107 -0.0036  0.0520
  710POPI   PO410948   1.529  15.743   5.588 -0.1896  0.0069 -0.2366
  710POPI   GL110949   1.693  15.924   5.874 -0.0509  0.3387 -0.1563
  710POPI   GL210950   1.911  16.145   5.859 -0.4246 -0.1967  0.2547
  710POPI   C1A10951   1.856  15.677   6.205  0.0869 -0.1485 -0.2108
  710POPI   D2A10952   2.166  15.620   6.432 -0.1066 -0.1179  0.1569
  710POPI   C3A10953   2.217  15.282   6.703  0.3962  0.0797  0.3217
  710POPI   C4A10954   2.527  15.070   6.870 -0.0908 -0.1019  0.1977
  710POPI   C1B10955   1.727  16.201   6.287  0.1303 -0.1582  0.0967
  710POPI   C2B10956   1.967  16.014   6.605 -0.0121  0.0248 -0.0060
  710POPI   C3B10957   2.034  16.093   6.977 -0.1901  0.0008  0.2866
  710POPI   C4B10958   2.237  16.138   7.461 -0.1383  0.1386  0.1222
  711POPI    C110959  12.497   7.218   5.525 -0.0303  0.1916 -0.0747
  711POPI    C210960  12.578   6.827   5.491  0.0197  0.1937  0.0205
  711POPI    C310961  12.200   6.955   5.472  0.0038  0.1414 -0.0175
  711POPI   PO410962  12.598   7.259   5.800 -0.0900  0.0581 -0.2287
  711POPI   GL110963  12.423   7.430   6.204 -0.1521 -0.0620 -0.0312
  711POPI   GL210964  12.268   7.655   6.243  0.0229 -0.0079 -0.2960
  711POPI   C1A10965  12.679   7.322   6.498  0.1295 -0.1032 -0.1019
  711POPI   D2A10966  13.105   7.388   6.617 -0.1131 -0.1505  0.1175
  711POPI   C3A10967  13.451   7.705   6.625  0.1789 -0.0389  0.0976
  711POPI   C4A10968  13.905   7.654   6.817  0.2633  0.1297  0.1983
  711POPI   C1B10969  12.133   7.563   6.616 -0.1433 -0.2884 -0.4000
  711POPI   C2B10970  12.275   7.143   6.764  0.1369 -0.0001 -0.1531
  711POPI   C3B10971  12.671   6.897   6.879  0.2480  0.2626 -0.0731
  711POPI   C4B10972  12.912   6.985   7.356  0.1859  0.2572  0.0665
  712POPI    C110973   8.840  10.848   5.608  0.0981 -0.0616  0.2728
  712POPI    C210974   9.025  10.713   5.280 -0.2274  0.2882 -0.0653
  712POPI    C310975   8.865  10.454   5.540 -0.0248  0.0084 -0.2132
  712POPI   PO410976   8.947  11.071   5.756 -0.0330 -0.2133 -0.0157
  712POPI   GL110977   9.082  10.998   6.213 -0.0469  0.1705  0.2580
  712POPI   GL210978   9.436  10.946   6.377 -0.1553  0.2459  0.0162
  712POPI   C1A10979   9.112  11.224   6.638  0.4014 -0.3122 -0.0212
  712POPI   D2A10980   9.494  11.269   6.994 -0.1392  0.1127 -0.4505
  712POPI   C3A10981   9.259  11.181   7.357 -0.2197  0.4283  0.1948
  712POPI   C4A10982   8.866  11.211   7.573  0.0908 -0.2991 -0.0895
  712POPI   C1B10983   9.702  10.658   6.676  0.2739  0.2020 -0.0704
  712POPI   C2B10984   9.828  10.400   7.076  0.2884  0.0993  0.0527
  712POPI   C3B10985   9.993  10.205   7.331 -0.1574 -0.3088 -0.1172
  712POPI   C4B10986  10.060   9.929   7.691  0.1798 -0.1005 -0.1263
  713POPI    C110987  18.105   8.121   6.048  0.1543 -0.2204  0.0892
  713POPI    C210988  18.273   8.040   5.694 -0.1664 -0.2777 -0.0533
  713POPI    C310989  17.881   8.121   5.716 -0.0742  0.1234  0.2367
  713POPI   PO410990  18.272   7.895   6.238  0.0989  0.2761  0.1999
  713POPI   GL110991  18.222   7.722   6.659 -0.0504 -0.0815  0.1566
  713POPI   GL210992  17.887   7.876   6.599  0.2520 -0.3081  0.3706
  713POPI   C1A10993  18.446   7.372   6.780  0.2267  0.3284 -0.2956
  713POPI   D2A10994  18.427   7.262   7.139  0.0966  0.1704 -0.0097
  713POPI   C3A10995  18.590   7.507   7.492  0.0289  0.0235 -0.2200
  713POPI   C4A10996  18.531   7.890   7.805 -0.0139  0.0435 -0.2001
  713POPI   C1B10997  17.893   7.804   7.088 -0.1689 -0.1411  0.2759
  713POPI   C2B10998  18.151   7.625   7.351  0.1769 -0.1376  0.0268
  713POPI   C3B10999  18.127   7.305   7.571  0.2123  0.2540 -0.2030
  713POPI   C4B11000  18.103   6.870   7.764 -0.1628 -0.2579  0.0920
  714POPI    C111001  10.478   4.382   5.450  0.1613  0.1224 -0.2686
  714POPI    C211002  10.272   4.699   5.318 -0.1143  0.0359 -0.0552
  714POPI    C311003  10.279   4.361   5.104 -0.0348  0.1010 -0.1560
  714POPI   PO411004  10.459   4.417   5.727 -0.1256 -0.0498 -0.1335
  714POPI   GL111005  10.241   4.700   5.931 -0.0936 -0.2502 -0.0523
  714POPI   GL211006   9.951   4.611   6.088  0.0155 -0.2039 -0.0224
  714POPI   C1A11007  10.393   4.691   6.336 -0.0024  0.1278  0.0813
  714POPI   D2A11008  10.547   4.485   6.724  0.0437  0.1035  0.0741
  714POPI   C3A11009  10.559   4.720   7.243 -0.0619  0.1732  0.1423
  714POPI   C4A11010  10.585   4.719   7.788 -0.1779  0.1616  0.1221
  714POPI   C1B11011  10.056   4.296   6.372 -0.2703  0.1578  0.3276
  714POPI   C2B11012  10.019   4.427   6.816 -0.3927 -0.1750  0.0498
  714POPI   C3B11013   9.703   4.394   7.148 -0.2240  0.3027 -0.1614
  714POPI   C4B11014   9.510   4.078   7.438 -0.2466 -0.2463  0.2458
  715POPI    C111015   7.216   3.972   5.523  0.1162 -0.1274  0.0030
  715POPI    C211016   6.843   4.017   5.386  0.1544  0.1585 -0.0139
  715POPI    C311017   7.155   4.079   5.143  0.2182  0.3919  0.1250
  715POPI   PO411018   7.200   3.838   5.791  0.0678 -0.1868  0.2336
  715POPI   GL111019   6.750   3.606   5.961  0.3804  0.1922  0.0013
  715POPI   GL211020   6.654   3.918   5.909  0.1000  0.2407 -0.4864
  715POPI   C1A11021   6.926   3.355   6.370 -0.0003  0.3789 -0.0172
  715POPI   D2A11022   6.978   3.442   6.862  0.0155 -0.0431 -0.0191
  715POPI   C3A11023   6.612   3.387   7.280 -0.0005  0.1059  0.0565
  715POPI   C4A11024   6.303   3.584   7.494  0.1647 -0.1306 -0.5052
  715POPI   C1B11025   6.424   3.785   6.291 -0.1600 -0.1975 -0.2970
  715POPI   C2B11026   6.109   3.642   6.588 -0.2661 -0.5713 -0.4177
  715POPI   C3B11027   5.972   3.195   6.583  0.3457  0.3308 -0.2382
  715POPI   C4B11028   6.089   2.959   6.190 -0.0415 -0.2655  0.1650
  716POPI    C111029  16.894  11.467   5.780  0.2180  0.0780 -0.0003
  716POPI    C211030  16.706  11.132   5.669 -0.0413  0.2129  0.0249
  716POPI    C311031  17.105  11.147   5.664 -0.0256 -0.1110  0.0682
  716POPI   PO411032  16.728  11.527   6.086  0.3973  0.0706  0.0021
  716POPI   GL111033  16.847  11.591   6.475  0.2725  0.2735  0.1731
  716POPI   GL211034  16.484  11.687   6.475 -0.1099  0.1230  0.0043
  716POPI   C1A11035  16.967  11.379   6.917  0.0587 -0.0805  0.0994
  716POPI   D2A11036  16.941  11.342   7.415  0.1184  0.1028  0.2133
  716POPI   C3A11037  17.249  11.665   7.646 -0.0401  0.0403  0.2993
  716POPI   C4A11038  17.465  12.034   7.648  0.2151  0.1751  0.0104
  716POPI   C1B11039  15.972  11.609   6.338 -0.0885  0.1998  0.0953
  716POPI   C2B11040  15.533  11.694   6.451  0.1979  0.0537 -0.0927
  716POPI   C3B11041  15.508  11.580   6.898 -0.2228  0.2797 -0.1012
  716POPI   C4B11042  15.421  11.425   7.261 -0.1430 -0.1023  0.0282
  717POPI    C111043   2.288   3.913   5.889 -0.1679  0.0648  0.1814
  717POPI    C211044   2.138   3.694   6.188  0.1750 -0.0920  0.2440
  717POPI    C311045   2.008   3.638   5.814 -0.1246 -0.0231  0.3354
  717POPI   PO411046   2.312   4.147   6.028  0.0806 -0.2232  0.2235
  717POPI   GL111047   2.081   4.147   6.381  0.4135 -0.6181  0.1923
  717POPI   GL211048   1.992   4.438   6.238  0.0672  0.0441  0.0683
  717POPI   C1A11049   1.868   3.910   6.513  0.1247  0.2743 -0.2239
  717POPI   D2A11050   1.906   3.432   6.661  0.1322 -0.2164  0.1399
  717POPI   C3A11051   1.742   3.150   6.908 -0.4085 -0.0095  0.1255
  717POPI   C4A11052   1.901   2.834   7.109  0.1084 -0.1568  0.0552
  717POPI   C1B11053   1.923   4.693   6.603  0.1313  0.1214  0.2257
  717POPI   C2B11054   1.896   4.983   6.966  0.2129 -0.1494 -0.2087
  717POPI   C3B11055   1.829   5.128   7.353  0.0741  0.1980 -0.2539
  717POPI   C4B11056   1.684   5.373   7.637  0.2294 -0.1878 -0.0419
  718POPI    C111057  14.536  11.946   5.554 -0.0928 -0.1906  0.0236
  718POPI    C211058  14.343  12.160   5.277  0.2962  0.0502 -0.0690
  718POPI    C311059  14.503  11.807   5.180 -0.2342 -0.2347  0.0517
  718POPI   PO411060  14.346  12.143   5.858  0.1132  0.2482  0.0615
  718POPI   GL111061  14.201  12.262   6.242  0.0526 -0.0620  0.3217
  718POPI   GL211062  14.158  11.924   6.296  0.2592  0.1064  0.1598
  718POPI   C1A11063  14.007  12.393   6.683  0.1128  0.1046  0.2055
  718POPI   D2A11064  13.770  12.534   7.077 -0.0105 -0.1385  0.0020
  718POPI   C3A11065  13.644  13.025   7.092  0.2717  0.1463 -0.0021
  718POPI   C4A11066  13.367  13.350   7.411 -0.0002 -0.0610  0.3020
  718POPI   C1B11067  13.688  11.976   6.456 -0.2648 -0.0689 -0.0793
  718POPI   C2B11068  13.451  12.298   6.766  0.2218 -0.3621  0.1273
  718POPI   C3B11069  13.287  12.612   7.158  0.0154  0.0989 -0.1322
  718POPI   C4B11070  13.132  13.025   7.105 -0.2296  0.4079  0.2767
  719POPI    C111071   3.188   8.061   5.795 -0.0335 -0.1069 -0.1005
  719POPI    C211072   3.564   7.953   5.711  0.0130 -0.1526  0.1555
  719POPI    C311073   3.293   7.983   5.418  0.3009  0.2255 -0.0820
  719POPI   PO411074   3.136   7.879   6.033 -0.0818  0.4585  0.2559
  719POPI   GL111075   3.321   7.888   6.351 -0.0314  0.0812  0.0484
  719POPI   GL211076   3.501   8.144   6.323  0.0619  0.2236  0.1281
  719POPI   C1A11077   3.377   8.197   6.815  0.0594  0.0346 -0.1358
  719POPI   D2A11078   3.347   8.568   7.132 -0.0042  0.3096  0.1792
  719POPI   C3A11079   3.457   8.568   7.537 -0.1649 -0.1472  0.1742
  719POPI   C4A11080   3.596   8.570   8.008  0.0685 -0.0125  0.0834
  719POPI   C1B11081   3.809   7.925   6.595 -0.2036 -0.0131 -0.0582
  719POPI   C2B11082   3.960   7.741   7.067  0.2375  0.1910 -0.1784
  719POPI   C3B11083   4.241   7.921   7.414 -0.2570  0.1866 -0.0237
  719POPI   C4B11084   4.491   8.070   7.777 -0.1117 -0.0027  0.0169
  720POPI    C111085   8.241  15.114   5.370  0.1503 -0.2604  0.0375
  720POPI    C211086   8.229  15.326   5.031 -0.2192  0.0559  0.2392
  720POPI    C311087   8.095  14.949   5.036 -0.3409  0.0956  0.0652
  720POPI   PO411088   8.467  15.140   5.482 -0.1865 -0.5322 -0.1365
  720POPI   GL111089   8.577  15.255   5.942  0.0743 -0.1221  0.1574
  720POPI   GL211090   8.493  15.017   6.197  0.0013  0.0783 -0.3697
  720POPI   C1A11091   8.591  15.541   6.259 -0.3233 -0.0572 -0.0478
  720POPI   D2A11092   8.308  15.910   6.380  0.1793 -0.1698  0.3746
  720POPI   C3A11093   8.241  15.992   6.803 -0.0418  0.1038  0.2091
  720POPI   C4A11094   8.291  16.381   7.132  0.1772  0.1236 -0.4064
  720POPI   C1B11095   8.729  15.007   6.541 -0.2698  0.4513 -0.2411
  720POPI   C2B11096   8.616  14.980   6.907 -0.1543  0.1087  0.3394
  720POPI   C3B11097   8.863  15.064   7.346  0.2995  0.0203 -0.3618
  720POPI   C4B11098   8.795  15.467   7.609  0.1052 -0.1158  0.1025
  721POPI    C111099  18.391   0.302   5.519 -0.2155 -0.1106  0.0749
  721POPI    C211100  18.602   0.378   5.189 -0.1534 -0.0000  0.1398
  721POPI    C311101  18.244   0.204   5.160 -0.1470  0.0064  0.0143
  721POPI   PO411102  18.520   0.521   5.666  0.1410  0.1310  0.2296
  721POPI   GL111103  18.564   0.432   6.085  0.1198  0.0388 -0.1024
  721POPI   GL211104  18.349   0.741   6.147  0.0464 -0.1106  0.0446
  721POPI   C1A11105  19.040   0.447   6.198  0.0627  0.1394  0.0229
  721POPI   D2A11106  19.434   0.196   6.252 -0.1826 -0.0108  0.0379
  721POPI   C3A11107  19.622   0.417   6.522 -0.0471  0.3094 -0.1188
  721POPI   C4A11108  19.790   0.331   6.988  0.1593  0.0522 -0.0644
  721POPI   C1B11109  18.210   0.773   6.610 -0.0828 -0.1160  0.0878
  721POPI   C2B11110  18.111   0.900   6.992 -0.3066  0.0702  0.2117
  721POPI   C3B11111  17.812   0.972   7.372  0.1223  0.0476  0.0308
  721POPI   C4B11112  17.660   0.997   7.712  0.1484  0.0010  0.0637
  722POPI    C111113   2.458  10.611   5.749 -0.0686  0.0199  0.0635
  722POPI    C211114   2.510  10.548   5.357  0.0154  0.0062  0.0767
  722POPI    C311115   2.178  10.728   5.488  0.0567  0.1504 -0.0145
  722POPI   PO411116   2.706  10.330   5.832  0.1782 -0.0343  0.1708
  722POPI   GL111117   2.861  10.137   6.213  0.0893 -0.0754  0.0019
  722POPI   GL211118   3.010  10.018   6.399  0.1609 -0.1664  0.1430
  722POPI   C1A11119   3.035  10.532   6.400 -0.0371  0.3270 -0.0150
  722POPI   D2A11120   3.018  11.003   6.449 -0.4252  0.0761  0.1515
  722POPI   C3A11121   3.138  11.213   6.795  0.1998 -0.2551 -0.2129
  722POPI   C4A11122   3.047  11.528   7.029  0.2922 -0.1385  0.0607
  722POPI   C1B11123   3.137  10.199   6.801  0.2221 -0.0800 -0.0214
  722POPI   C2B11124   3.332  10.371   7.265  0.2700 -0.0739  0.1682
  722POPI   C3B11125   3.516  10.624   7.518 -0.0903  0.0139 -0.0351
  722POPI   C4B11126   3.815  10.748   7.653 -0.0138 -0.0073 -0.0391
  723POPI    C111127   2.418  13.417   5.339 -0.0378 -0.1043  0.1175
  723POPI    C211128   2.701  13.135   5.330  0.0039 -0.0576 -0.0797
  723POPI    C311129   2.706  13.432   5.062 -0.0936  0.0785  0.0677
  723POPI   PO411130   2.391  13.494   5.560  0.0988 -0.1596 -0.0078
  723POPI   GL111131   2.509  13.496   6.030 -0.0939 -0.1619  0.0412
  723POPI   GL211132   2.727  13.784   6.003 -0.0925 -0.3380 -0.0091
  723POPI   C1A11133   2.214  13.584   6.315 -0.0942  0.0417 -0.0360
  723POPI   D2A11134   1.908  13.563   6.609 -0.2264  0.7372 -0.1948
  723POPI   C3A11135   2.108  13.219   6.826  0.0080  0.2351 -0.1938
  723POPI   C4A11136   2.322  13.162   7.232 -0.1824  0.0896  0.2575
  723POPI   C1B11137   2.764  13.812   6.462  0.1729 -0.0159 -0.0735
  723POPI   C2B11138   2.832  13.856   6.896 -0.0202  0.1668  0.0659
  723POPI   C3B11139   2.870  13.963   7.436 -0.1015 -0.0953 -0.1967
  723POPI   C4B11140   2.579  13.858   7.743 -0.2453  0.0498  0.0658
  724POPI    C111141   1.246   6.997   5.538  0.0032  0.0599 -0.0899
  724POPI    C211142   1.457   7.297   5.378 -0.0073  0.1756  0.1103
  724POPI    C311143   1.180   7.109   5.160  0.2188  0.1008 -0.1167
  724POPI   PO411144   1.376   7.001   5.802  0.1416  0.3344 -0.0108
  724POPI   GL111145   1.551   7.036   6.257 -0.3354 -0.1230  0.3890
  724POPI   GL211146   1.926   7.017   6.102  0.1077  0.0877  0.3261
  724POPI   C1A11147   1.481   6.956   6.659  0.1259  0.0663  0.3414
  724POPI   D2A11148   1.580   7.066   7.026 -0.1890  0.2203  0.1969
  724POPI   C3A11149   1.294   6.875   7.319 -0.0061  0.0289 -0.2729
  724POPI   C4A11150   1.472   6.849   7.631 -0.1867  0.0818 -0.0389
  724POPI   C1B11151   1.974   7.184   6.638 -0.0566 -0.1254  0.1077
  724POPI   C2B11152   2.123   7.077   7.074  0.1662  0.2646 -0.2318
  724POPI   C3B11153   2.079   7.150   7.519 -0.1160  0.0648  0.0594
  724POPI   C4B11154   2.388   7.173   7.885 -0.1879  0.1126 -0.0492
  725POPI    C111155   1.784   3.153   5.612 -0.2829  0.0796  0.0371
  725POPI    C211156   1.958   2.832   5.776 -0.0559  0.1792 -0.0041
  725POPI    C311157   1.743   2.794   5.440  0.0338  0.0824 -0.0513
  725POPI   PO411158   1.685   3.264   5.916 -0.1996  0.4207  0.0587
  725POPI   GL111159   1.684   3.102   6.341 -0.0366  0.0763 -0.0972
  725POPI   GL211160   1.314   3.074   6.333  0.0042  0.1140 -0.1775
  725POPI   C1A11161   1.590   2.778   6.664  0.0143 -0.3386  0.0622
  725POPI   D2A11162   1.449   2.541   6.970  0.1042  0.1119  0.5778
  725POPI   C3A11163   1.365   2.370   7.393  0.2429  0.1050 -0.1702
  725POPI   C4A11164   1.561   2.080   7.538  0.2440 -0.0273 -0.0093
  725POPI   C1B11165   1.265   3.224   6.755 -0.2025  0.1489 -0.0408
  725POPI   C2B11166   1.177   3.414   7.135 -0.1852 -0.0501 -0.2601
  725POPI   C3B11167   0.925   3.226   7.575  0.3648 -0.0737  0.0385
  725POPI   C4B11168   0.820   2.985   7.901  0.1543  0.0994  0.0300
  726POPI    C111169  13.520   8.074   5.312  0.0388  0.0269 -0.0483
  726POPI    C211170  13.661   7.736   5.473 -0.1270 -0.1028 -0.1707
  726POPI    C311171  13.688   7.796   5.079 -0.1134  0.0202 -0.1515
  726POPI   PO411172  13.446   8.193   5.582 -0.1210  0.0299  0.1124
  726POPI   GL111173  13.155   8.174   6.009  0.1160 -0.3925 -0.1873
  726POPI   GL211174  13.357   7.967   6.142  0.0672  0.1666 -0.1060
  726POPI   C1A11175  13.215   8.294   6.473  0.3830  0.0786  0.1058
  726POPI   D2A11176  13.268   8.253   6.897 -0.0405 -0.2519  0.2744
  726POPI   C3A11177  13.043   8.293   7.203 -0.1170  0.2049  0.1968
  726POPI   C4A11178  13.090   8.130   7.685 -0.0512  0.1306 -0.1722
  726POPI   C1B11179  13.036   7.813   6.377 -0.0063 -0.2157 -0.1196
  726POPI   C2B11180  13.008   7.841   6.785 -0.2925 -0.0913 -0.1471
  726POPI   C3B11181  13.353   7.845   7.108 -0.2628  0.0218  0.1570
  726POPI   C4B11182  13.471   8.074   7.390 -0.2531 -0.1380 -0.0976
  727POPI    C111183   5.681  11.585   5.551 -0.2348  0.1685  0.0287
  727POPI    C211184   5.567  11.380   5.227 -0.0544  0.0463  0.0413
  727POPI    C311185   5.808  11.697   5.189  0.1322 -0.0904  0.0723
  727POPI   PO411186   5.755  11.433   5.710  0.2286 -0.0846 -0.0743
  727POPI   GL111187   5.861  11.271   6.077 -0.0288 -0.1170  0.2317
  727POPI   GL211188   5.649  11.471   6.217 -0.0634 -0.1494  0.0703
  727POPI   C1A11189   5.964  11.197   6.485 -0.0164  0.0762  0.3963
  727POPI   D2A11190   5.812  11.209   6.868 -0.3016  0.1365 -0.0240
  727POPI   C3A11191   5.300  11.054   6.870  0.2384 -0.0682  0.0134
  727POPI   C4A11192   4.977  11.163   7.036  0.0863  0.0524  0.0554
  727POPI   C1B11193   5.506  11.513   6.549 -0.0915  0.0320  0.0870
  727POPI   C2B11194   5.453  11.582   6.980 -0.2193 -0.0212 -0.0731
  727POPI   C3B11195   5.488  11.262   7.265 -0.2503 -0.1565 -0.2339
  727POPI   C4B11196   5.249  11.328   7.722 -0.2794  0.2373 -0.0268
  728POPI    C111197  11.594   8.822   5.681 -0.1166 -0.0233 -0.0557
  728POPI    C211198  11.361   9.050   5.449  0.0556  0.3348  0.1154
  728POPI    C311199  11.725   8.942   5.323 -0.1892 -0.2199 -0.1494
  728POPI   PO411200  11.432   8.875   5.926  0.0225  0.1443  0.2583
  728POPI   GL111201  11.365   8.846   6.330  0.3327  0.2475  0.0906
  728POPI   GL211202  11.137   8.613   6.410  0.2262 -0.0448  0.1143
  728POPI   C1A11203  11.396   9.214   6.517 -0.1157 -0.0606 -0.1246
  728POPI   D2A11204  11.603   9.551   6.670 -0.1358 -0.0971  0.1385
  728POPI   C3A11205  11.391   9.964   6.675  0.1947 -0.3839 -0.1908
  728POPI   C4A11206  11.077  10.229   6.591  0.0799  0.1865  0.0109
  728POPI   C1B11207  11.145   8.413   6.791  0.1515 -0.1046 -0.1677
  728POPI   C2B11208  11.046   8.260   7.176  0.0030  0.0191 -0.0735
  728POPI   C3B11209  11.093   7.885   7.367  0.5549 -0.2375  0.1534
  728POPI   C4B11210  11.119   7.619   7.680  0.3168 -0.0349 -0.1656
  729POPI    C111211  10.476  11.531   5.566  0.0178  0.0373 -0.0284
  729POPI    C211212  10.361  11.186   5.398  0.0018  0.0751 -0.0957
  729POPI    C311213  10.737  11.316   5.353  0.0007  0.0795 -0.0922
  729POPI   PO411214  10.244  11.551   5.794  0.0337 -0.0365 -0.1752
  729POPI   GL111215  10.404  11.424   6.246  0.3228  0.0233 -0.0644
  729POPI   GL211216  10.478  11.773   6.212 -0.0478  0.1717 -0.0498
  729POPI   C1A11217  10.454  11.489   6.671 -0.1133  0.2189 -0.1222
  729POPI   D2A11218  10.459  11.188   6.931 -0.0923  0.1794  0.1427
  729POPI   C3A11219  10.719  10.962   7.084  0.0287 -0.1364 -0.3076
  729POPI   C4A11220  11.012  10.694   7.365  0.2435  0.2293  0.4464
  729POPI   C1B11221  10.768  11.860   6.549  0.1119 -0.0832 -0.2207
  729POPI   C2B11222  10.731  11.734   6.957  0.2722  0.0197  0.2144
  729POPI   C3B11223  10.632  11.470   7.315  0.2160  0.1229  0.2310
  729POPI   C4B11224  10.620  11.622   7.767  0.4067  0.2955 -0.2350
  730POPI    C111225   4.293   5.542   5.779 -0.3043  0.0156  0.0955
  730POPI    C211226   4.188   5.899   5.631  0.0373  0.0759 -0.0112
  730POPI    C311227   3.935   5.697   5.866 -0.3668  0.1489 -0.3706
  730POPI   PO411228   4.546   5.521   5.898 -0.0130  0.1120  0.2014
  730POPI   GL111229   4.560   5.334   6.367  0.2227 -0.0595  0.0833
  730POPI   GL211230   4.641   5.503   6.641  0.1445 -0.0775 -0.1109
  730POPI   C1A11231   4.407   5.026   6.665 -0.4304 -0.0130  0.1181
  730POPI   D2A11232   3.983   4.882   6.720  0.1907 -0.0946  0.1370
  730POPI   C3A11233   3.927   4.797   7.083  0.1689  0.1754  0.2723
  730POPI   C4A11234   3.596   4.705   7.408 -0.1370 -0.0098 -0.0129
  730POPI   C1B11235   4.557   5.377   7.034 -0.5518  0.2455  0.3145
  730POPI   C2B11236   4.157   5.175   7.328  0.0318  0.1630  0.0425
  730POPI   C3B11237   3.906   5.099   7.618 -0.1330 -0.2145 -0.1498
  730POPI   C4B11238   3.508   5.105   7.866  0.0051 -0.3266  0.5503
  731POPI    C111239   2.512   2.971   5.582  0.2092 -0.1370 -0.0919
  731POPI    C211240   2.288   3.302   5.589 -0.1437 -0.3664 -0.1991
  731POPI    C311241   2.655   3.312   5.430 -0.1460 -0.0272 -0.1915
  731POPI   PO411242   2.499   2.856   5.878 -0.1620  0.1157  0.5713
  731POPI   GL111243   2.517   2.837   6.304  0.0584  0.0320 -0.0311
  731POPI   GL211244   2.554   3.254   6.417 -0.2695  0.0279 -0.2994
  731POPI   C1A11245   2.576   2.801   6.748  0.0914  0.2537 -0.1208
  731POPI   D2A11246   2.388   2.536   7.027  0.1708  0.1579 -0.1226
  731POPI   C3A11247   2.339   2.859   7.430  0.1146 -0.2496 -0.0070
  731POPI   C4A11248   2.626   3.115   7.742 -0.0526  0.0244 -0.3816
  731POPI   C1B11249   2.867   3.467   6.672  0.0286 -0.0726 -0.2032
  731POPI   C2B11250   2.857   3.707   7.017 -0.0081 -0.0807  0.1272
  731POPI   C3B11251   2.887   3.616   7.454 -0.2190 -0.2890 -0.4737
  731POPI   C4B11252   2.781   3.649   7.832  0.0390  0.2435 -0.0250
  732POPI    C111253   0.191  17.409   5.912 -0.1187  0.1722  0.1656
  732POPI    C211254   0.229  17.482   5.521 -0.0427  0.1380  0.1664
  732POPI    C311255   0.055  17.145   5.645  0.3364 -0.0662  0.1594
  732POPI   PO411256   0.078  17.641   5.996 -0.0191 -0.0247  0.2104
  732POPI   GL111257   0.110  18.028   6.208 -0.0092 -0.3116  0.0359
  732POPI   GL211258   0.035  17.876   6.527 -0.0785 -0.1888 -0.2411
  732POPI   C1A11259  -0.191  18.314   6.515 -0.3138 -0.0208 -0.1493
  732POPI   D2A11260  -0.417  18.546   6.821 -0.2843 -0.1137  0.0775
  732POPI   C3A11261  -0.496  18.292   7.224  0.0322  0.1619 -0.0028
  732POPI   C4A11262  -0.636  18.517   7.555  0.1470 -0.1237 -0.1419
  732POPI   C1B11263   0.135  17.695   6.952  0.0049  0.2665  0.0284
  732POPI   C2B11264   0.358  17.448   7.116  0.1269 -0.1545 -0.3148
  732POPI   C3B11265   0.653  17.293   7.404  0.1156 -0.0842 -0.0416
  732POPI   C4B11266   0.948  17.358   7.666 -0.0460  0.2178  0.1770
  733POPI    C111267   6.835  11.270   5.813 -0.0675  0.3335 -0.1545
  733POPI    C211268   6.822  10.933   5.598 -0.2584  0.2349  0.0080
  733POPI    C311269   7.169  11.058   5.754 -0.1843  0.1219 -0.0651
  733POPI   PO411270   6.588  11.264   5.919 -0.3330 -0.2996 -0.0272
  733POPI   GL111271   6.372  10.970   6.267 -0.1633  0.3268 -0.1125
  733POPI   GL211272   6.345  10.733   6.077 -0.1108 -0.1181 -0.0104
  733POPI   C1A11273   6.227  10.796   6.728 -0.0476  0.2361 -0.1090
  733POPI   D2A11274   6.068  10.536   7.059  0.2735 -0.0075 -0.1155
  733POPI   C3A11275   6.171  10.091   7.219 -0.2024  0.1378  0.2445
  733POPI   C4A11276   6.267   9.867   7.536 -0.1077  0.3237  0.0072
  733POPI   C1B11277   6.158  10.510   6.339 -0.1263 -0.1849 -0.2816
  733POPI   C2B11278   5.920  10.270   6.697  0.1659 -0.2505 -0.3052
  733POPI   C3B11279   5.678  10.130   7.028  0.4097 -0.1481 -0.0787
  733POPI   C4B11280   5.537   9.935   7.487  0.0928 -0.3512 -0.1866
  734POPI    C111281   9.988   3.905   5.245  0.2714  0.2538  0.2323
  734POPI    C211282   9.724   3.898   5.545  0.0865  0.1056  0.0693
  734POPI    C311283   9.657   4.130   5.226  0.1943  0.1285  0.0631
  734POPI   PO411284  10.191   3.962   5.413 -0.0200  0.1945  0.3479
  734POPI   GL111285  10.285   3.929   5.843 -0.1377 -0.1794 -0.3117
  734POPI   GL211286  10.623   3.917   5.956 -0.1657  0.3313  0.3353
  734POPI   C1A11287  10.301   3.880   6.338  0.2541 -0.0021  0.3998
  734POPI   D2A11288  10.582   3.906   6.795  0.0156  0.0087 -0.0286
  734POPI   C3A11289  10.363   4.131   7.135  0.2799  0.0073  0.0100
  734POPI   C4A11290  10.208   4.337   7.425 -0.1005  0.0609  0.0062
  734POPI   C1B11291  10.888   3.929   6.246  0.2164 -0.0448 -0.4398
  734POPI   C2B11292  10.914   4.292   6.549  0.1414  0.2360  0.2443
  734POPI   C3B11293  10.877   4.334   7.082  0.3258 -0.0030 -0.0463
  734POPI   C4B11294  10.721   4.293   7.486 -0.1867  0.2647 -0.1055
  735POPI    C111295  15.178   6.556   5.863  0.1789  0.0040 -0.0250
  735POPI    C211296  15.319   6.748   5.541  0.2418  0.3655  0.2123
  735POPI    C311297  14.948   6.822   5.672  0.0643 -0.0852 -0.0125
  735POPI   PO411298  15.405   6.270   5.954 -0.0317  0.2679  0.2294
  735POPI   GL111299  15.385   5.973   6.277 -0.4597 -0.1754 -0.2838
  735POPI   GL211300  15.191   5.707   6.109  0.0891  0.2689 -0.3401
  735POPI   C1A11301  15.455   6.081   6.641  0.4232 -0.2078 -0.0233
  735POPI   D2A11302  15.327   6.123   6.947  0.0398 -0.0952 -0.0063
  735POPI   C3A11303  14.849   6.126   6.965 -0.0388 -0.2834  0.0733
  735POPI   C4A11304  14.506   6.054   6.801 -0.3004 -0.2178 -0.1289
  735POPI   C1B11305  14.837   5.495   6.209 -0.0866  0.0126 -0.2372
  735POPI   C2B11306  14.694   5.062   6.521  0.4418  0.0064  0.4591
  735POPI   C3B11307  14.822   5.074   6.948 -0.0243  0.0573 -0.3240
  735POPI   C4B11308  14.819   5.143   7.441 -0.0702 -0.1499  0.1099
  736POPI    C111309   2.234  14.427   5.582 -0.3589 -0.1683  0.0321
  736POPI    C211310   1.970  14.429   5.282 -0.0020  0.3465 -0.2953
  736POPI    C311311   2.355  14.349   5.209  0.0327  0.1375  0.0886
  736POPI   PO411312   2.137  14.310   5.796 -0.0125  0.1432  0.0228
  736POPI   GL111313   2.188  14.142   6.221 -0.1268 -0.0771  0.2322
  736POPI   GL211314   2.454  14.354   6.298 -0.1894  0.0941 -0.0085
  736POPI   C1A11315   2.068  14.163   6.617 -0.1242  0.3549  0.3404
  736POPI   D2A11316   2.196  13.922   6.838 -0.1390  0.1077 -0.2477
  736POPI   C3A11317   2.463  13.559   6.763  0.1522  0.1710 -0.1980
  736POPI   C4A11318   2.509  13.159   6.433 -0.0105  0.0656  0.1889
  736POPI   C1B11319   2.546  14.355   6.714  0.0666  0.1376  0.0296
  736POPI   C2B11320   2.502  14.158   7.154  0.2393 -0.1714 -0.5011
  736POPI   C3B11321   2.259  14.056   7.435 -0.2433 -0.2028 -0.0934
  736POPI   C4B11322   1.982  14.141   7.934  0.4270  0.0175 -0.0235
  737POPS   CNO11323  13.117   3.590   5.345 -0.4296 -0.0531 -0.1545
  737POPS   PO411324  12.798   3.938   5.441  0.3067  0.1722 -0.2207
  737POPS   GL111325  13.037   3.789   5.829  0.2035 -0.0690  0.1583
  737POPS   GL211326  13.071   3.395   5.880 -0.0918  0.1330  0.2114
  737POPS   C1A11327  12.961   3.678   6.249  0.0316  0.0002  0.1041
  737POPS   D2A11328  12.842   3.936   6.594 -0.0087  0.0924  0.0952
  737POPS   C3A11329  12.438   4.019   6.728  0.1679 -0.0117 -0.0143
  737POPS   C4A11330  12.011   3.789   6.968  0.1871  0.0879  0.2192
  737POPS   C1B11331  13.430   3.419   6.173 -0.3338  0.3178 -0.2935
  737POPS   C2B11332  13.526   3.473   6.573 -0.2851 -0.0422 -0.1753
  737POPS   C3B11333  13.722   3.322   6.918 -0.3015 -0.2237 -0.0983
  737POPS   C4B11334  14.035   3.591   6.997 -0.2387 -0.0290 -0.1720
  738POPS   CNO11335  15.707   5.908   5.809 -0.1653  0.0292  0.0427
  738POPS   PO411336  15.918   5.502   5.628  0.0103  0.4391 -0.1790
  738POPS   GL111337  16.025   5.324   6.017  0.0053  0.0165 -0.1811
  738POPS   GL211338  16.148   5.390   6.431  0.2500 -0.0210  0.0310
  738POPS   C1A11339  15.760   5.601   6.325 -0.1632 -0.0899 -0.0653
  738POPS   D2A11340  15.544   5.555   6.618 -0.0486 -0.0495 -0.3122
  738POPS   C3A11341  15.299   5.534   7.066  0.3068 -0.1549  0.1003
  738POPS   C4A11342  15.614   5.532   7.406 -0.2608 -0.0327 -0.0082
  738POPS   C1B11343  15.965   5.071   6.411 -0.1440 -0.1093 -0.1270
  738POPS   C2B11344  15.702   4.803   6.508 -0.2766 -0.0227  0.2979
  738POPS   C3B11345  15.483   4.365   6.589  0.1210  0.0370  0.0196
  738POPS   C4B11346  15.531   4.122   6.958  0.1735 -0.1541  0.3006
  739POPS   CNO11347   8.766  13.935   5.454 -0.0919 -0.1402 -0.0434
  739POPS   PO411348   8.781  13.704   5.841 -0.2603  0.0005 -0.3403
  739POPS   GL111349   8.979  13.835   6.193  0.0601 -0.0985  0.2838
  739POPS   GL211350   8.729  14.035   6.315  0.4281 -0.0073  0.0400
  739POPS   C1A11351   9.178  13.841   6.630  0.2531 -0.0604 -0.1191
  739POPS   D2A11352   9.494  13.946   6.852 -0.4118  0.0658 -0.1956
  739POPS   C3A11353   9.477  14.149   7.269  0.0009  0.0081 -0.0806
  739POPS   C4A11354   9.374  14.337   7.674  0.1079 -0.1322 -0.0469
  739POPS   C1B11355   8.655  13.929   6.665  0.0497  0.1094  0.0946
  739POPS   C2B11356   8.734  13.967   7.055  0.0860 -0.0082 -0.4285
  739POPS   C3B11357   8.474  14.107   7.391 -0.0877  0.1293 -0.2467
  739POPS   C4B11358   8.245  14.499   7.589  0.2856 -0.3801  0.3524
  740POPS   CNO11359  11.676  11.345   5.883  0.2916 -0.1851  0.1216
  740POPS   PO411360  12.190  11.544   5.931  0.0836  0.1283  0.0485
  740POPS   GL111361  11.946  11.637   6.243 -0.0288 -0.0349 -0.0880
  740POPS   GL211362  11.573  11.689   6.266  0.0888  0.1692 -0.3176
  740POPS   C1A11363  11.825  11.495   6.718 -0.1104 -0.2494 -0.1066
  740POPS   D2A11364  11.836  11.403   7.096  0.2301 -0.3211 -0.1179
  740POPS   C3A11365  11.540  11.436   7.418  0.0830  0.1388  0.0156
  740POPS   C4A11366  11.137  11.468   7.667  0.3740 -0.1993 -0.2389
  740POPS   C1B11367  11.250  11.533   6.598 -0.4577 -0.1128 -0.0776
  740POPS   C2B11368  10.986  11.324   6.773 -0.0698  0.3350 -0.0528
  740POPS   C3B11369  10.754  11.003   6.575 -0.1803  0.0305 -0.0153
  740POPS   C4B11370  10.666  10.527   6.495  0.1646  0.0327  0.0942
  741POPS   CNO11371  12.002   9.528   6.199 -0.4686 -0.1488  0.1416
  741POPS   PO411372  12.357   9.642   5.903 -0.0713  0.0626  0.4096
  741POPS   GL111373  12.559   9.573   6.276 -0.0275  0.2158  0.0959
  741POPS   GL211374  12.443   9.211   6.460  0.2856 -0.0145  0.1347
  741POPS   C1A11375  12.700   9.724   6.592 -0.1774 -0.2960 -0.2153
  741POPS   D2A11376  13.000   9.650   6.952 -0.0593  0.0739  0.2469
  741POPS   C3A11377  13.160  10.017   7.144  0.0093  0.0328  0.0029
  741POPS   C4A11378  13.314  10.164   7.469  0.2385  0.0078 -0.4504
  741POPS   C1B11379  12.506   9.355   6.886  0.0153 -0.1692 -0.0455
  741POPS   C2B11380  12.666   9.358   7.231 -0.0586 -0.0631 -0.1726
  741POPS   C3B11381  12.825   9.104   7.504 -0.0673  0.1639 -0.2637
  741POPS   C4B11382  12.835   8.635   7.698 -0.4021  0.3306 -0.3375
  742POPS   CNO11383   3.557  16.472   5.057 -0.1770 -0.0452 -0.0664
  742POPS   PO411384   3.656  16.507   5.559 -0.1308  0.1819 -0.0239
  742POPS   GL111385   3.881  16.504   6.070  0.1416  0.2706 -0.0045
  742POPS   GL211386   3.662  16.547   6.314  0.1467  0.2059 -0.1413
  742POPS   C1A11387   4.115  16.183   6.341  0.3578  0.0618 -0.1677
  742POPS   D2A11388   4.132  16.036   6.823 -0.4682  0.0738  0.0781
  742POPS   C3A11389   4.239  16.018   7.304  0.0267 -0.1670 -0.2909
  742POPS   C4A11390   4.609  15.815   7.460  0.0652 -0.0687  0.1492
  742POPS   C1B11391   3.868  16.442   6.685 -0.0252 -0.1390  0.3045
  742POPS   C2B11392   3.894  16.382   7.190  0.0451  0.3261  0.0151
  742POPS   C3B11393   3.991  16.438   7.609  0.2030  0.4870  0.1083
  742POPS   C4B11394   4.098  16.632   7.934  0.0050  0.0693  0.0561
  743POPS   CNO11395   9.342  17.168   5.707 -0.0220 -0.0471 -0.1886
  743POPS   PO411396   9.761  17.377   5.642 -0.1848 -0.0731 -0.0345
  743POPS   GL111397   9.678  17.248   6.053  0.0426  0.2913 -0.0869
  743POPS   GL211398   9.927  17.231   6.125 -0.1232  0.0706 -0.1464
  743POPS   C1A11399   9.590  17.162   6.435  0.0948  0.0599  0.2346
  743POPS   D2A11400   9.283  17.125   6.817  0.0284 -0.3005  0.0818
  743POPS   C3A11401   9.398  16.784   7.122 -0.2786 -0.1467  0.0518
  743POPS   C4A11402   9.432  16.686   7.580 -0.2801 -0.1972 -0.0253
  743POPS   C1B11403  10.061  17.236   6.565 -0.1958  0.2599 -0.4109
  743POPS   C2B11404  10.089  17.362   6.980 -0.0875  0.0600  0.1073
  743POPS   C3B11405   9.931  17.106   7.326  0.0119 -0.3269  0.1834
  743POPS   C4B11406   9.841  17.004   7.641  0.1268 -0.1965  0.1121
  744POPS   CNO11407  11.731  17.440   5.624 -0.3933  0.3129  0.2042
  744POPS   PO411408  11.428  17.641   5.970  0.0447 -0.0989  0.1320
  744POPS   GL111409  11.425  17.705   6.436  0.0463 -0.2025  0.4198
  744POPS   GL211410  11.554  17.370   6.513 -0.1190 -0.3261  0.2661
  744POPS   C1A11411  11.404  17.878   6.896  0.2716  0.0058  0.0279
  744POPS   D2A11412  11.173  18.019   7.304 -0.0740 -0.0184 -0.0480
  744POPS   C3A11413  11.446  18.047   7.590  0.0424 -0.3196 -0.1953
  744POPS   C4A11414  11.621  18.346   7.897  0.1292  0.2014 -0.0991
  744POPS   C1B11415  11.416  17.304   6.895 -0.2666 -0.1997  0.1347
  744POPS   C2B11416  11.459  16.972   7.087 -0.1774 -0.0462  0.0290
  744POPS   C3B11417  11.681  16.483   7.373 -0.0681  0.0260  0.0579
  744POPS   C4B11418  11.845  16.130   7.116  0.2488  0.0671 -0.1153
  745POPS   CNO11419   4.950  13.498   5.396  0.1365  0.1670  0.0303
  745POPS   PO411420   5.144  13.229   5.738 -0.1824 -0.0150  0.1810
  745POPS   GL111421   5.045  13.020   6.148  0.1044 -0.1246 -0.1264
  745POPS   GL211422   5.288  12.769   6.242  0.1198 -0.0193  0.4825
  745POPS   C1A11423   4.761  13.133   6.448 -0.1599 -0.2018  0.0183
  745POPS   D2A11424   4.444  13.481   6.630  0.1385  0.3935 -0.1159
  745POPS   C3A11425   4.325  13.666   6.996 -0.1786 -0.1474  0.0391
  745POPS   C4A11426   4.179  13.955   7.283 -0.0687 -0.0727  0.1225
  745POPS   C1B11427   5.135  12.883   6.688 -0.0046  0.2185  0.1077
  745POPS   C2B11428   5.135  12.973   7.129  0.1081  0.1351 -0.0362
  745POPS   C3B11429   5.063  13.290   7.325  0.1715  0.0662  0.0204
  745POPS   C4B11430   5.088  13.470   7.728  0.2156 -0.1400 -0.0220
  746POPS   CNO11431   7.451  12.846   5.538 -0.0067 -0.0624 -0.2473
  746POPS   PO411432   7.260  12.617   5.877  0.1312 -0.1086  0.1499
  746POPS   GL111433   7.361  12.486   6.206  0.0376 -0.0572  0.0892
  746POPS   GL211434   7.731  12.440   6.244  0.1645  0.1048 -0.1072
  746POPS   C1A11435   7.238  12.613   6.576 -0.1927  0.1411 -0.0083
  746POPS   D2A11436   7.423  12.583   6.942 -0.1294 -0.2227 -0.0462
  746POPS   C3A11437   7.711  12.520   7.282  0.0680  0.1543  0.0293
  746POPS   C4A11438   7.786  12.540   7.642  0.0397 -0.1868  0.1491
  746POPS   C1B11439   7.842  12.502   6.636 -0.0314 -0.1389  0.1361
  746POPS   C2B11440   8.061  12.389   6.964  0.0996 -0.2411  0.1131
  746POPS   C3B11441   8.310  12.572   7.280  0.1575 -0.2016 -0.0798
  746POPS   C4B11442   8.188  12.879   7.629 -0.1819  0.2764  0.0394
  747POPS   CNO11443   3.400  13.528   5.667 -0.1709 -0.2471  0.0957
  747POPS   PO411444   3.697  13.990   5.834  0.2592  0.0427 -0.1493
  747POPS   GL111445   3.709  14.070   6.246  0.0871  0.0379 -0.2431
  747POPS   GL211446   3.983  14.379   6.312  0.1024  0.2176  0.1928
  747POPS   C1A11447   3.644  14.151   6.630 -0.0934 -0.1187 -0.2868
  747POPS   D2A11448   3.731  14.100   7.080 -0.0083  0.0910  0.1685
  747POPS   C3A11449   3.750  13.714   7.348  0.0412 -0.1768  0.2142
  747POPS   C4A11450   4.033  13.239   7.435  0.2179 -0.0254 -0.0341
  747POPS   C1B11451   3.922  14.723   6.587  0.2992 -0.2347  0.1111
  747POPS   C2B11452   3.886  14.998   6.831 -0.0925  0.0350  0.0972
  747POPS   C3B11453   4.226  15.061   7.113 -0.2134 -0.0217 -0.0457
  747POPS   C4B11454   4.442  15.220   7.437 -0.2061 -0.0276 -0.2983
  748POPS   CNO11455   4.978  15.086   5.668 -0.1120 -0.0041  0.1742
  748POPS   PO411456   5.212  14.773   5.741  0.1631  0.4553  0.0145
  748POPS   GL111457   5.293  14.560   6.117 -0.2080  0.1241  0.4270
  748POPS   GL211458   5.528  14.371   6.179  0.0578 -0.1127  0.1593
  748POPS   C1A11459   4.943  14.354   6.361  0.2140 -0.1046  0.0122
  748POPS   D2A11460   4.888  14.510   6.856 -0.1278  0.0418  0.2315
  748POPS   C3A11461   5.075  14.227   7.187 -0.1385  0.2322  0.1629
  748POPS   C4A11462   5.131  13.755   7.164  0.0289 -0.2313  0.3013
  748POPS   C1B11463   5.358  14.594   6.599  0.0174 -0.1246  0.0491
  748POPS   C2B11464   5.446  14.507   7.035 -0.2658 -0.1747  0.0702
  748POPS   C3B11465   5.455  14.809   7.295 -0.0748 -0.0443  0.1408
  748POPS   C4B11466   5.406  15.138   7.547 -0.2456  0.0378  0.0240
  749POPS   CNO11467  17.078  13.337   5.811 -0.2393  0.2219 -0.6785
  749POPS   PO411468  16.848  13.650   6.043  0.1395 -0.0857  0.3971
  749POPS   GL111469  16.768  13.946   6.324 -0.2022 -0.1126 -0.2421
  749POPS   GL211470  16.462  13.902   6.283 -0.1706  0.0936  0.1296
  749POPS   C1A11471  16.684  14.285   6.548  0.0194 -0.1347  0.0955
  749POPS   D2A11472  16.522  14.184   6.926  0.0375  0.0305  0.1269
  749POPS   C3A11473  16.533  14.280   7.337 -0.0419  0.3094 -0.0986
  749POPS   C4A11474  16.368  14.384   7.723  0.0986  0.3563  0.2059
  749POPS   C1B11475  16.549  13.720   6.688 -0.2590 -0.1801  0.1403
  749POPS   C2B11476  16.493  13.756   7.174 -0.0126  0.2125 -0.3911
  749POPS   C3B11477  16.556  13.729   7.612  0.0508 -0.2271  0.0979
  749POPS   C4B11478  16.293  13.789   7.955  0.0014 -0.3211 -0.0321
  750POPS   CNO11479   8.504  17.692   5.484 -0.1696  0.1076 -0.1778
  750POPS   PO411480   8.316  17.395   5.680 -0.0195  0.4220  0.0767
  750POPS   GL111481   8.348  17.525   6.074 -0.1625  0.0690  0.0913
  750POPS   GL211482   8.617  17.764   5.993 -0.0123 -0.1304  0.0177
  750POPS   C1A11483   8.495  17.524   6.596 -0.0089  0.5653 -0.1510
  750POPS   D2A11484   8.603  17.545   7.010 -0.1937  0.5666  0.0265
  750POPS   C3A11485   8.975  17.302   7.166 -0.2904  0.2604  0.6158
  750POPS   C4A11486   8.961  16.768   7.342 -0.0883 -0.1596 -0.0274
  750POPS   C1B11487   8.356  17.990   6.394 -0.0024 -0.0932 -0.5473
  750POPS   C2B11488   8.420  18.337   6.738 -0.0065  0.1476 -0.1122
  750POPS   C3B11489   8.149  18.623   7.021 -0.0520  0.0341 -0.1772
  750POPS   C4B11490   8.226  18.856   7.300  0.1400  0.1909  0.0515
  751POPS   CNO11491   1.347  16.707   5.437  0.1904 -0.1470  0.1125
  751POPS   PO411492   1.563  16.920   5.704  0.0570 -0.2105 -0.3090
  751POPS   GL111493   1.430  17.025   6.084  0.4083  0.2326 -0.1843
  751POPS   GL211494   1.097  17.232   6.158 -0.0302 -0.1255 -0.1305
  751POPS   C1A11495   1.563  16.991   6.466 -0.2462  0.2059 -0.0105
  751POPS   D2A11496   1.776  17.026   6.909 -0.3574 -0.0428  0.0684
  751POPS   C3A11497   1.641  16.990   7.316 -0.1213 -0.0456  0.1142
  751POPS   C4A11498   1.510  17.193   7.666  0.1935  0.2334  0.2363
  751POPS   C1B11499   0.877  17.376   6.550  0.0022  0.0327  0.1221
  751POPS   C2B11500   0.694  17.252   6.811  0.4241 -0.0781 -0.2620
  751POPS   C3B11501   0.349  17.014   6.873  0.0478  0.0785  0.3892
  751POPS   C4B11502   0.230  16.635   6.975 -0.3303 -0.4102  0.0107
  752POPS   CNO11503  13.192  11.902   5.577 -0.0936 -0.2502  0.0745
  752POPS   PO411504  13.580  12.051   5.585  0.1615  0.1761 -0.1812
  752POPS   GL111505  13.474  11.988   6.005  0.1714  0.1257 -0.2585
  752POPS   GL211506  13.485  12.352   6.192  0.2115  0.0983  0.2413
  752POPS   C1A11507  13.213  11.883   6.401  0.0707  0.1094  0.2168
  752POPS   D2A11508  13.199  11.798   6.840  0.1925  0.2250  0.1511
  752POPS   C3A11509  13.007  11.808   7.211 -0.4419  0.0046 -0.0507
  752POPS   C4A11510  12.524  11.962   7.215 -0.3003  0.2284  0.0372
  752POPS   C1B11511  13.799  12.653   6.274 -0.1740 -0.1403 -0.0601
  752POPS   C2B11512  13.982  12.872   6.654  0.0878  0.0209  0.2092
  752POPS   C3B11513  14.165  12.873   7.065  0.1600 -0.0037  0.0954
  752POPS   C4B11514  14.179  12.624   7.440  0.0260  0.0964  0.2440
  753POPS   CNO11515   7.163   9.717   6.233  0.0276 -0.0801 -0.0634
  753POPS   PO411516   6.942   9.923   5.850 -0.0606 -0.1405 -0.1424
  753POPS   GL111517   6.796  10.065   6.241  0.2270  0.1356 -0.2106
  753POPS   GL211518   6.576  10.316   6.233 -0.0607 -0.1366 -0.1689
  753POPS   C1A11519   6.905  10.082   6.658  0.1801 -0.1281  0.0844
  753POPS   D2A11520   6.648   9.923   7.027 -0.1902 -0.0897 -0.3299
  753POPS   C3A11521   6.704  10.127   7.341 -0.0972  0.0876  0.0053
  753POPS   C4A11522   6.508  10.218   7.790 -0.4468  0.0775 -0.1010
  753POPS   C1B11523   6.720  10.638   6.456 -0.0741 -0.0810  0.0024
  753POPS   C2B11524   6.719  11.020   6.639  0.1749  0.0313 -0.0932
  753POPS   C3B11525   6.862  11.331   6.877  0.1899 -0.2683 -0.1175
  753POPS   C4B11526   6.778  11.703   6.825  0.1737  0.1765  0.0425
  754POPS   CNO11527  14.932   8.115   5.437 -0.3567  0.2478 -0.5776
  754POPS   PO411528  15.206   7.838   5.822  0.1047 -0.3013  0.0666
  754POPS   GL111529  15.185   8.103   6.209 -0.2755 -0.0402  0.1840
  754POPS   GL211530  15.114   8.432   6.170  0.1443 -0.1972 -0.3383
  754POPS   C1A11531  15.321   8.202   6.716 -0.0532  0.0762 -0.0939
  754POPS   D2A11532  15.714   8.205   7.041 -0.0622 -0.1727  0.4108
  754POPS   C3A11533  16.053   8.394   6.878  0.0556 -0.1532  0.1411
  754POPS   C4A11534  16.378   8.370   6.686  0.0155 -0.1389  0.0505
  754POPS   C1B11535  15.209   8.633   6.592  0.0435 -0.0335 -0.0155
  754POPS   C2B11536  14.983   8.831   6.906 -0.0869 -0.0272 -0.0278
  754POPS   C3B11537  14.942   8.995   7.251  0.0592  0.0720 -0.3773
  754POPS   C4B11538  14.900   9.109   7.689  0.2890  0.0431 -0.0576
  755POPS   CNO11539  11.158  13.944   5.496 -0.1646  0.2494 -0.2502
  755POPS   PO411540  11.311  13.773   5.844 -0.1119  0.4408 -0.1214
  755POPS   GL111541  11.437  13.801   6.243  0.2285 -0.0143  0.1492
  755POPS   GL211542  11.144  13.859   6.334  0.1963  0.1929  0.3302
  755POPS   C1A11543  11.538  13.796   6.716  0.0666 -0.4411  0.1426
  755POPS   D2A11544  11.442  13.893   7.072 -0.0256  0.2771 -0.0755
  755POPS   C3A11545  11.665  14.119   7.289 -0.0034 -0.0504  0.0355
  755POPS   C4A11546  11.852  14.564   7.374  0.1562 -0.1296 -0.0242
  755POPS   C1B11547  11.030  13.990   6.788  0.0632  0.3066  0.1400
  755POPS   C2B11548  10.995  14.044   7.290 -0.3327 -0.1808 -0.1527
  755POPS   C3B11549  11.272  14.155   7.655  0.0577  0.3316  0.1794
  755POPS   C4B11550  11.691  14.238   7.763  0.2281  0.0585 -0.2222
  756POPS   CNO11551  11.404   2.249   5.403 -0.1198 -0.1020 -0.3212
  756POPS   PO411552  11.504   1.837   5.744 -0.1013 -0.3982  0.0733
  756POPS   GL111553  11.667   1.884   6.138  0.0609  0.0439  0.0216
  756POPS   GL211554  11.396   2.023   6.308 -0.1821  0.4384  0.0561
  756POPS   C1A11555  11.926   1.832   6.576  0.1305 -0.1762  0.6061
  756POPS   D2A11556  12.148   1.880   7.002  0.2925  0.0484  0.2312
  756POPS   C3A11557  12.265   2.105   7.328 -0.2200  0.1178 -0.1475
  756POPS   C4A11558  12.199   2.577   7.537  0.1290 -0.0781 -0.0758
  756POPS   C1B11559  11.337   2.103   6.731  0.0815  0.1322  0.1550
  756POPS   C2B11560  11.310   2.004   7.086 -0.3724 -0.1224 -0.0679
  756POPS   C3B11561  10.921   1.876   7.359 -0.3068  0.1237  0.3461
  756POPS   C4B11562  10.518   2.018   7.387  0.1519 -0.3023 -0.0772
  757POPS   CNO11563  10.566   6.044   4.973  0.3128  0.1491 -0.1414
  757POPS   PO411564  10.622   5.888   5.341 -0.0567  0.0449 -0.0016
  757POPS   GL111565  10.743   5.714   5.776 -0.1423  0.3085  0.0688
  757POPS   GL211566  10.460   5.715   5.973  0.0801  0.0884  0.0284
  757POPS   C1A11567  10.866   5.600   6.209 -0.2727 -0.1465  0.1051
  757POPS   D2A11568  10.932   5.509   6.636 -0.0646 -0.3610  0.0962
  757POPS   C3A11569  11.135   5.659   7.064 -0.1329  0.2227 -0.1210
  757POPS   C4A11570  11.596   5.749   7.173 -0.0449 -0.2040  0.1503
  757POPS   C1B11571  10.434   5.636   6.425  0.2651  0.0057 -0.1639
  757POPS   C2B11572  10.337   5.546   6.850 -0.1427 -0.0370 -0.1020
  757POPS   C3B11573  10.153   5.309   7.167  0.3073  0.2538 -0.0541
  757POPS   C4B11574   9.858   5.248   7.334  0.0885  0.1496 -0.2301
  758POPS   CNO11575   7.362   1.787   5.889 -0.1779  0.2665  0.0621
  758POPS   PO411576   7.666   1.986   6.056  0.0215  0.3876 -0.3442
  758POPS   GL111577   7.639   1.743   6.363  0.2308 -0.1437  0.0234
  758POPS   GL211578   8.014   1.870   6.538 -0.1171  0.0849 -0.0305
  758POPS   C1A11579   7.451   1.817   6.736  0.1096 -0.3071 -0.2482
  758POPS   D2A11580   7.292   1.797   7.100 -0.1390  0.3024 -0.1319
  758POPS   C3A11581   6.795   1.967   7.231 -0.0488 -0.0612 -0.1632
  758POPS   C4A11582   6.657   2.188   7.742  0.2655 -0.3124 -0.1727
  758POPS   C1B11583   7.912   1.766   7.061  0.2893  0.0311  0.2142
  758POPS   C2B11584   7.683   1.860   7.469 -0.0498 -0.0230  0.0196
  758POPS   C3B11585   7.716   1.608   7.906 -0.2194  0.0813  0.4248
  758POPS   C4B11586   7.765   1.101   7.951  0.1686 -0.0430 -0.4051
  759POPS   CNO11587  12.417   7.749   5.751 -0.0667  0.1046 -0.1579
  759POPS   PO411588  12.705   7.975   5.765  0.0386 -0.1982  0.0489
  759POPS   GL111589  12.630   8.025   6.224 -0.0852 -0.1383  0.2881
  759POPS   GL211590  12.502   8.381   6.361  0.1007 -0.0572 -0.1941
  759POPS   C1A11591  12.565   7.784   6.617 -0.2473 -0.0030 -0.0642
  759POPS   D2A11592  12.350   7.590   7.058  0.3308 -0.2137 -0.1530
  759POPS   C3A11593  12.077   7.843   7.268 -0.4111  0.1918 -0.0036
  759POPS   C4A11594  12.074   7.921   7.661 -0.1442  0.1531  0.1570
  759POPS   C1B11595  12.767   8.250   6.754  0.0030 -0.0933 -0.1525
  759POPS   C2B11596  12.671   7.993   7.104  0.1358  0.2207  0.0688
  759POPS   C3B11597  12.508   8.106   7.460 -0.0179 -0.2173  0.1565
  759POPS   C4B11598  12.662   7.914   7.940  0.0789 -0.0323  0.2292
  760POPS   CNO11599   9.689   0.381   6.222  0.0178 -0.3315  0.0376
  760POPS   PO411600  10.175   0.186   6.122  0.1286 -0.0901 -0.0111
  760POPS   GL111601  10.446   0.150   6.518 -0.0078 -0.0924 -0.3039
  760POPS   GL211602  10.615   0.425   6.652 -0.0108  0.0608  0.1036
  760POPS   C1A11603  10.579  -0.031   6.872 -0.1469  0.3041 -0.1764
  760POPS   D2A11604  10.455   0.088   7.321 -0.2126  0.3632  0.0485
  760POPS   C3A11605  10.806   0.194   7.573  0.0605 -0.0450  0.0617
  760POPS   C4A11606  11.073   0.472   7.692  0.3689 -0.1739  0.1118
  760POPS   C1B11607  10.737   0.835   6.835 -0.0747  0.0966 -0.3156
  760POPS   C2B11608  10.804   1.299   6.842 -0.1082 -0.0663  0.3550
  760POPS   C3B11609  10.732   1.636   6.995 -0.0798 -0.1498  0.0102
  760POPS   C4B11610  10.807   2.190   6.939  0.0573  0.0261 -0.4294
  761POPS   CNO11611   9.929   4.336   5.633 -0.3221  0.4429 -0.0457
  761POPS   PO411612   9.549   4.518   5.449 -0.1198 -0.0346 -0.1022
  761POPS   GL111613   9.556   4.293   5.962 -0.0375 -0.0870  0.1132
  761POPS   GL211614   9.389   4.517   6.033 -0.1942 -0.0067  0.4028
  761POPS   C1A11615   9.557   4.326   6.446 -0.2031  0.2054  0.2977
  761POPS   D2A11616   9.315   4.424   6.807 -0.1766 -0.3705  0.3338
  761POPS   C3A11617   9.317   3.990   6.931 -0.3008  0.3570 -0.0531
  761POPS   C4A11618   9.084   3.670   7.225  0.3784 -0.0520  0.0038
  761POPS   C1B11619   9.128   4.626   6.290  0.2281  0.0198  0.1153
  761POPS   C2B11620   9.139   5.076   6.461  0.2745  0.0486  0.2284
  761POPS   C3B11621   9.143   5.088   6.909 -0.2554 -0.3135  0.0714
  761POPS   C4B11622   9.315   5.355   7.294 -0.1010  0.2720  0.2514
  762POPS   CNO11623  14.710  15.818   5.242  0.1560 -0.4559 -0.1333
  762POPS   PO411624  14.671  15.685   5.596 -0.1091 -0.2881 -0.0057
  762POPS   GL111625  14.612  15.821   6.087  0.0157  0.2067  0.0010
  762POPS   GL211626  14.940  15.986   6.123  0.1965  0.2232 -0.2131
  762POPS   C1A11627  14.430  15.697   6.386 -0.0085 -0.0552 -0.3010
  762POPS   D2A11628  14.292  15.428   6.683 -0.1761 -0.0063  0.0266
  762POPS   C3A11629  13.920  15.304   6.736  0.1890  0.2312 -0.0181
  762POPS   C4A11630  13.833  14.861   6.679  0.2322  0.2651 -0.0325
  762POPS   C1B11631  14.977  15.820   6.509 -0.0487 -0.2747 -0.5119
  762POPS   C2B11632  15.229  15.736   6.892  0.0086  0.1340 -0.0708
  762POPS   C3B11633  15.112  15.494   7.332  0.3855 -0.1554  0.0054
  762POPS   C4B11634  15.525  15.445   7.486  0.2116 -0.1023 -0.1246
  763POPS   CNO11635  17.308   6.957   5.625  0.0027 -0.0610  0.2011
  763POPS   PO411636  17.103   7.254   5.889 -0.1554  0.0453  0.0256
  763POPS   GL111637  17.225   7.143   6.417 -0.0367  0.1072 -0.1296
  763POPS   GL211638  17.037   6.861   6.581 -0.1368 -0.0779  0.0919
  763POPS   C1A11639  17.420   7.000   6.812  0.0630  0.0611  0.0138
  763POPS   D2A11640  17.364   6.780   7.083  0.2375 -0.1110  0.2938
  763POPS   C3A11641  17.026   6.870   7.406 -0.0758  0.0650 -0.1222
  763POPS   C4A11642  16.838   6.968   7.772  0.0350  0.1385 -0.1050
  763POPS   C1B11643  16.842   6.746   6.990 -0.0697  0.1381  0.2466
  763POPS   C2B11644  16.574   6.461   7.100 -0.3428 -0.1271  0.2835
  763POPS   C3B11645  16.256   6.052   7.169 -0.0360  0.0663  0.1710
  763POPS   C4B11646  15.756   5.943   7.062  0.1187  0.0578 -0.3039
  764POPS   CNO11647   8.302   5.910   5.755 -0.0130  0.2573 -0.0924
  764POPS   PO411648   8.630   6.279   5.900  0.1059 -0.1076  0.3211
  764POPS   GL111649   8.625   6.227   6.359 -0.2777  0.1879 -0.2255
  764POPS   GL211650   8.585   6.638   6.251 -0.1571 -0.1401 -0.1156
  764POPS   C1A11651   8.558   5.871   6.696 -0.3082 -0.2252  0.0844
  764POPS   D2A11652   8.566   5.815   7.114 -0.0918  0.4615  0.2815
  764POPS   C3A11653   8.199   5.549   7.258  0.0687 -0.1793  0.0161
  764POPS   C4A11654   8.097   5.391   7.706  0.0009  0.1666 -0.0926
  764POPS   C1B11655   8.400   6.536   6.679 -0.0101  0.2492 -0.2702
  764POPS   C2B11656   8.679   6.270   7.005  0.0547  0.0162  0.1570
  764POPS   C3B11657   8.920   6.106   7.278  0.0392  0.1271 -0.0516
  764POPS   C4B11658   9.029   5.894   7.598  0.1229  0.0770  0.1954
  765POPS   CNO11659   9.423  13.036   5.738 -0.0304  0.0803  0.1349
  765POPS   PO411660   9.182  12.669   5.810 -0.1973 -0.2667 -0.5227
  765POPS   GL111661   9.073  12.707   6.221  0.1657  0.1942 -0.2015
  765POPS   GL211662   8.756  12.754   6.436  0.0497 -0.0533  0.2026
  765POPS   C1A11663   9.271  12.798   6.617 -0.0475 -0.2011  0.4032
  765POPS   D2A11664   9.277  13.248   6.893  0.0175 -0.1967 -0.0085
  765POPS   C3A11665   9.260  13.124   7.380  0.2031 -0.0844 -0.2621
  765POPS   C4A11666   9.113  13.386   7.698 -0.1856  0.0115  0.0781
  765POPS   C1B11667   8.706  13.035   6.854 -0.0974 -0.1667 -0.0932
  765POPS   C2B11668   8.565  13.037   7.284  0.2017  0.2184  0.2029
  765POPS   C3B11669   8.675  13.164   7.644  0.0944  0.0675 -0.4338
  765POPS   C4B11670   8.695  12.928   8.047 -0.1518  0.1006 -0.3100
  766POPS   CNO11671   6.101   6.564   5.768  0.3429  0.0283  0.5813
  766POPS   PO411672   6.018   6.426   6.159 -0.2357  0.1285 -0.2333
  766POPS   GL111673   5.995   6.259   6.587 -0.0404  0.0057  0.1608
  766POPS   GL211674   5.668   6.199   6.531 -0.1962  0.1817  0.0052
  766POPS   C1A11675   6.027   6.228   6.963 -0.0646  0.5093  0.3016
  766POPS   D2A11676   5.883   6.380   7.257  0.0507 -0.0654 -0.3219
  766POPS   C3A11677   5.647   6.375   7.637  0.1200 -0.4374 -0.0338
  766POPS   C4A11678   5.399   6.120   7.832  0.1062  0.3824 -0.1272
  766POPS   C1B11679   5.572   6.429   6.879  0.3460 -0.2715  0.0335
  766POPS   C2B11680   5.213   6.609   7.203  0.0597  0.0881  0.4557
  766POPS   C3B11681   5.109   6.320   7.388 -0.2126  0.1678  0.0901
  766POPS   C4B11682   4.774   6.199   7.561  0.0680 -0.1465 -0.0508
  767POPS   CNO11683  13.207  15.315   5.630 -0.0297 -0.1401  0.0381
  767POPS   PO411684  13.525  15.538   5.478 -0.0086 -0.0224 -0.0302
  767POPS   GL111685  13.513  15.595   5.949 -0.2999  0.1270 -0.2633
  767POPS   GL211686  13.553  15.326   6.095  0.1194  0.1712 -0.2134
  767POPS   C1A11687  13.263  15.767   6.299  0.1410  0.2895  0.1114
  767POPS   D2A11688  12.979  15.955   6.644  0.1591 -0.0792  0.1314
  767POPS   C3A11689  13.157  15.946   7.095 -0.0275 -0.2055  0.0543
  767POPS   C4A11690  13.594  15.906   7.413 -0.0944  0.0845 -0.0123
  767POPS   C1B11691  13.494  15.283   6.482  0.0467 -0.1573 -0.1429
  767POPS   C2B11692  13.455  15.091   6.950 -0.2480  0.2036  0.1266
  767POPS   C3B11693  13.433  15.058   7.347 -0.3043 -0.3763  0.3807
  767POPS   C4B11694  13.471  14.785   7.621  0.0680 -0.0309 -0.0363
  768POPS   CNO11695   0.227  11.355   5.598 -0.1737 -0.3057  0.0017
  768POPS   PO411696   0.495  11.730   5.758 -0.2944  0.0193 -0.2561
  768POPS   GL111697   0.773  11.393   5.982 -0.0026  0.1286  0.1745
  768POPS   GL211698   0.692  11.149   6.218 -0.0490 -0.1098 -0.2163
  768POPS   C1A11699   1.167  11.310   6.238 -0.0404 -0.1576 -0.1872
  768POPS   D2A11700   1.085  10.959   6.444 -0.0159  0.0454  0.0689
  768POPS   C3A11701   1.201  10.973   6.872 -0.1184  0.2211 -0.0918
  768POPS   C4A11702   1.326  10.948   7.263  0.2127 -0.2726  0.0047
  768POPS   C1B11703   0.572  11.227   6.550  0.0109  0.2080  0.0235
  768POPS   C2B11704   0.655  11.165   6.966  0.1801 -0.1876  0.1195
  768POPS   C3B11705   0.943  11.280   7.377 -0.2646  0.0078  0.3860
  768POPS   C4B11706   1.163  11.212   7.738 -0.0494 -0.1065 -0.0626
  769POPS   CNO11707  17.459  10.313   6.142  0.1594  0.2547 -0.0579
  769POPS   PO411708  17.322  10.436   6.504 -0.3008 -0.0445 -0.1396
  769POPS   GL111709  17.366  10.288   6.835 -0.0150 -0.0520  0.0838
  769POPS   GL211710  17.685  10.435   6.902 -0.1027  0.1047  0.0498
  769POPS   C1A11711  17.237  10.286   7.190  0.1481 -0.0621 -0.0212
  769POPS   D2A11712  17.447  10.300   7.593  0.1225 -0.0174  0.1552
  769POPS   C3A11713  17.191  10.564   7.863 -0.2253 -0.1661 -0.0218
  769POPS   C4A11714  17.159  10.290   8.233 -0.1487 -0.3517 -0.3601
  769POPS   C1B11715  17.630   9.917   7.037  0.3104 -0.0098 -0.2728
  769POPS   C2B11716  17.687   9.844   7.482  0.0599  0.0135  0.3369
  769POPS   C3B11717  17.602   9.896   7.857 -0.1149 -0.3779  0.0911
  769POPS   C4B11718  17.452   9.860   8.250 -0.1021 -0.1824  0.0473
  770POPS   CNO11719   1.796   0.736   5.409 -0.1220 -0.0916  0.0588
  770POPS   PO411720   1.431   0.536   5.453  0.1198 -0.2422 -0.2421
  770POPS   GL111721   1.495   0.770   5.919 -0.2547  0.0483  0.3036
  770POPS   GL211722   1.294   1.021   5.835  0.0980  0.1138  0.0793
  770POPS   C1A11723   1.706   1.106   6.153 -0.0074  0.0970  0.0667
  770POPS   D2A11724   2.064   1.124   6.355 -0.2583 -0.2589  0.3124
  770POPS   C3A11725   2.070   1.415   6.599  0.1299  0.3598  0.0422
  770POPS   C4A11726   2.423   1.526   6.878 -0.0937  0.1052 -0.2024
  770POPS   C1B11727   1.211   0.797   6.289  0.3011  0.0698 -0.3307
  770POPS   C2B11728   1.405   0.673   6.668 -0.0776 -0.1440 -0.1494
  770POPS   C3B11729   1.630   0.770   6.992  0.1416 -0.2315 -0.2914
  770POPS   C4B11730   1.928   0.804   7.311 -0.1301 -0.0020  0.0340
  771POPS   CNO11731   7.429   6.081   5.850  0.1403 -0.2305 -0.0311
  771POPS   PO411732   7.771   6.355   5.775 -0.1025 -0.1323  0.1381
  771POPS   GL111733   7.677   6.456   6.215 -0.2929 -0.0246  0.1543
  771POPS   GL211734   7.491   6.643   6.294  0.1520 -0.2059  0.1775
  771POPS   C1A11735   7.891   6.386   6.615  0.1933  0.3449  0.1657
  771POPS   D2A11736   8.081   6.222   7.054  0.0081  0.2018  0.1766
  771POPS   C3A11737   7.976   5.966   7.407 -0.0039  0.1732 -0.0241
  771POPS   C4A11738   7.603   5.728   7.645  0.2601  0.1633 -0.1203
  771POPS   C1B11739   7.450   6.594   6.797 -0.1259 -0.0053 -0.3001
  771POPS   C2B11740   7.571   6.540   7.183 -0.0395 -0.1124  0.1015
  771POPS   C3B11741   7.223   6.649   7.503  0.2021  0.1887  0.2664
  771POPS   C4B11742   6.769   6.442   7.544  0.4078 -0.1804  0.0600
  772POPS   CNO11743   8.434   7.465   5.788 -0.0404  0.0849 -0.0059
  772POPS   PO411744   8.001   7.615   5.829 -0.0864  0.0870  0.3173
  772POPS   GL111745   7.777   7.788   6.254 -0.2812  0.2528 -0.2085
  772POPS   GL211746   7.777   8.079   6.280  0.1308  0.1450 -0.2552
  772POPS   C1A11747   7.724   7.798   6.770  0.2487 -0.0197 -0.0316
  772POPS   D2A11748   8.034   7.853   7.128  0.0964  0.3028  0.0105
  772POPS   C3A11749   8.126   8.104   7.300  0.2767  0.0200  0.0911
  772POPS   C4A11750   8.492   8.219   7.442  0.2412 -0.1344  0.2624
  772POPS   C1B11751   7.935   8.191   6.574 -0.0335 -0.1944  0.3453
  772POPS   C2B11752   8.248   8.313   6.864 -0.1668 -0.0134  0.0823
  772POPS   C3B11753   8.493   8.643   7.037  0.0998 -0.0130  0.1231
  772POPS   C4B11754   8.443   9.088   7.253  0.0851 -0.2444  0.1633
  773POPS   CNO11755   7.571  18.105   5.555 -0.5048  0.1446 -0.2228
  773POPS   PO411756   7.278  18.389   5.667  0.1635  0.2039 -0.0828
  773POPS   GL111757   7.284  18.513   6.026 -0.0158  0.0315  0.0022
  773POPS   GL211758   7.602  18.484   6.262 -0.2366  0.1866 -0.1114
  773POPS   C1A11759   7.214  18.926   6.347 -0.1877  0.0346  0.0439
  773POPS   D2A11760   7.165  18.851   6.765 -0.1703 -0.1943 -0.1526
  773POPS   C3A11761   7.266  19.202   7.122 -0.1865 -0.3933 -0.2320
  773POPS   C4A11762   7.641  19.420   7.247 -0.2193  0.3037 -0.0106
  773POPS   C1B11763   7.651  18.714   6.711 -0.1966  0.2478  0.1867
  773POPS   C2B11764   7.728  18.944   7.090  0.3023  0.2022  0.0901
  773POPS   C3B11765   7.830  19.048   7.560  0.1354  0.1602 -0.1007
  773POPS   C4B11766   7.915  19.185   7.940  0.2584  0.1313  0.0240
  774POPS   CNO11767   6.647  18.177   5.525 -0.2469 -0.0864 -0.0455
  774POPS   PO411768   6.950  17.922   5.488 -0.2315 -0.2201  0.2488
  774POPS   GL111769   6.841  17.903   5.920  0.1944  0.1768  0.3500
  774POPS   GL211770   6.621  17.680   6.018 -0.1873 -0.1396 -0.1148
  774POPS   C1A11771   6.942  17.970   6.229 -0.0327 -0.0898  0.2005
  774POPS   D2A11772   6.913  18.037   6.656 -0.2331  0.1519 -0.0490
  774POPS   C3A11773   7.186  17.704   6.918  0.0406 -0.3629 -0.2119
  774POPS   C4A11774   7.515  17.739   7.147  0.0663 -0.2187  0.3935
  774POPS   C1B11775   6.683  17.602   6.541  0.0268  0.1210  0.0570
  774POPS   C2B11776   6.652  17.720   6.891 -0.0054 -0.2046 -0.0818
  774POPS   C3B11777   6.804  17.899   7.189 -0.0325 -0.0492 -0.0729
  774POPS   C4B11778   7.017  18.248   7.316 -0.1967  0.0547  0.0359
  775POPS   CNO11779   8.977   8.652   5.666  0.0319  0.2823 -0.0160
  775POPS   PO411780   8.713   9.039   5.655  0.2280 -0.1556  0.0764
  775POPS   GL111781   8.718   9.064   6.100 -0.2919  0.1965 -0.4582
  775POPS   GL211782   8.808   8.764   6.154  0.1375  0.0699 -0.0943
  775POPS   C1A11783   9.054   9.092   6.485  0.0307  0.1632  0.2281
  775POPS   D2A11784   9.229   8.783   6.765  0.1532  0.0566 -0.0693
  775POPS   C3A11785   9.379   8.791   7.162 -0.1029  0.1394 -0.2428
  775POPS   C4A11786   9.296   8.663   7.565  0.1035  0.0982  0.1675
  775POPS   C1B11787   9.078   8.545   6.352 -0.0771 -0.0518  0.0882
  775POPS   C2B11788   9.464   8.482   6.375 -0.0215 -0.0743 -0.2274
  775POPS   C3B11789   9.583   8.350   6.787 -0.0871 -0.3017  0.0919
  775POPS   C4B11790   9.704   8.403   7.231 -0.1010  0.3598 -0.0025
  776POPS   CNO11791  15.867  17.529   5.890  0.2020 -0.2833 -0.2064
  776POPS   PO411792  16.292  17.650   5.814  0.3369 -0.1776  0.0071
  776POPS   GL111793  16.242  17.540   6.225 -0.0084  0.0182 -0.0585
  776POPS   GL211794  15.991  17.754   6.314  0.4942  0.0774  0.3149
  776POPS   C1A11795  16.432  17.375   6.573  0.0804 -0.1410 -0.2130
  776POPS   D2A11796  16.642  17.254   6.862  0.3089  0.1442  0.0923
  776POPS   C3A11797  16.466  17.422   7.108  0.0526  0.1600  0.1225
  776POPS   C4A11798  16.552  17.751   7.277  0.0163 -0.0572 -0.1352
  776POPS   C1B11799  15.846  17.609   6.696  0.2767  0.2342 -0.0970
  776POPS   C2B11800  15.931  17.617   7.148 -0.2664  0.1958 -0.0556
  776POPS   C3B11801  16.016  17.618   7.624 -0.0867 -0.0782 -0.1658
  776POPS   C4B11802  16.085  17.200   7.835  0.1545  0.1677  0.1592
  777POPS   CNO11803   7.568   2.903   5.319 -0.1354 -0.1866 -0.1797
  777POPS   PO411804   7.415   2.884   5.708  0.2623  0.2776 -0.1406
  777POPS   GL111805   7.102   2.834   6.054  0.1233  0.0419 -0.1525
  777POPS   GL211806   7.116   2.554   6.231 -0.0420 -0.1065  0.2327
  777POPS   C1A11807   6.676   3.003   6.139 -0.2512 -0.0281 -0.1251
  777POPS   D2A11808   6.439   3.272   6.287  0.0413  0.1117 -0.1256
  777POPS   C3A11809   6.460   3.315   6.716 -0.2164 -0.1178  0.0362
  777POPS   C4A11810   6.386   3.717   7.023  0.1880 -0.2158 -0.3247
  777POPS   C1B11811   6.930   2.881   6.569  0.0230 -0.3655  0.2416
  777POPS   C2B11812   6.671   2.828   6.925 -0.1478 -0.0195  0.0390
  777POPS   C3B11813   6.524   2.890   7.367 -0.0126  0.1176  0.3388
  777POPS   C4B11814   6.229   3.114   7.709 -0.0190 -0.0583  0.1145
  778POPS   CNO11815   8.727   9.551   5.750  0.0493  0.4572 -0.3118
  778POPS   PO411816   8.883   9.994   5.641 -0.0199 -0.0940  0.0851
  778POPS   GL111817   8.661  10.034   5.950 -0.3103 -0.4534 -0.0378
  778POPS   GL211818   8.318  10.328   6.150 -0.0175  0.0965  0.0026
  778POPS   C1A11819   8.650  10.044   6.419 -0.0633 -0.2375  0.2018
  778POPS   D2A11820   8.529   9.918   6.770 -0.0830  0.0353  0.1036
  778POPS   C3A11821   8.498  10.070   7.161 -0.0017  0.1188  0.2914
  778POPS   C4A11822   8.449  10.098   7.567  0.0139 -0.2302  0.1311
  778POPS   C1B11823   8.122   9.978   6.401 -0.0191 -0.2480  0.2245
  778POPS   C2B11824   8.249   9.572   6.497 -0.0137 -0.1564  0.2193
  778POPS   C3B11825   8.413   9.096   6.497 -0.0483 -0.0537  0.0845
  778POPS   C4B11826   8.652   8.804   6.606 -0.3118  0.0198 -0.2639
  779POPS   CNO11827   3.243  11.557   5.841 -0.0102 -0.0259  0.0159
  779POPS   PO411828   2.839  11.364   6.013  0.0730 -0.1358 -0.2364
  779POPS   GL111829   2.550  11.014   6.341  0.1143  0.2777  0.0371
  779POPS   GL211830   2.265  11.268   6.343  0.0436 -0.0037  0.1141
  779POPS   C1A11831   2.686  10.855   6.781 -0.3070 -0.4173  0.1590
  779POPS   D2A11832   2.793  10.928   7.101 -0.0404  0.0679 -0.0259
  779POPS   C3A11833   3.074  11.031   7.409  0.0438  0.0740 -0.0167
  779POPS   C4A11834   3.099  11.439   7.536 -0.3264  0.4001  0.1047
  779POPS   C1B11835   2.098  11.017   6.595  0.2513  0.1666 -0.1711
  779POPS   C2B11836   1.701  10.777   6.449 -0.1795  0.1162 -0.0707
  779POPS   C3B11837   1.457  10.521   6.727  0.0807 -0.0227  0.1425
  779POPS   C4B11838   1.109  10.430   6.958 -0.2234 -0.0438 -0.0158
  780POPS   CNO11839   4.076   9.581   6.094  0.4018  0.2368 -0.1135
  780POPS   PO411840   3.662   9.524   6.203  0.2651  0.1012  0.2083
  780POPS   GL111841   3.847   9.725   6.570  0.1697 -0.1852  0.4368
  780POPS   GL211842   4.113   9.983   6.475  0.0487 -0.0190  0.1332
  780POPS   C1A11843   4.057   9.775   7.037 -0.0505 -0.1602  0.0186
  780POPS   D2A11844   4.351   9.940   7.279  0.4832 -0.1028 -0.0314
  780POPS   C3A11845   4.588  10.300   7.447  0.2050 -0.0705 -0.2147
  780POPS   C4A11846   4.403  10.719   7.604 -0.0216  0.0598 -0.0071
  780POPS   C1B11847   4.500   9.955   6.831 -0.1990  0.2036 -0.0931
  780POPS   C2B11848   4.740   9.835   7.077 -0.1538  0.0068  0.1989
  780POPS   C3B11849   5.034   9.716   7.457 -0.0579 -0.1819  0.1302
  780POPS   C4B11850   5.246   9.539   7.776  0.4106  0.0557  0.2803
  781POPS   CNO11851  15.517   8.224   5.315  0.0599 -0.0088 -0.1926
  781POPS   PO411852  15.501   8.587   5.460  0.0823 -0.0362 -0.2539
  781POPS   GL111853  15.504   8.669   5.986 -0.3716 -0.1932 -0.1153
  781POPS   GL211854  15.784   8.550   6.111 -0.0333 -0.2764  0.1299
  781POPS   C1A11855  15.425   8.967   6.308 -0.1000 -0.3030 -0.2142
  781POPS   D2A11856  15.030   9.299   6.543  0.1563  0.0205  0.0888
  781POPS   C3A11857  15.048   9.439   6.982 -0.0140 -0.1339  0.0217
  781POPS   C4A11858  15.310   9.375   7.307 -0.2262  0.3527  0.0877
  781POPS   C1B11859  15.719   8.284   6.453  0.1542 -0.3730  0.1637
  781POPS   C2B11860  15.630   7.859   6.524 -0.2054  0.0462 -0.2203
  781POPS   C3B11861  15.569   7.666   6.892  0.2067 -0.1729 -0.0466
  781POPS   C4B11862  15.879   7.404   7.184  0.0359  0.1331 -0.2539
  782POPS   CNO11863   6.306   0.861   5.312  0.1155 -0.0548 -0.1572
  782POPS   PO411864   5.851   0.825   5.539  0.1808 -0.0713 -0.0188
  782POPS   GL111865   5.701   0.977   5.869  0.2854 -0.0615  0.1528
  782POPS   GL211866   5.785   0.836   6.097  0.0354 -0.1864  0.2245
  782POPS   C1A11867   5.724   1.311   6.220  0.0610  0.2390 -0.3485
  782POPS   D2A11868   5.886   0.953   6.567 -0.1112 -0.0255 -0.2222
  782POPS   C3A11869   5.871   1.043   7.011  0.0342 -0.0327 -0.2027
  782POPS   C4A11870   5.780   1.022   7.481  0.0277 -0.1426 -0.1448
  782POPS   C1B11871   5.696   0.553   6.363  0.2282  0.1073 -0.1869
  782POPS   C2B11872   5.787   0.531   6.821  0.1988 -0.2014  0.2104
  782POPS   C3B11873   5.753   0.625   7.213 -0.0534  0.0733  0.0637
  782POPS   C4B11874   5.606   0.464   7.591  0.0044 -0.1857  0.3790
  783POPS   CNO11875  11.597  12.979   5.548  0.2821 -0.3748  0.1935
  783POPS   PO411876  11.234  12.999   5.779  0.3815  0.3180 -0.1721
  783POPS   GL111877  11.408  12.867   6.144  0.3194 -0.0159 -0.0217
  783POPS   GL211878  11.536  13.096   6.337 -0.0580 -0.3237  0.0041
  783POPS   C1A11879  11.438  12.507   6.284 -0.0089 -0.2404 -0.1871
  783POPS   D2A11880  11.666  12.207   6.263  0.2338 -0.1115 -0.4584
  783POPS   C3A11881  11.660  11.972   6.631 -0.0414 -0.1938  0.0191
  783POPS   C4A11882  11.488  11.801   6.981  0.3163 -0.0897 -0.0530
  783POPS   C1B11883  11.463  12.954   6.636  0.1876  0.1038 -0.0392
  783POPS   C2B11884  11.401  12.901   7.052  0.2672  0.0423 -0.0008
  783POPS   C3B11885  11.439  12.712   7.533  0.0840  0.0629 -0.4821
  783POPS   C4B11886  11.258  12.480   7.834  0.1729  0.0495  0.0768
  784POPS   CNO11887   1.352   5.487   5.953 -0.0431 -0.0638 -0.2441
  784POPS   PO411888   1.740   5.638   6.019  0.1813 -0.1141 -0.0271
  784POPS   GL111889   1.672   5.575   6.452  0.0377 -0.1231 -0.1324
  784POPS   GL211890   1.513   5.880   6.655 -0.2538  0.0438 -0.0638
  784POPS   C1A11891   1.855   5.523   6.875  0.0929  0.4648 -0.2016
  784POPS   D2A11892   2.216   5.474   7.164  0.0412  0.0689  0.1199
  784POPS   C3A11893   2.272   5.048   7.372  0.1233 -0.2054 -0.2088
  784POPS   C4A11894   2.172   4.864   7.835 -0.0852  0.1017 -0.1783
  784POPS   C1B11895   1.375   5.679   6.961  0.2639  0.0163  0.1122
  784POPS   C2B11896   1.320   5.289   7.247  0.1624 -0.3421 -0.1686
  784POPS   C3B11897   1.295   4.959   7.533  0.2316  0.1601  0.1854
  784POPS   C4B11898   1.099   4.791   7.835 -0.0636 -0.2009 -0.2217
  785POPS   CNO11899   2.807   8.925   6.177  0.0174 -0.1927 -0.1737
  785POPS   PO411900   3.328   9.007   6.159 -0.1330  0.0734  0.1061
  785POPS   GL111901   3.478   9.149   6.570 -0.0483  0.1834  0.0531
  785POPS   GL211902   3.202   9.205   6.774  0.3717  0.1940 -0.1275
  785POPS   C1A11903   3.745   9.337   6.842  0.1136  0.0540  0.2073
  785POPS   D2A11904   4.052   9.273   7.278 -0.1487  0.0100 -0.1681
  785POPS   C3A11905   4.073   9.504   7.514  0.0700 -0.0002  0.1131
  785POPS   C4A11906   4.081   9.874   7.741 -0.2501  0.0318  0.1699
  785POPS   C1B11907   3.147   9.330   7.193  0.1749 -0.0643  0.1881
  785POPS   C2B11908   3.379   9.376   7.524 -0.1661 -0.1975 -0.2569
  785POPS   C3B11909   3.652   9.549   7.719 -0.0211  0.0845 -0.0750
  785POPS   C4B11910   3.849   9.491   8.034  0.3666 -0.2436 -0.0319
  786POPS   CNO11911   1.730  11.833   5.530  0.1825 -0.2561  0.3070
  786POPS   PO411912   2.015  11.479   5.708  0.1268 -0.2364  0.0730
  786POPS   GL111913   2.077  11.771   6.096 -0.1368  0.0279  0.4273
  786POPS   GL211914   2.380  11.726   6.288 -0.1559  0.6368 -0.0596
  786POPS   C1A11915   1.994  11.554   6.564 -0.1351 -0.1037 -0.1473
  786POPS   D2A11916   1.686  11.656   6.863 -0.0026 -0.0227 -0.1892
  786POPS   C3A11917   1.589  11.931   7.258 -0.3996 -0.2244  0.0796
  786POPS   C4A11918   1.435  12.228   7.371 -0.1435  0.5104 -0.0377
  786POPS   C1B11919   2.368  11.851   6.712 -0.0139  0.1383  0.1097
  786POPS   C2B11920   2.112  11.864   7.063 -0.3279  0.1312  0.0551
  786POPS   C3B11921   1.924  11.707   7.475 -0.0551  0.4763  0.0668
  786POPS   C4B11922   2.087  11.450   7.804  0.0221 -0.0345 -0.3395
  787POPS   CNO11923  12.446   1.636   5.336 -0.5544  0.1336 -0.1741
  787POPS   PO411924  12.284   1.990   5.608 -0.0537  0.2272  0.1950
  787POPS   GL111925  12.171   1.942   6.061 -0.1033  0.1773 -0.1758
  787POPS   GL211926  12.110   2.218   6.242 -0.3282  0.2653 -0.1526
  787POPS   C1A11927  12.471   1.858   6.358  0.0563  0.0122  0.2253
  787POPS   D2A11928  12.556   1.837   6.803  0.0054  0.0114 -0.1483
  787POPS   C3A11929  12.453   1.443   7.111  0.2529 -0.1494 -0.0153
  787POPS   C4A11930  12.610   1.235   7.431  0.3180  0.3242  0.0219
  787POPS   C1B11931  12.253   2.207   6.666  0.1584 -0.0392 -0.2398
  787POPS   C2B11932  12.294   2.557   6.947 -0.1496  0.1133 -0.3161
  787POPS   C3B11933  12.504   2.742   7.132 -0.1688 -0.0285 -0.1899
  787POPS   C4B11934  12.945   2.681   7.180  0.0521  0.1912 -0.0464
  788POPS   CNO11935  12.877  17.975   5.599  0.0668 -0.0892  0.1419
  788POPS   PO411936  12.664  18.410   5.676  0.1336 -0.1757  0.0888
  788POPS   GL111937  12.578  18.115   6.041  0.2526  0.1668 -0.4053
  788POPS   GL211938  12.453  17.838   5.947  0.0842 -0.0886  0.0362
  788POPS   C1A11939  12.168  18.020   6.337  0.0478  0.1720 -0.2294
  788POPS   D2A11940  11.887  18.311   6.549 -0.2749 -0.1000  0.1150
  788POPS   C3A11941  12.110  18.300   6.878  0.3906  0.0062 -0.0311
  788POPS   C4A11942  12.300  18.359   7.211  0.1269  0.0719 -0.0330
  788POPS   C1B11943  12.607  17.680   6.338 -0.0571  0.2520 -0.1879
  788POPS   C2B11944  12.568  17.805   6.685 -0.1197  0.5655  0.1879
  788POPS   C3B11945  12.449  17.929   7.049  0.1275  0.2742  0.2363
  788POPS   C4B11946  12.427  17.753   7.443  0.2613  0.0056 -0.1901
  789POPS   CNO11947   5.585   2.269   5.150  0.0839 -0.1344 -0.2557
  789POPS   PO411948   5.356   2.292   5.541  0.1668  0.0011 -0.2938
  789POPS   GL111949   5.399   2.195   5.889 -0.0009  0.1300 -0.0344
  789POPS   GL211950   5.150   2.407   6.050  0.1242 -0.0064 -0.2700
  789POPS   C1A11951   5.804   1.997   6.152 -0.3546 -0.0937  0.2831
  789POPS   D2A11952   5.865   1.895   6.497  0.1618 -0.1994  0.0654
  789POPS   C3A11953   5.466   2.006   6.809 -0.2324 -0.0266  0.3227
  789POPS   C4A11954   5.350   1.970   7.206  0.1840 -0.1265 -0.2762
  789POPS   C1B11955   5.298   2.110   6.348  0.1156  0.2076  0.3072
  789POPS   C2B11956   5.417   1.690   6.411  0.2844  0.1605  0.0529
  789POPS   C3B11957   5.593   1.392   6.778 -0.2307  0.1311 -0.2086
  789POPS   C4B11958   5.526   1.438   7.284 -0.1751  0.4027  0.0032
  790POPS   CNO11959   3.034  18.510   5.430 -0.0398  0.1511 -0.0049
  790POPS   PO411960   3.353  18.358   5.772 -0.1352  0.0159  0.2435
  790POPS   GL111961   3.300  18.598   6.157  0.2967 -0.2746 -0.1995
  790POPS   GL211962   2.861  18.669   6.198 -0.1319  0.0615  0.0283
  790POPS   C1A11963   3.285  18.889   6.515 -0.0283  0.1168 -0.2675
  790POPS   D2A11964   3.394  18.976   6.841  0.4505  0.0655  0.2526
  790POPS   C3A11965   3.411  19.336   7.097 -0.0755  0.1202  0.0419
  790POPS   C4A11966   3.631  19.681   7.185  0.1205 -0.2646  0.2199
  790POPS   C1B11967   2.963  18.532   6.675 -0.4196 -0.2117 -0.1415
  790POPS   C2B11968   3.116  18.609   6.986 -0.2523 -0.1340 -0.1738
  790POPS   C3B11969   3.338  18.870   7.324  0.1415 -0.1812 -0.0492
  790POPS   C4B11970   3.368  18.954   7.785 -0.0374 -0.0175 -0.2133
  791POPS   CNO11971  18.475  14.233   6.172 -0.0166  0.0732  0.0703
  791POPS   PO411972  18.781  14.544   6.122 -0.1101  0.1871 -0.1694
  791POPS   GL111973  18.634  14.500   6.598  0.1498  0.0270 -0.0835
  791POPS   GL211974  18.254  14.387   6.639 -0.0214 -0.1432  0.0769
  791POPS   C1A11975  18.540  14.701   7.033 -0.1855  0.0049 -0.1833
  791POPS   D2A11976  18.538  14.874   7.509 -0.2226  0.0675 -0.0428
  791POPS   C3A11977  18.524  15.284   7.815  0.1826  0.0079  0.4862
  791POPS   C4A11978  18.180  15.374   8.095 -0.2528  0.0705 -0.1739
  791POPS   C1B11979  18.067  14.392   7.067 -0.2082 -0.1132 -0.1233
  791POPS   C2B11980  18.002  14.655   7.429 -0.0679  0.0470 -0.0184
  791POPS   C3B11981  18.138  14.999   7.249  0.0960 -0.1467 -0.1354
  791POPS   C4B11982  18.179  15.238   7.494  0.6095  0.2316 -0.1435
  792POPS   CNO11983  17.800   0.224   5.565 -0.1050 -0.0599  0.1144
  792POPS   PO411984  17.675  -0.091   5.798  0.2603 -0.0322 -0.0760
  792POPS   GL111985  17.954  -0.051   6.107  0.3504  0.1561 -0.1126
  792POPS   GL211986  18.284  -0.002   6.138  0.3061 -0.2433 -0.0553
  792POPS   C1A11987  17.808  -0.130   6.523  0.1225  0.1702  0.1887
  792POPS   D2A11988  17.846  -0.536   6.686 -0.0877  0.0623  0.0353
  792POPS   C3A11989  17.723  -0.633   7.073 -0.3027  0.1939 -0.1258
  792POPS   C4A11990  17.702  -0.690   7.475  0.4075 -0.0593  0.2722
  792POPS   C1B11991  18.088   0.309   6.456 -0.0707  0.2191  0.2930
  792POPS   C2B11992  17.975   0.444   6.916 -0.2116  0.0736  0.0640
  792POPS   C3B11993  17.793   0.455   7.260 -0.2005 -0.0732 -0.3666
  792POPS   C4B11994  17.688   0.500   7.596  0.1963 -0.1509 -0.0251
  793POPS   CNO11995   9.438   8.436   5.886  0.0845  0.0553 -0.0714
  793POPS   PO411996   9.161   8.164   5.659 -0.1032 -0.1853  0.2427
  793POPS   GL111997   9.230   7.872   5.999  0.0967 -0.0765 -0.3400
  793POPS   GL211998   9.045   8.078   6.189 -0.3055 -0.0489  0.2409
  793POPS   C1A11999   9.223   7.591   6.304  0.0283  0.2723 -0.0459
  793POPS   D2A12000   9.426   7.519   6.634  0.2029 -0.0285  0.0138
  793POPS   C3A12001   9.582   7.529   7.131 -0.2194 -0.0883 -0.0407
  793POPS   C4A12002   9.596   7.559   7.535 -0.0198  0.1193  0.3406
  793POPS   C1B12003   9.091   7.901   6.686  0.1545  0.1624 -0.1132
  793POPS   C2B12004   9.290   7.973   7.038 -0.0386  0.1292  0.0257
  793POPS   C3B12005   9.441   7.972   7.392 -0.1624 -0.1515 -0.2880
  793POPS   C4B12006   9.531   8.209   7.827 -0.0884 -0.1225  0.0602
  794POPS   CNO12007   9.022   5.131   5.417 -0.2827 -0.0147 -0.0693
  794POPS   PO412008   9.171   5.390   5.684  0.0438 -0.0047  0.0007
  794POPS   GL112009   9.352   5.509   6.123  0.1699  0.0179 -0.2061
  794POPS   GL212010   9.199   5.853   6.265 -0.3517 -0.3292  0.0675
  794POPS   C1A12011   9.387   5.453   6.571  0.1855 -0.1580  0.1746
  794POPS   D2A12012   9.664   5.487   6.939 -0.0630 -0.3499 -0.1815
  794POPS   C3A12013   9.910   5.767   7.150 -0.1945 -0.4184 -0.3140
  794POPS   C4A12014  10.289   5.933   7.295  0.1012 -0.0654  0.3098
  794POPS   C1B12015   9.175   5.906   6.740  0.1576 -0.3900  0.3298
  794POPS   C2B12016   9.002   5.611   7.021  0.2585 -0.2431  0.0150
  794POPS   C3B12017   8.814   5.477   7.294  0.2412 -0.2864  0.2440
  794POPS   C4B12018   8.675   5.426   7.611 -0.0604  0.2510  0.2462
  795POPS   CNO12019   4.500  14.247   5.448 -0.0566 -0.1375 -0.0590
  795POPS   PO412020   4.559  13.977   5.711  0.3994 -0.0433 -0.1171
  795POPS   GL112021   4.595  13.993   6.136 -0.0808  0.2520 -0.1308
  795POPS   GL212022   4.783  13.709   6.298  0.0046 -0.2422  0.2946
  795POPS   C1A12023   4.640  14.083   6.635 -0.1355  0.2133  0.1809
  795POPS   D2A12024   4.544  14.202   7.071 -0.0487  0.1359  0.0174
  795POPS   C3A12025   4.681  13.929   7.406  0.1745 -0.1707 -0.1533
  795POPS   C4A12026   4.524  13.538   7.426  0.1967  0.0458 -0.2870
  795POPS   C1B12027   4.850  13.573   6.772  0.1086 -0.0781  0.1363
  795POPS   C2B12028   4.706  13.288   6.985 -0.1119 -0.3300  0.0034
  795POPS   C3B12029   4.582  13.005   7.301 -0.0047 -0.1648  0.1764
  795POPS   C4B12030   4.867  12.645   7.415  0.0253 -0.1056 -0.2017
  796POPS   CNO12031  15.074   9.438   5.769  0.1235 -0.0257  0.0705
  796POPS   PO412032  15.036   9.082   5.600  0.4125 -0.4854  0.2714
  796POPS   GL112033  15.035   8.979   6.022 -0.0876 -0.0498 -0.0602
  796POPS   GL212034  14.740   9.219   6.095 -0.0055  0.4191 -0.3466
  796POPS   C1A12035  14.729   8.838   6.435  0.0798  0.1813 -0.1309
  796POPS   D2A12036  14.449   8.622   6.835  0.2533  0.3248 -0.2879
  796POPS   C3A12037  14.161   8.620   6.921 -0.1846  0.2922  0.4138
  796POPS   C4A12038  13.714   8.599   6.801 -0.0387 -0.2395 -0.1462
  796POPS   C1B12039  14.537   9.527   6.407  0.0745  0.1072  0.1751
  796POPS   C2B12040  14.581   9.770   6.818  0.2771  0.0288  0.1542
  796POPS   C3B12041  14.773   9.932   7.052 -0.1401  0.3495  0.1140
  796POPS   C4B12042  14.956  10.214   7.357  0.0628  0.3826 -0.0152
  797POPS   CNO12043  10.990   1.816   5.869 -0.2719  0.0261 -0.2750
  797POPS   PO412044  10.671   1.429   5.888  0.0449  0.1077 -0.2519
  797POPS   GL112045  10.686   1.513   6.271  0.0973 -0.2375  0.3028
  797POPS   GL212046  10.890   1.789   6.379 -0.1500 -0.0489 -0.1313
  797POPS   C1A12047  10.413   1.626   6.591 -0.0161  0.2760  0.0581
  797POPS   D2A12048  10.252   1.549   6.974  0.3797  0.0808 -0.2902
  797POPS   C3A12049  10.364   1.518   7.453 -0.1181 -0.2940 -0.0376
  797POPS   C4A12050  10.635   1.636   7.836  0.0863 -0.0405 -0.1381
  797POPS   C1B12051  11.155   1.616   6.677  0.1690 -0.0407  0.3464
  797POPS   C2B12052  11.242   1.528   7.029  0.0354 -0.0881 -0.0137
  797POPS   C3B12053  11.282   1.511   7.564 -0.2188  0.2812 -0.0326
  797POPS   C4B12054  11.107   1.547   7.917  0.2695  0.1690  0.2437
  798POPS   CNO12055   3.880   5.178   5.809  0.0408 -0.1678 -0.0684
  798POPS   PO412056   3.857   4.827   5.799  0.0271 -0.0401  0.1286
  798POPS   GL112057   3.550   4.815   6.134 -0.1367  0.0852 -0.2170
  798POPS   GL212058   3.714   5.049   6.294 -0.0633  0.1539 -0.0093
  798POPS   C1A12059   3.527   4.701   6.574  0.1393 -0.1383 -0.2097
  798POPS   D2A12060   3.364   4.821   6.972 -0.3054 -0.0596  0.0697
  798POPS   C3A12061   3.135   5.154   7.015  0.2792 -0.1582  0.0620
  798POPS   C4A12062   3.095   5.612   6.853  0.2329  0.0351 -0.3486
  798POPS   C1B12063   3.320   5.128   6.461 -0.1226 -0.0135 -0.0194
  798POPS   C2B12064   2.922   5.343   6.401  0.1620  0.0568 -0.0267
  798POPS   C3B12065   2.595   5.201   6.392  0.0559 -0.0777  0.0952
  798POPS   C4B12066   2.240   5.121   6.640 -0.0373 -0.0754 -0.0335
  799POPS   CNO12067   8.261   1.405   5.643 -0.2999  0.0720 -0.1574
  799POPS   PO412068   8.129   1.760   5.713 -0.0698  0.0755 -0.0153
  799POPS   GL112069   8.230   1.705   6.115  0.3581 -0.1835  0.1261
  799POPS   GL212070   7.986   1.421   6.296 -0.2487  0.2832  0.2010
  799POPS   C1A12071   8.488   1.694   6.484 -0.1432 -0.2644 -0.1346
  799POPS   D2A12072   8.766   1.964   6.795 -0.0533  0.3018 -0.3533
  799POPS   C3A12073   8.749   2.307   7.141  0.0928  0.2301 -0.0428
  799POPS   C4A12074   8.896   2.769   7.179 -0.0798  0.0649  0.0800
  799POPS   C1B12075   8.147   1.447   6.724 -0.1384 -0.0715  0.1119
  799POPS   C2B12076   8.474   1.689   7.048  0.1172  0.3009  0.1131
  799POPS   C3B12077   8.681   1.875   7.335  0.1946  0.0288  0.0223
  799POPS   C4B12078   8.527   2.148   7.775  0.2124 -0.3356 -0.1030
  800POPS   CNO12079  14.180  15.715   5.753 -0.1331  0.1393  0.0115
  800POPS   PO412080  13.810  15.948   5.635 -0.0713  0.0464  0.1582
  800POPS   GL112081  13.802  16.029   6.083  0.1376  0.0756  0.1824
  800POPS   GL212082  14.102  16.088   6.266  0.0639  0.1124  0.0580
  800POPS   C1A12083  13.581  16.143   6.413 -0.3106 -0.1610 -0.0948
  800POPS   D2A12084  13.490  16.161   6.831 -0.1444  0.2174 -0.4669
  800POPS   C3A12085  13.290  16.471   7.199  0.0078  0.3616 -0.3125
  800POPS   C4A12086  12.844  16.708   7.400  0.0544  0.2004 -0.1371
  800POPS   C1B12087  13.999  16.024   6.749  0.3961  0.1366  0.2048
  800POPS   C2B12088  13.927  16.261   7.248  0.1238  0.0743  0.3277
  800POPS   C3B12089  13.972  16.257   7.688  0.0909 -0.2306 -0.1724
  800POPS   C4B12090  13.673  16.143   7.999 -0.1072  0.1057  0.0369
  801POPS   CNO12091  12.696   4.827   5.570 -0.2093 -0.4041 -0.0524
  801POPS   PO412092  12.376   4.792   5.931 -0.0523  0.0187  0.5148
  801POPS   GL112093  12.394   5.143   6.330 -0.1668  0.3989  0.2845
  801POPS   GL212094  12.115   5.164   6.503  0.0761 -0.2523  0.0083
  801POPS   C1A12095  12.466   5.500   6.606 -0.1825  0.1847  0.0008
  801POPS   D2A12096  12.614   5.829   6.793 -0.0794  0.0096 -0.0432
  801POPS   C3A12097  12.465   6.123   7.174 -0.2304 -0.0998 -0.0892
  801POPS   C4A12098  12.518   6.557   7.371  0.3499  0.0849 -0.5446
  801POPS   C1B12099  12.211   4.808   6.688  0.1977  0.0723 -0.0793
  801POPS   C2B12100  12.277   4.501   6.999 -0.2831  0.3101 -0.4239
  801POPS   C3B12101  12.274   4.095   7.273 -0.0589 -0.1749 -0.0612
  801POPS   C4B12102  11.901   3.956   7.501  0.0373  0.0262 -0.0210
  802POPS   CNO12103   6.907  16.996   5.453  0.1504  0.0409 -0.4744
  802POPS   PO412104   6.815  17.321   5.752  0.0921  0.2637 -0.0428
  802POPS   GL112105   7.083  17.368   6.025 -0.1960 -0.2181  0.0058
  802POPS   GL212106   7.159  17.098   6.090 -0.1433 -0.1158 -0.0062
  802POPS   C1A12107   7.208  17.555   6.344 -0.1271 -0.0241 -0.2316
  802POPS   D2A12108   7.479  17.381   6.671 -0.0019 -0.0292  0.2671
  802POPS   C3A12109   7.347  17.173   7.125  0.2507 -0.0346  0.1301
  802POPS   C4A12110   7.185  17.465   7.461 -0.1577  0.1710  0.5006
  802POPS   C1B12111   7.512  16.898   6.231 -0.0676 -0.1364  0.1906
  802POPS   C2B12112   7.580  16.875   6.660  0.2231  0.0940 -0.0691
  802POPS   C3B12113   7.774  16.652   6.932 -0.1627 -0.0183 -0.0472
  802POPS   C4B12114   7.978  16.762   7.289  0.0666 -0.1920  0.0160
  803YOPS   CNO12115   6.645   5.657   5.585 -0.0572 -0.1185  0.1320
  803YOPS   PO412116   6.227   5.663   5.722 -0.2764 -0.0356  0.0062
  803YOPS   GL112117   6.119   5.428   6.088  0.2451 -0.1953  0.1111
  803YOPS   GL212118   5.882   5.086   6.150 -0.1911 -0.0239 -0.3831
  803YOPS   C1A12119   6.264   5.431   6.459 -0.1516 -0.0701 -0.1043
  803YOPS   D2A12120   6.224   5.251   6.870  0.1036 -0.1553 -0.0562
  803YOPS   C3A12121   6.463   4.924   7.010 -0.5261 -0.0930  0.0133
  803YOPS   C4A12122   6.482   4.792   7.397 -0.2477  0.1942  0.0186
  803YOPS   C1B12123   5.965   4.840   6.602  0.3302  0.1224 -0.2615
  803YOPS   C2B12124   6.070   4.747   7.124 -0.0510  0.1578 -0.1299
  803YOPS   D3B12125   6.098   4.439   7.527  0.1478  0.0056  0.0274
  803YOPS   C4B12126   5.824   4.370   7.860 -0.2491  0.0304 -0.2108
  804YOPS   CNO12127   6.637   5.693   6.089 -0.4822 -0.0152 -0.2441
  804YOPS   PO412128   6.961   5.809   6.013  0.0331  0.0250 -0.0986
  804YOPS   GL112129   7.160   5.658   6.353 -0.3812 -0.2969 -0.2738
  804YOPS   GL212130   6.870   5.745   6.546  0.1663 -0.0188  0.4705
  804YOPS   C1A12131   7.232   5.484   6.811 -0.2556 -0.3525 -0.2624
  804YOPS   D2A12132   7.003   5.735   7.016 -0.0369  0.1051 -0.2155
  804YOPS   C3A12133   6.884   6.095   7.209 -0.0714 -0.1774 -0.1152
  804YOPS   C4A12134   6.983   6.525   7.070 -0.0076 -0.0053  0.3078
  804YOPS   C1B12135   6.683   6.149   6.710 -0.1558 -0.0588  0.0169
  804YOPS   C2B12136   6.488   6.356   6.937  0.0496 -0.0227  0.3687
  804YOPS   D3B12137   6.396   6.236   7.380  0.3525  0.0168  0.2689
  804YOPS   C4B12138   6.237   6.584   7.645 -0.0207 -0.1755 -0.1610
  805YOPS   CNO12139   3.462   2.759   5.533 -0.0097  0.0614 -0.0609
  805YOPS   PO412140   3.837   2.659   5.728 -0.2638 -0.1396 -0.0809
  805YOPS   GL112141   4.096   2.878   6.014 -0.1735  0.2970 -0.2904
  805YOPS   GL212142   4.341   2.748   5.971 -0.0386 -0.1182 -0.1586
  805YOPS   C1A12143   3.954   3.026   6.527  0.2059  0.1505 -0.0829
  805YOPS   D2A12144   3.934   2.709   6.955 -0.2550  0.1713 -0.2180
  805YOPS   C3A12145   3.859   2.600   7.387 -0.1186  0.0795 -0.1633
  805YOPS   C4A12146   3.652   2.833   7.644 -0.1125  0.2649 -0.1632
  805YOPS   C1B12147   4.396   2.735   6.567 -0.0352  0.2711  0.1994
  805YOPS   C2B12148   4.445   2.846   7.027  0.0216  0.2803  0.0669
  805YOPS   D3B12149   4.399   2.811   7.471  0.1267 -0.0343 -0.2614
  805YOPS   C4B12150   4.722   2.678   7.850 -0.1111  0.1061  0.1151
  806YOPS   CNO12151  11.513  18.427   5.743 -0.0796  0.0904  0.0383
  806YOPS   PO412152  11.445  18.213   6.129 -0.2330  0.0084  0.3424
  806YOPS   GL112153  11.139  18.278   6.450  0.0650  0.4747  0.0969
  806YOPS   GL212154  10.957  18.585   6.551  0.1571  0.0513 -0.3563
  806YOPS   C1A12155  10.936  18.154   6.875 -0.2574  0.0506  0.0165
  806YOPS   D2A12156  10.812  18.334   7.256  0.0998 -0.0307 -0.3429
  806YOPS   C3A12157  10.737  18.295   7.688  0.0499 -0.0563 -0.1819
  806YOPS   C4A12158  10.407  18.655   7.849  0.0907 -0.1209 -0.0824
  806YOPS   C1B12159  11.174  18.551   7.010  0.3077  0.0039 -0.3458
  806YOPS   C2B12160  11.196  18.532   7.416  0.0638 -0.1568  0.1544
  806YOPS   D3B12161  11.229  18.631   7.877 -0.0825 -0.0951  0.0189
  806YOPS   C4B12162  10.816  18.438   8.148  0.1318 -0.3021  0.1305
  807YOPS   CNO12163  15.147   1.207   5.494  0.0643 -0.0805  0.1854
  807YOPS   PO412164  14.831   0.967   5.601 -0.1262 -0.0939 -0.0847
  807YOPS   GL112165  14.913   1.057   5.934  0.3220  0.1635  0.0368
  807YOPS   GL212166  14.892   1.441   5.899  0.0499 -0.0914  0.1669
  807YOPS   C1A12167  15.137   0.938   6.280 -0.2420 -0.0857  0.3060
  807YOPS   D2A12168  15.224   0.834   6.735 -0.0717  0.3761  0.0890
  807YOPS   C3A12169  14.972   0.610   7.035  0.2431 -0.0560 -0.1915
  807YOPS   C4A12170  14.467   0.676   7.114 -0.1671 -0.2602 -0.0023
  807YOPS   C1B12171  15.026   1.728   6.251  0.1101 -0.0602 -0.0298
  807YOPS   C2B12172  15.173   1.662   6.649 -0.0639  0.0881 -0.1138
  807YOPS   D3B12173  15.522   1.685   6.920  0.2020  0.0012 -0.0062
  807YOPS   C4B12174  15.663   1.867   7.193 -0.1190 -0.0208 -0.1785
  808YOPS   CNO12175  17.890  10.291   5.812 -0.0854 -0.4455 -0.0213
  808YOPS   PO412176  18.140  10.044   6.208 -0.2163  0.0377 -0.0006
  808YOPS   GL112177  18.127   9.937   6.674  0.0703 -0.0203  0.0043
  808YOPS   GL212178  17.973   9.539   6.768  0.2091  0.3403  0.2427
  808YOPS   C1A12179  18.086  10.098   7.011 -0.3007 -0.3503  0.2715
  808YOPS   D2A12180  18.101  10.117   7.385  0.2929 -0.0469  0.0979
  808YOPS   C3A12181  18.024  10.181   7.763  0.1524  0.0245  0.2210
  808YOPS   C4A12182  18.380  10.054   8.045 -0.0940 -0.0664  0.2278
  808YOPS   C1B12183  17.966   9.604   7.184 -0.1560 -0.0371 -0.3391
  808YOPS   C2B12184  17.756   9.405   7.659  0.0161 -0.1725  0.1662
  808YOPS   D3B12185  17.918   9.495   8.116  0.0650 -0.0985 -0.1278
  808YOPS   C4B12186  17.932   9.875   8.258  0.2844 -0.0943  0.0331
  809YOPS   CNO12187   0.568   7.547   5.821  0.3581 -0.4023  0.0274
  809YOPS   PO412188   0.601   7.311   6.024 -0.1832  0.2256 -0.1867
  809YOPS   GL112189   0.634   7.337   6.420  0.1734  0.1607  0.1941
  809YOPS   GL212190   0.248   7.529   6.445  0.0470 -0.0600 -0.0011
  809YOPS   C1A12191   0.797   7.211   6.871  0.1177  0.1016 -0.1360
  809YOPS   D2A12192   0.896   7.216   7.352 -0.0237  0.0550  0.0540
  809YOPS   C3A12193   1.156   7.300   7.668  0.0230 -0.0310  0.1643
  809YOPS   C4A12194   0.949   7.492   8.014  0.2566 -0.3316 -0.1215
  809YOPS   C1B12195   0.556   7.659   6.753  0.0499 -0.4229  0.1207
  809YOPS   C2B12196   0.625   7.740   7.108 -0.1015  0.1009 -0.0352
  809YOPS   D3B12197   0.609   7.543   7.516 -0.0849 -0.2360  0.4564
  809YOPS   C4B12198   0.402   7.577   7.914 -0.1190 -0.2614  0.3346
  810YOPS   CNO12199   8.439   3.444   5.469  0.2990 -0.0097  0.0694
  810YOPS   PO412200   8.549   3.401   5.910 -0.1079 -0.3040  0.0994
  810YOPS   GL112201   8.507   3.089   6.249  0.4899 -0.0012  0.0377
  810YOPS   GL212202   8.785   2.875   6.204 -0.1148 -0.5230 -0.1109
  810YOPS   C1A12203   8.174   3.008   6.528  0.1461 -0.1239 -0.3213
  810YOPS   D2A12204   7.793   2.872   6.677  0.0023  0.3270 -0.1464
  810YOPS   C3A12205   7.353   2.868   6.894 -0.0013 -0.0951  0.0767
  810YOPS   C4A12206   6.977   3.076   7.199 -0.2679 -0.0081 -0.1107
  810YOPS   C1B12207   8.848   2.978   6.617  0.1192 -0.0324  0.2756
  810YOPS   C2B12208   8.999   3.266   6.945 -0.0144  0.3369 -0.0840
  810YOPS   D3B12209   9.342   3.236   7.369 -0.1294 -0.2427 -0.3768
  810YOPS   C4B12210   9.489   3.641   7.584 -0.1781 -0.0517 -0.0667
  811YOPS   CNO12211   2.971   0.467   5.385  0.0795 -0.1583  0.1935
  811YOPS   PO412212   2.695   0.689   5.547  0.0916 -0.2936  0.0669
  811YOPS   GL112213   2.600   0.666   6.053  0.2648 -0.1598 -0.3902
  811YOPS   GL212214   2.448   0.340   6.111  0.2723 -0.0435  0.3052
  811YOPS   C1A12215   2.349   0.690   6.441  0.1548  0.4052  0.0295
  811YOPS   D2A12216   2.337   0.549   6.863  0.0780  0.0547 -0.0533
  811YOPS   C3A12217   2.332   0.528   7.193  0.0287 -0.2849  0.1812
  811YOPS   C4A12218   2.184   0.434   7.505  0.0562  0.0313  0.2125
  811YOPS   C1B12219   2.537   0.191   6.586  0.1135  0.0695  0.0340
  811YOPS   C2B12220   2.583   0.130   7.019  0.0952  0.1246  0.1358
  811YOPS   D3B12221   2.342  -0.041   7.348  0.4234 -0.3189  0.0419
  811YOPS   C4B12222   2.295  -0.388   7.559 -0.0699  0.1654 -0.0793
  812YOPS   CNO12223   7.525  17.553   5.181  0.3461  0.4660  0.1608
  812YOPS   PO412224   7.814  17.344   5.490  0.0438  0.0713 -0.1756
  812YOPS   GL112225   7.839  16.898   5.788  0.1123 -0.0313  0.0716
  812YOPS   GL212226   8.006  17.031   5.945 -0.0288 -0.1625 -0.1128
  812YOPS   C1A12227   7.701  16.513   6.029  0.2960  0.0660 -0.0728
  812YOPS   D2A12228   7.364  16.369   6.409 -0.1250  0.2191  0.3670
  812YOPS   C3A12229   7.106  16.711   6.712 -0.1037 -0.1553  0.1421
  812YOPS   C4A12230   7.193  16.743   7.041  0.0082  0.1472  0.0036
  812YOPS   C1B12231   7.922  17.206   6.387 -0.1800  0.0376  0.0296
  812YOPS   C2B12232   8.039  17.306   6.725 -0.5501  0.1372 -0.1795
  812YOPS   D3B12233   8.037  17.217   7.159 -0.1823 -0.2257  0.2007
  812YOPS   C4B12234   7.738  17.336   7.402  0.4464  0.1464  0.2481
  813YOPS   CNO12235  10.253  14.830   5.107  0.3282  0.3046 -0.2267
  813YOPS   PO412236  10.203  14.837   5.628 -0.1334  0.1160  0.1370
  813YOPS   GL112237  10.221  14.648   5.978 -0.0789 -0.0015  0.0041
  813YOPS   GL212238  10.337  14.275   6.026 -0.0106 -0.2806  0.2973
  813YOPS   C1A12239  10.307  14.579   6.440  0.2752  0.0752  0.1946
  813YOPS   D2A12240  10.478  14.734   6.905  0.3394 -0.0682 -0.0121
  813YOPS   C3A12241  10.734  14.625   7.304  0.2618  0.2254 -0.0575
  813YOPS   C4A12242  10.440  14.758   7.611 -0.0912  0.0239  0.1074
  813YOPS   C1B12243  10.198  14.035   6.369 -0.0148 -0.0777  0.0810
  813YOPS   C2B12244  10.035  14.132   6.755 -0.1540 -0.1906 -0.2389
  813YOPS   D3B12245  10.037  14.337   6.988 -0.0235  0.2289  0.0689
  813YOPS   C4B12246   9.551  14.516   6.916 -0.2600 -0.0720 -0.1067
  814YOPS   CNO12247   0.513   2.882   6.032  0.1621  0.2585  0.0316
  814YOPS   PO412248   0.877   2.865   5.836  0.1255  0.0510  0.1753
  814YOPS   GL112249   0.977   2.756   6.215  0.1671  0.0545 -0.0968
  814YOPS   GL212250   1.305   2.491   6.271  0.0749  0.2689 -0.1074
  814YOPS   C1A12251   1.082   2.740   6.651 -0.3971  0.2888 -0.0676
  814YOPS   D2A12252   1.049   2.882   7.028  0.0748 -0.1098 -0.4598
  814YOPS   C3A12253   1.143   2.801   7.441 -0.0842 -0.1694  0.2014
  814YOPS   C4A12254   1.644   2.796   7.507  0.1723 -0.1537 -0.0059
  814YOPS   C1B12255   1.514   2.247   6.560 -0.2592 -0.0055 -0.2095
  814YOPS   C2B12256   1.361   2.044   6.873  0.0109 -0.1753  0.0529
  814YOPS   D3B12257   1.458   1.716   7.167 -0.3761 -0.3157  0.2686
  814YOPS   C4B12258   1.514   1.319   7.121 -0.1863 -0.2252  0.0049
  815YOPS   CNO12259   6.453   4.786   5.446 -0.1097  0.0415  0.0792
  815YOPS   PO412260   6.611   4.364   5.677 -0.1530  0.3426 -0.0080
  815YOPS   GL112261   6.596   4.434   6.174  0.4519  0.1494 -0.0058
  815YOPS   GL212262   6.872   4.648   6.380  0.0073  0.0042 -0.2691
  815YOPS   C1A12263   6.695   4.214   6.495  0.3320  0.1600 -0.1618
  815YOPS   D2A12264   6.724   3.927   6.786  0.2844 -0.1817  0.2169
  815YOPS   C3A12265   6.802   3.843   7.227  0.1426  0.0479 -0.2281
  815YOPS   C4A12266   7.028   3.578   7.443 -0.0007 -0.1708  0.0501
  815YOPS   C1B12267   6.930   4.686   6.846  0.1093 -0.0904 -0.1712
  815YOPS   C2B12268   7.019   4.807   7.309 -0.0778  0.1824 -0.1694
  815YOPS   D3B12269   6.787   4.814   7.794 -0.0186  0.0905  0.0211
  815YOPS   C4B12270   6.447   5.028   7.884 -0.0664 -0.0277 -0.2781
  816YOPS   CNO12271  12.049   1.173   5.505 -0.1267  0.0455  0.1062
  816YOPS   PO412272  12.519   1.157   5.641  0.1180 -0.1243  0.1187
  816YOPS   GL112273  12.552   0.834   5.981  0.2256 -0.3656  0.0733
  816YOPS   GL212274  12.734   0.558   5.931 -0.0377 -0.0720  0.2467
  816YOPS   C1A12275  12.341   0.643   6.266  0.3028  0.0756 -0.0338
  816YOPS   D2A12276  12.518   0.478   6.556 -0.1368 -0.3048 -0.0675
  816YOPS   C3A12277  12.666   0.299   7.023  0.0048 -0.5436 -0.0234
  816YOPS   C4A12278  12.292   0.293   7.253  0.1232  0.0973 -0.2497
  816YOPS   C1B12279  12.890   0.691   6.286  0.1810 -0.3087  0.0159
  816YOPS   C2B12280  12.955   0.691   6.700 -0.1552 -0.1864  0.1262
  816YOPS   D3B12281  13.018   0.709   7.176 -0.1739  0.1705 -0.4493
  816YOPS   C4B12282  13.080   1.029   7.564 -0.3705 -0.0604  0.2142
  817YOPS   CNO12283  12.848  17.436   5.264 -0.1672  0.0524  0.1773
  817YOPS   PO412284  12.933  17.045   5.384 -0.2612  0.1313  0.1991
  817YOPS   GL112285  12.810  16.962   5.852 -0.1992 -0.0649  0.1663
  817YOPS   GL212286  12.762  16.669   6.066  0.0075  0.0613  0.3464
  817YOPS   C1A12287  12.879  17.214   6.221  0.0690 -0.2845  0.2781
  817YOPS   D2A12288  12.798  17.249   6.709  0.0754  0.1511 -0.1074
  817YOPS   C3A12289  12.619  17.470   7.052 -0.1866  0.1799 -0.3685
  817YOPS   C4A12290  12.675  17.293   7.473 -0.2472  0.2127  0.0907
  817YOPS   C1B12291  12.780  16.809   6.485 -0.1030 -0.0333 -0.1241
  817YOPS   C2B12292  12.670  16.857   6.962 -0.0192  0.1377  0.1507
  817YOPS   D3B12293  12.348  16.803   7.316 -0.0190  0.1855 -0.3037
  817YOPS   C4B12294  12.511  16.874   7.756  0.2379 -0.0919 -0.1458
  818YOPS   CNO12295  15.798   7.084   5.928 -0.0850 -0.0080 -0.0966
  818YOPS   PO412296  15.409   6.977   5.995 -0.0195  0.1246 -0.0408
  818YOPS   GL112297  15.438   6.904   6.384 -0.3155  0.0707  0.3517
  818YOPS   GL212298  15.652   6.607   6.495 -0.0196  0.1295 -0.0636
  818YOPS   C1A12299  15.642   7.068   6.838  0.1167 -0.1316  0.0990
  818YOPS   D2A12300  15.717   6.893   7.205 -0.1028 -0.0172  0.0226
  818YOPS   C3A12301  15.481   6.885   7.542  0.0298 -0.0480 -0.1080
  818YOPS   C4A12302  15.602   6.652   7.826 -0.1142  0.0123  0.1793
  818YOPS   C1B12303  15.705   6.479   6.902  0.0885 -0.0587  0.2772
  818YOPS   C2B12304  15.519   6.318   7.352 -0.1452  0.3474 -0.1170
  818YOPS   D3B12305  15.245   6.362   7.718 -0.0477 -0.2220  0.0511
  818YOPS   C4B12306  15.086   6.210   8.117  0.0947  0.2070 -0.2680
  819YOPS   CNO12307   7.218  14.790   5.820  0.4274 -0.1144 -0.0606
  819YOPS   PO412308   7.448  14.891   5.510 -0.0375 -0.3292 -0.3277
  819YOPS   GL112309   7.657  14.941   5.886  0.1705 -0.0924  0.1036
  819YOPS   GL212310   7.595  14.756   6.160 -0.0408  0.1508  0.1511
  819YOPS   C1A12311   7.755  15.209   6.302  0.0994 -0.3372 -0.0111
  819YOPS   D2A12312   8.104  15.394   6.452 -0.0577 -0.2568  0.1350
  819YOPS   C3A12313   8.436  15.471   6.739  0.0920  0.0527  0.1462
  819YOPS   C4A12314   8.448  15.454   7.248  0.1342 -0.1561 -0.1078
  819YOPS   C1B12315   7.526  14.929   6.631  0.0204  0.2032 -0.1821
  819YOPS   C2B12316   7.514  15.055   7.060 -0.0361  0.1278 -0.1159
  819YOPS   D3B12317   7.123  15.143   7.262 -0.1501  0.0553 -0.0882
  819YOPS   C4B12318   6.891  15.101   7.632 -0.0922  0.3391 -0.1261
  820YOPS   CNO12319   6.761  10.499   5.818 -0.3884  0.0981 -0.0782
  820YOPS   PO412320   7.168  10.541   5.831 -0.0045  0.0840 -0.0288
  820YOPS   GL112321   7.388  10.787   6.048 -0.2444  0.1038  0.0727
  820YOPS   GL212322   7.604  10.543   6.139  0.0057 -0.3675 -0.1614
  820YOPS   C1A12323   7.489  10.956   6.434 -0.0496 -0.1171 -0.1300
  820YOPS   D2A12324   7.663  10.872   6.850  0.0561  0.3735  0.2812
  820YOPS   C3A12325   7.565  11.048   7.262 -0.1243  0.1693 -0.2545
  820YOPS   C4A12326   7.837  11.167   7.557 -0.0679  0.1820  0.2682
  820YOPS   C1B12327   7.826  10.536   6.474  0.2950  0.1360  0.0789
  820YOPS   C2B12328   8.087  10.558   6.896  0.0050 -0.1121 -0.0291
  820YOPS   D3B12329   8.302  10.516   7.338 -0.2365  0.2034  0.0078
  820YOPS   C4B12330   8.066  10.691   7.717 -0.2309 -0.0389 -0.2051
  821YOPS   CNO12331   7.261   7.936   6.258  0.3829  0.1570  0.0460
  821YOPS   PO412332   6.872   7.744   6.292  0.2209 -0.0577  0.0088
  821YOPS   GL112333   6.851   7.776   6.673 -0.0858  0.0567 -0.0014
  821YOPS   GL212334   6.702   8.055   6.715  0.0406 -0.1243  0.0188
  821YOPS   C1A12335   6.485   7.680   6.928 -0.0889  0.1316  0.2297
  821YOPS   D2A12336   6.273   7.781   7.297 -0.1353  0.0990 -0.2485
  821YOPS   C3A12337   6.149   8.076   7.703 -0.0439 -0.1739 -0.2918
  821YOPS   C4A12338   6.401   8.065   8.093  0.0007 -0.3315 -0.2332
  821YOPS   C1B12339   6.757   8.003   7.156  0.0019  0.0995 -0.1505
  821YOPS   C2B12340   6.730   7.892   7.630  0.2862  0.2457 -0.1276
  821YOPS   D3B12341   6.746   7.739   8.180  0.1274  0.2934 -0.0483
  821YOPS   C4B12342   7.039   7.514   8.302 -0.1468 -0.1619 -0.0028
  822YOPS   CNO12343   9.163   1.001   5.647 -0.3449  0.4926 -0.0449
  822YOPS   PO412344   8.988   1.151   5.853  0.0164  0.2523 -0.0943
  822YOPS   GL112345   8.875   1.101   6.287  0.1061  0.3960  0.1627
  822YOPS   GL212346   8.815   1.338   6.440 -0.0872  0.0671 -0.1473
  822YOPS   C1A12347   8.955   0.868   6.607 -0.0780  0.0111  0.0725
  822YOPS   D2A12348   8.981   0.563   6.803 -0.2997 -0.0384  0.1065
  822YOPS   C3A12349   9.141   0.489   7.200 -0.1885  0.1629  0.0366
  822YOPS   C4A12350   9.176   0.423   7.654  0.2381  0.0446  0.4046
  822YOPS   C1B12351   8.932   1.405   6.799 -0.0010  0.1177  0.0978
  822YOPS   C2B12352   9.007   1.499   7.165  0.3272 -0.2644  0.0570
  822YOPS   D3B12353   9.312   1.509   7.431  0.4536  0.1825  0.2415
  822YOPS   C4B12354   9.592   1.832   7.733 -0.1331 -0.3235  0.0825
  823YOPS   CNO12355   0.962  18.051   5.439  0.1866  0.1109  0.3871
  823YOPS   PO412356   0.545  18.247   5.426 -0.0226  0.0004  0.3678
  823YOPS   GL112357   0.692  18.264   5.965 -0.2424 -0.2948  0.0007
  823YOPS   GL212358   0.995  18.181   5.991  0.4057 -0.2328  0.3467
  823YOPS   C1A12359   0.677  18.203   6.451  0.1527 -0.0702 -0.1144
  823YOPS   D2A12360   0.329  18.236   6.652 -0.0395  0.1381 -0.2575
  823YOPS   C3A12361  -0.004  18.180   6.955  0.2322  0.2541 -0.0026
  823YOPS   C4A12362   0.055  17.887   7.387 -0.0907  0.1209  0.0253
  823YOPS   C1B12363   1.201  18.273   6.338  0.2480 -0.1116 -0.0515
  823YOPS   C2B12364   1.359  18.578   6.634  0.2480 -0.0218 -0.1169
  823YOPS   D3B12365   1.602  18.832   6.407  0.0472 -0.2467  0.0179
  823YOPS   C4B12366   1.786  19.224   6.390 -0.3662 -0.2476 -0.2678
  824YOPS   CNO12367   9.477   6.039   5.278 -0.2223 -0.0071  0.1164
  824YOPS   PO412368   9.700   6.195   5.608 -0.0397 -0.3399  0.2440
  824YOPS   GL112369   9.882   6.445   5.919 -0.0388  0.2486 -0.2219
  824YOPS   GL212370   9.780   6.712   6.036 -0.3399  0.1446 -0.0771
  824YOPS   C1A12371   9.722   6.525   6.467  0.1912 -0.0792  0.2714
  824YOPS   D2A12372   9.919   6.673   6.903 -0.2581 -0.2560 -0.2568
  824YOPS   C3A12373  10.225   6.814   7.212  0.0161 -0.1674 -0.1328
  824YOPS   C4A12374  10.320   6.921   7.564  0.0062 -0.3781 -0.0029
  824YOPS   C1B12375  10.021   6.913   6.465  0.0028  0.3220  0.1035
  824YOPS   C2B12376  10.333   6.988   6.728  0.0708  0.0199 -0.1197
  824YOPS   D3B12377  10.747   7.077   6.745 -0.0196  0.1654 -0.2928
  824YOPS   C4B12378  11.003   6.886   6.727 -0.0509  0.1873 -0.3964
  825YOPS   CNO12379  15.483   2.214   5.380 -0.2304 -0.0090 -0.1868
  825YOPS   PO412380  15.890   2.065   5.440 -0.0133 -0.3868 -0.0098
  825YOPS   GL112381  16.087   1.880   5.814 -0.2013 -0.2065  0.0503
  825YOPS   GL212382  16.353   1.691   5.944 -0.3134  0.1771  0.1385
  825YOPS   C1A12383  15.876   1.939   6.241 -0.0512  0.0039  0.0184
  825YOPS   D2A12384  15.873   1.974   6.672 -0.1859  0.1560  0.0040
  825YOPS   C3A12385  15.847   2.320   7.056 -0.0654  0.0838  0.4401
  825YOPS   C4A12386  15.930   2.241   7.476 -0.2486 -0.1218  0.4111
  825YOPS   C1B12387  16.426   1.903   6.264 -0.0347  0.0240 -0.0713
  825YOPS   C2B12388  16.507   1.728   6.737 -0.0433  0.0787 -0.0285
  825YOPS   D3B12389  16.516   1.540   7.120  0.1136 -0.0878 -0.1491
  825YOPS   C4B12390  16.522   1.138   7.411 -0.2698 -0.0489  0.1013
  826YOPS   CNO12391   9.395  10.412   5.580 -0.2452  0.0504 -0.1107
  826YOPS   PO412392   9.348  10.663   6.017  0.4056  0.1686  0.1929
  826YOPS   GL112393   9.328  10.400   6.451  0.2933 -0.1825  0.1062
  826YOPS   GL212394   9.082  10.613   6.506 -0.1077 -0.1287 -0.1587
  826YOPS   C1A12395   9.317  10.292   6.847 -0.1234 -0.1081  0.1262
  826YOPS   D2A12396   9.384  10.223   7.296 -0.1485  0.0110 -0.3032
  826YOPS   C3A12397   9.527  10.016   7.578 -0.2539 -0.0106 -0.1669
  826YOPS   C4A12398   9.256   9.746   7.867  0.0180 -0.3098 -0.0242
  826YOPS   C1B12399   9.240  10.791   6.875 -0.1765  0.0833 -0.0494
  826YOPS   C2B12400   9.221  10.683   7.364  0.3300 -0.1837 -0.0351
  826YOPS   D3B12401   8.964  10.792   7.824  0.0160 -0.0466  0.2247
  826YOPS   C4B12402   8.908  10.457   8.091 -0.1035 -0.2246  0.2049
  827YOPS   CNO12403  17.273  10.806   6.085 -0.1394 -0.1033 -0.0202
  827YOPS   PO412404  16.860  11.003   6.136 -0.1771 -0.0587  0.0998
  827YOPS   GL112405  16.627  11.138   6.479  0.2672  0.2313  0.2972
  827YOPS   GL212406  16.220  11.185   6.413 -0.1100  0.0739  0.1402
  827YOPS   C1A12407  16.429  11.331   6.811  0.0957 -0.1526  0.0383
  827YOPS   D2A12408  16.443  11.394   7.335 -0.1162  0.0155  0.2200
  827YOPS   C3A12409  16.616  11.130   7.707 -0.2066  0.3613  0.2694
  827YOPS   C4A12410  16.972  11.078   7.841  0.1615 -0.0053 -0.1023
  827YOPS   C1B12411  15.929  11.282   6.821 -0.4902  0.0923 -0.1463
  827YOPS   C2B12412  15.959  11.345   7.270  0.1799 -0.3088 -0.1870
  827YOPS   D3B12413  15.867  11.533   7.669 -0.0909 -0.1809  0.1855
  827YOPS   C4B12414  15.596  11.875   7.815 -0.3486  0.0773 -0.4368
  828YOPS   CNO12415   2.785   4.020   5.952 -0.1081 -0.1099  0.0048
  828YOPS   PO412416   3.028   3.681   5.786 -0.2045 -0.2478 -0.1152
  828YOPS   GL112417   3.057   3.554   6.148  0.0695  0.0845 -0.0297
  828YOPS   GL212418   3.182   3.714   6.335 -0.0338 -0.1610  0.0042
  828YOPS   C1A12419   3.304   3.322   6.523 -0.0307 -0.0158  0.2606
  828YOPS   D2A12420   3.517   3.037   6.743  0.1624  0.2169  0.2283
  828YOPS   C3A12421   3.545   2.968   7.163 -0.0046 -0.0841  0.2773
  828YOPS   C4A12422   3.978   3.084   7.368  0.4237  0.3163  0.0425
  828YOPS   C1B12423   3.198   3.847   6.717  0.0489 -0.0036 -0.3610
  828YOPS   C2B12424   3.279   3.876   7.156 -0.2262 -0.0076 -0.4448
  828YOPS   D3B12425   3.460   3.672   7.472  0.1750 -0.1322  0.0143
  828YOPS   C4B12426   3.281   3.499   7.848  0.4493 -0.0440 -0.0468
  829YOPS   CNO12427   4.597   6.125   5.871 -0.0881  0.0031  0.0269
  829YOPS   PO412428   4.364   5.882   6.189 -0.1922 -0.1833  0.1198
  829YOPS   GL112429   4.423   5.936   6.535  0.0887 -0.3530 -0.2058
  829YOPS   GL212430   4.676   5.960   6.711 -0.2397  0.0771  0.2576
  829YOPS   C1A12431   4.148   6.098   6.905 -0.0139 -0.0178 -0.1926
  829YOPS   D2A12432   4.291   6.281   7.315  0.0726 -0.0973 -0.0960
  829YOPS   C3A12433   4.333   6.461   7.790 -0.0600 -0.4504  0.1444
  829YOPS   C4A12434   4.409   6.365   8.108  0.0650  0.0257 -0.1367
  829YOPS   C1B12435   4.559   5.925   7.120 -0.4347 -0.1777 -0.6131
  829YOPS   C2B12436   4.439   5.645   7.473 -0.1907  0.0205  0.0656
  829YOPS   D3B12437   4.313   5.225   7.810  0.2650  0.1260 -0.3037
  829YOPS   C4B12438   4.007   5.256   8.134 -0.1953 -0.0959 -0.2025
  830YOPS   CNO12439  11.943  12.609   5.560  0.1653 -0.1272  0.3490
  830YOPS   PO412440  12.132  12.330   5.754  0.1302 -0.2689 -0.0416
  830YOPS   GL112441  12.222  12.169   6.099  0.2387 -0.0563  0.2198
  830YOPS   GL212442  12.519  11.928   6.209  0.0425  0.0281 -0.2838
  830YOPS   C1A12443  12.145  12.007   6.463 -0.0337 -0.1154 -0.0034
  830YOPS   D2A12444  12.042  11.911   6.989 -0.1922  0.3640  0.0057
  830YOPS   C3A12445  11.998  11.945   7.398 -0.0608 -0.2557 -0.2109
  830YOPS   C4A12446  12.341  11.824   7.741 -0.3694 -0.1080 -0.2212
  830YOPS   C1B12447  12.696  11.968   6.651  0.1644 -0.0967  0.2892
  830YOPS   C2B12448  12.919  12.223   6.954 -0.0816  0.2984  0.1488
  830YOPS   D3B12449  12.957  12.264   7.401 -0.1741  0.0446  0.0906
  830YOPS   C4B12450  13.260  12.256   7.735  0.0963 -0.0468 -0.0100
  831POPE   NH312451  11.228   4.830   5.653 -0.1288 -0.0027  0.1221
  831POPE   PO412452  11.479   4.330   5.675  0.0502 -0.0369 -0.0513
  831POPE   GL112453  11.205   4.229   5.983 -0.0349 -0.4049  0.0149
  831POPE   GL212454  11.035   4.506   6.123  0.1006  0.0861  0.0282
  831POPE   C1A12455  11.402   4.173   6.436 -0.0341  0.1790 -0.1511
  831POPE   D2A12456  11.550   3.819   6.708 -0.0269  0.1172  0.3793
  831POPE   C3A12457  11.485   3.839   7.110 -0.1283  0.0968 -0.0030
  831POPE   C4A12458  11.231   4.110   7.409  0.0165  0.1065  0.3026
  831POPE   C1B12459  10.941   4.835   6.489 -0.2129  0.4239 -0.2435
  831POPE   C2B12460  10.607   4.974   6.740 -0.2368 -0.1711 -0.0556
  831POPE   C3B12461  10.641   5.223   6.983 -0.1635 -0.1259 -0.0361
  831POPE   C4B12462  10.649   5.516   7.258  0.1903  0.0547  0.0511
  832POPE   NH312463   1.203   3.307   5.931 -0.0197 -0.3481  0.1858
  832POPE   PO412464   0.978   3.711   5.834  0.2360 -0.3835  0.1705
  832POPE   GL112465   0.880   3.717   6.305 -0.0135 -0.1159 -0.3353
  832POPE   GL212466   1.083   3.554   6.416 -0.2234  0.0752  0.1861
  832POPE   C1A12467   0.578   3.856   6.651  0.0741  0.1354 -0.1415
  832POPE   D2A12468   0.638   3.798   7.036 -0.2007 -0.4288 -0.1420
  832POPE   C3A12469   0.707   4.038   7.420 -0.0779 -0.1751 -0.0686
  832POPE   C4A12470   0.854   4.276   7.733  0.1025  0.0882 -0.1923
  832POPE   C1B12471   1.044   3.747   6.748  0.1362  0.1912 -0.1541
  832POPE   C2B12472   1.461   3.853   6.831 -0.0140 -0.1387 -0.1181
  832POPE   C3B12473   1.699   3.558   7.200  0.1138  0.0041  0.5293
  832POPE   C4B12474   1.787   3.336   7.422 -0.2978  0.0593  0.1588
  833POPE   NH312475   9.013   3.406   5.769  0.2054 -0.0102  0.2407
  833POPE   PO412476   8.783   3.827   5.588  0.3540 -0.1420  0.1726
  833POPE   GL112477   8.751   3.806   6.116 -0.1943  0.0312 -0.1134
  833POPE   GL212478   8.936   4.073   6.141 -0.0348 -0.3795 -0.3128
  833POPE   C1A12479   8.511   3.847   6.397  0.2564 -0.1636 -0.0538
  833POPE   D2A12480   8.290   4.029   6.744  0.1747 -0.0704 -0.0312
  833POPE   C3A12481   8.055   4.322   6.651 -0.0168 -0.0484  0.1623
  833POPE   C4A12482   7.744   4.624   6.669 -0.1452  0.0562  0.0511
  833POPE   C1B12483   9.019   3.967   6.514  0.0907 -0.0967  0.0482
  833POPE   C2B12484   8.804   4.161   6.859 -0.0890  0.0238 -0.0648
  833POPE   C3B12485   8.739   4.127   7.249 -0.2761  0.5759  0.0393
  833POPE   C4B12486   8.588   3.723   7.535 -0.0086 -0.1176 -0.4900
  834POPE   NH312487   7.838  17.759   5.830 -0.1125 -0.3090 -0.0277
  834POPE   PO412488   7.889  18.225   5.915 -0.0506  0.1579 -0.0960
  834POPE   GL112489   7.953  18.096   6.269  0.3710  0.1979  0.1038
  834POPE   GL212490   7.951  17.674   6.314  0.1996 -0.1292  0.1686
  834POPE   C1A12491   7.929  18.243   6.739 -0.1618 -0.0249  0.2990
  834POPE   D2A12492   7.813  18.105   7.156  0.0888  0.0017 -0.1946
  834POPE   C3A12493   7.848  18.394   7.400 -0.0273 -0.3417 -0.0340
  834POPE   C4A12494   8.070  18.540   7.679 -0.1945 -0.1185  0.0464
  834POPE   C1B12495   7.865  17.716   6.714 -0.2536 -0.1452 -0.0081
  834POPE   C2B12496   8.242  17.950   6.899 -0.0995  0.2944  0.2368
  834POPE   C3B12497   8.308  18.225   7.251 -0.0401  0.0545 -0.0062
  834POPE   C4B12498   8.488  18.371   7.649  0.0628  0.4887  0.0312
  835POPE   NH312499  10.923   6.224   5.512 -0.0628  0.1448  0.1544
  835POPE   PO412500  11.358   6.060   5.547 -0.2123  0.1047 -0.0377
  835POPE   GL112501  11.308   5.952   5.953  0.4382  0.1640  0.2310
  835POPE   GL212502  10.969   6.167   5.989  0.0398 -0.1176 -0.3763
  835POPE   C1A12503  11.184   6.024   6.463  0.0947 -0.2460 -0.2990
  835POPE   D2A12504  11.100   6.418   6.560  0.0402 -0.1397  0.1002
  835POPE   C3A12505  10.644   6.564   6.518  0.0935 -0.3142 -0.2048
  835POPE   C4A12506  10.272   6.447   6.629 -0.1521 -0.0503 -0.2475
  835POPE   C1B12507  10.669   6.069   6.229  0.0490  0.0088 -0.2100
  835POPE   C2B12508  10.663   6.073   6.663  0.1997  0.2979 -0.2869
  835POPE   C3B12509  10.899   6.328   6.993  0.1373 -0.0230  0.4915
  835POPE   C4B12510  11.011   6.054   7.341  0.2928  0.0248  0.0061
  836POPE   NH312511   4.837   6.480   6.236  0.0286 -0.1123  0.0304
  836POPE   PO412512   4.429   6.471   6.248  0.3016 -0.1035 -0.0769
  836POPE   GL112513   4.443   6.465   6.702 -0.0034 -0.1116 -0.1436
  836POPE   GL212514   4.013   6.434   6.633 -0.1705  0.0241 -0.0022
  836POPE   C1A12515   4.600   6.513   7.043 -0.5795  0.0881  0.1312
  836POPE   D2A12516   4.632   6.652   7.443  0.1766 -0.0907 -0.0547
  836POPE   C3A12517   4.468   6.916   7.404  0.1106 -0.0908  0.1333
  836POPE   C4A12518   4.311   7.060   6.991 -0.1644 -0.2107 -0.0796
  836POPE   C1B12519   4.106   6.612   7.024  0.3692  0.3110 -0.1849
  836POPE   C2B12520   3.960   6.741   7.414  0.2303  0.4740 -0.0180
  836POPE   C3B12521   3.844   7.057   7.738 -0.0771  0.1131 -0.1150
  836POPE   C4B12522   3.883   7.239   8.128 -0.2270  0.1005  0.0034
  837POPE   NH312523   4.272   4.539   5.821 -0.3881 -0.1862 -0.0097
  837POPE   PO412524   4.337   4.370   5.338 -0.1468  0.0362 -0.1589
  837POPE   GL112525   4.367   4.032   5.660 -0.3205 -0.1560  0.1642
  837POPE   GL212526   4.147   4.054   5.952  0.0362 -0.1751  0.1607
  837POPE   C1A12527   4.585   3.856   6.119  0.1968 -0.1112  0.0048
  837POPE   D2A12528   4.729   3.608   6.400 -0.3540  0.0052  0.0082
  837POPE   C3A12529   4.751   3.719   6.800 -0.0020  0.0886  0.1688
  837POPE   C4A12530   4.848   3.676   7.233 -0.4019 -0.1824 -0.1342
  837POPE   C1B12531   4.116   3.971   6.361 -0.0300 -0.4224  0.3945
  837POPE   C2B12532   4.249   3.759   6.727  0.1065 -0.1490  0.0474
  837POPE   C3B12533   4.390   3.898   7.175  0.1907  0.2768 -0.1826
  837POPE   C4B12534   4.531   3.820   7.539 -0.0834  0.3043  0.0791
  838POPE   NH312535  15.053   3.876   5.303  0.0778 -0.0594 -0.4040
  838POPE   PO412536  15.151   3.594   5.541  0.0084 -0.1439 -0.5668
  838POPE   GL112537  15.007   3.471   5.945  0.2874 -0.1763 -0.1405
  838POPE   GL212538  15.256   3.312   6.064  0.2948  0.0736 -0.0170
  838POPE   C1A12539  14.939   3.649   6.304  0.1610  0.2342  0.0404
  838POPE   D2A12540  14.744   3.996   6.268  0.3268  0.3111 -0.3305
  838POPE   C3A12541  14.951   4.265   6.616  0.3042  0.0656 -0.3075
  838POPE   C4A12542  14.977   4.132   6.976  0.1601  0.2066  0.0619
  838POPE   C1B12543  15.250   3.360   6.497  0.3012  0.0194 -0.0067
  838POPE   C2B12544  15.040   3.418   6.788  0.1634  0.0285 -0.1514
  838POPE   C3B12545  14.882   3.685   7.122  0.0728  0.2140  0.0435
  838POPE   C4B12546  14.910   3.704   7.659  0.2127 -0.2414  0.0429
  839POPE   NH312547  10.869  15.675   5.527  0.0401  0.0371 -0.1318
  839POPE   PO412548  11.015  16.098   5.660 -0.0106  0.0469 -0.0224
  839POPE   GL112549  10.789  15.856   6.091 -0.1646 -0.2404 -0.0068
  839POPE   GL212550  10.609  15.570   5.996  0.1787  0.0542  0.4306
  839POPE   C1A12551  10.755  15.948   6.477 -0.0087  0.2121  0.2638
  839POPE   D2A12552  10.968  16.032   6.948 -0.1253 -0.1384  0.0048
  839POPE   C3A12553  11.392  15.918   7.022  0.1037  0.1069  0.0856
  839POPE   C4A12554  11.676  15.613   6.971 -0.1766  0.2380  0.1237
  839POPE   C1B12555  10.441  15.476   6.430 -0.0198 -0.1853 -0.1119
  839POPE   C2B12556  10.420  15.248   6.821 -0.1719 -0.2108 -0.0116
  839POPE   C3B12557  10.570  15.202   7.270 -0.0202 -0.4812  0.0968
  839POPE   C4B12558  10.485  15.206   7.811 -0.2256  0.0062 -0.1821
  840POPE   NH312559   5.135  17.937   5.601 -0.1424  0.1475 -0.3858
  840POPE   PO412560   4.938  18.185   5.834 -0.2467  0.0490  0.0590
  840POPE   GL112561   4.957  18.412   6.263  0.0730 -0.0488 -0.0653
  840POPE   GL212562   4.757  18.518   6.255  0.1628 -0.1628 -0.0742
  840POPE   C1A12563   5.198  18.487   6.683  0.1394 -0.1085  0.0928
  840POPE   D2A12564   5.122  18.490   7.095 -0.1702 -0.2136  0.3931
  840POPE   C3A12565   5.143  18.805   7.436 -0.4068 -0.0084 -0.0084
  840POPE   C4A12566   5.159  19.144   7.771 -0.0975 -0.0408  0.2840
  840POPE   C1B12567   4.785  18.727   6.611 -0.3302 -0.2910 -0.0041
  840POPE   C2B12568   4.822  18.839   7.057 -0.0438  0.0884 -0.1043
  840POPE   C3B12569   4.727  18.533   7.331  0.2398  0.0595 -0.1877
  840POPE   C4B12570   4.426  18.473   7.623  0.1273 -0.1235  0.3016
  841POPE   NH312571   4.039  10.677   5.733  0.1589 -0.1315  0.0109
  841POPE   PO412572   4.476  10.498   5.694 -0.3744  0.2699 -0.0835
  841POPE   GL112573   4.496  10.508   6.119 -0.2778 -0.0003 -0.3239
  841POPE   GL212574   4.123  10.648   6.270 -0.1882 -0.2435  0.0665
  841POPE   C1A12575   4.507  10.452   6.617 -0.0468 -0.2099 -0.1108
  841POPE   D2A12576   4.839  10.329   6.933 -0.0435 -0.1353 -0.1018
  841POPE   C3A12577   5.028  10.627   7.232  0.0774 -0.0612  0.4654
  841POPE   C4A12578   5.276  10.826   7.576  0.1506 -0.1869  0.3228
  841POPE   C1B12579   4.018  10.453   6.649 -0.1107 -0.0161  0.0937
  841POPE   C2B12580   4.253  10.536   7.069  0.1877 -0.4177 -0.0459
  841POPE   C3B12581   4.489  10.860   7.107 -0.0526  0.3010  0.1682
  841POPE   C4B12582   4.828  11.033   7.457 -0.1910 -0.1431 -0.1950
  842POPE   NH312583   1.493   2.832   5.911 -0.1169 -0.3814  0.1023
  842POPE   PO412584   1.655   2.423   5.816  0.0877 -0.3999 -0.2887
  842POPE   GL112585   1.788   2.600   6.246  0.1502  0.5575  0.3227
  842POPE   GL212586   2.056   2.444   6.382 -0.0576 -0.2212 -0.2221
  842POPE   C1A12587   2.081   2.956   6.537 -0.2212  0.1779 -0.0669
  842POPE   D2A12588   2.263   3.155   6.864  0.0598 -0.2461 -0.3803
  842POPE   C3A12589   2.510   3.338   7.166 -0.0056 -0.0936  0.1537
  842POPE   C4A12590   2.284   3.433   7.614  0.0222 -0.1268  0.1105
  842POPE   C1B12591   1.928   2.439   6.788 -0.1415  0.0426  0.2649
  842POPE   C2B12592   1.846   2.254   7.169 -0.1057 -0.1591  0.0086
  842POPE   C3B12593   1.932   2.411   7.570  0.0078  0.0056 -0.2626
  842POPE   C4B12594   2.269   2.532   7.785 -0.0785 -0.1592 -0.2461
  843POPE   NH312595   9.702  11.641   5.794 -0.0553  0.0908 -0.1993
  843POPE   PO412596   9.344  11.816   5.849  0.1821  0.0699 -0.1830
  843POPE   GL112597   9.010  11.956   6.123  0.0000 -0.1389 -0.0919
  843POPE   GL212598   9.038  12.225   6.147 -0.1247 -0.2828 -0.0765
  843POPE   C1A12599   9.057  11.792   6.569 -0.1656  0.1751 -0.1383
  843POPE   D2A12600   9.025  11.596   7.044 -0.0697  0.1065  0.1036
  843POPE   C3A12601   8.661  11.588   7.387  0.1950  0.1517  0.0922
  843POPE   C4A12602   8.596  11.549   7.849  0.0469 -0.1472  0.1896
  843POPE   C1B12603   8.912  12.320   6.601 -0.3340 -0.3882  0.1194
  843POPE   C2B12604   9.087  12.062   6.958  0.1933  0.1874  0.0686
  843POPE   C3B12605   9.156  12.077   7.413  0.0261  0.0560  0.0963
  843POPE   C4B12606   9.094  11.752   7.774 -0.0618  0.0434  0.0866
  844POPE   NH312607   9.448   6.657   5.669 -0.3406  0.0190  0.3575
  844POPE   PO412608   9.022   6.793   5.805 -0.2534 -0.2186 -0.3214
  844POPE   GL112609   9.101   6.585   6.105 -0.1301  0.1991 -0.0595
  844POPE   GL212610   9.423   6.405   6.087 -0.0543 -0.1165 -0.0880
  844POPE   C1A12611   9.196   6.433   6.485  0.1997 -0.0730  0.2124
  844POPE   D2A12612   9.320   6.313   6.990 -0.0512 -0.1676  0.0626
  844POPE   C3A12613   9.415   5.899   7.216 -0.1319  0.1197  0.0456
  844POPE   C4A12614   9.642   5.636   7.636 -0.1656 -0.0947  0.0500
  844POPE   C1B12615   9.655   6.083   6.314  0.0973  0.3663  0.3798
  844POPE   C2B12616   9.795   6.174   6.820  0.1704  0.1388  0.0994
  844POPE   C3B12617   9.871   6.293   7.220  0.1554 -0.2008  0.4174
  844POPE   C4B12618   9.866   6.533   7.566 -0.0949  0.2327  0.3380
  845POPE   NH312619  14.254  11.510   5.487  0.1156  0.0679 -0.1641
  845POPE   PO412620  13.979  11.246   5.744  0.2204 -0.0284  0.2487
  845POPE   GL112621  14.224  11.447   6.117  0.1889  0.2056 -0.0759
  845POPE   GL212622  14.556  11.698   6.049 -0.3748 -0.2252 -0.1764
  845POPE   C1A12623  14.024  11.499   6.459  0.1465  0.1480  0.2663
  845POPE   D2A12624  14.147  11.834   6.794 -0.1413  0.0860 -0.0407
  845POPE   C3A12625  13.831  12.022   7.144 -0.0095  0.1509  0.1268
  845POPE   C4A12626  13.410  12.117   7.240  0.1140  0.1127  0.1636
  845POPE   C1B12627  14.671  11.794   6.445  0.2842 -0.0781  0.1048
  845POPE   C2B12628  14.661  11.890   6.909 -0.0058 -0.3496  0.0273
  845POPE   C3B12629  14.784  11.818   7.301  0.4639  0.0054 -0.2746
  845POPE   C4B12630  14.962  11.785   7.638  0.2202  0.1157 -0.1378
  846POPE   NH312631  10.692  14.977   5.503  0.1039 -0.0954 -0.1000
  846POPE   PO412632  10.873  15.214   5.782  0.2998 -0.0523 -0.1752
  846POPE   GL112633  10.503  15.083   5.993 -0.1958  0.0168  0.4869
  846POPE   GL212634  10.727  14.718   6.011  0.0620  0.0316 -0.1439
  846POPE   C1A12635  10.179  15.047   6.373 -0.1972  0.1761 -0.0213
  846POPE   D2A12636   9.824  14.897   6.235 -0.0306  0.1898 -0.1124
  846POPE   C3A12637   9.748  14.454   6.413  0.1666 -0.0148 -0.0313
  846POPE   C4A12638   9.645  14.109   6.389  0.3202 -0.3108 -0.2243
  846POPE   C1B12639  10.777  14.764   6.508  0.0315  0.0650 -0.0838
  846POPE   C2B12640  10.984  14.574   6.900  0.1668  0.0181  0.0680
  846POPE   C3B12641  11.266  14.550   7.248  0.0260 -0.4397 -0.0652
  846POPE   C4B12642  11.331  14.648   7.628 -0.1455  0.0840  0.0562
  847POPE   NH312643   5.726  18.498   5.597 -0.0243 -0.0148  0.2082
  847POPE   PO412644   5.401  18.495   5.910 -0.0011 -0.1378 -0.0575
  847POPE   GL112645   5.604  18.464   6.359 -0.0102 -0.1706  0.1394
  847POPE   GL212646   5.768  18.640   6.398 -0.0138  0.0844  0.2138
  847POPE   C1A12647   5.616  18.293   6.733  0.2219  0.0841 -0.0894
  847POPE   D2A12648   5.552  18.250   7.119 -0.2202  0.0581  0.1450
  847POPE   C3A12649   5.634  18.480   7.563  0.0864  0.0347 -0.1962
  847POPE   C4A12650   5.399  18.609   7.870 -0.2300  0.0889 -0.1057
  847POPE   C1B12651   5.974  18.665   6.707  0.0219  0.0036 -0.0817
  847POPE   C2B12652   6.044  18.327   6.991 -0.0992 -0.1335  0.2226
  847POPE   C3B12653   6.097  18.317   7.417  0.1213  0.3190 -0.1533
  847POPE   C4B12654   6.129  18.388   7.788  0.0665 -0.0090 -0.3751
  848POPE   NH312655   9.787   9.661   5.865 -0.0631  0.0906 -0.3709
  848POPE   PO412656  10.190   9.433   5.862  0.1440 -0.3073  0.2855
  848POPE   GL112657  10.025   9.349   6.183 -0.1337 -0.0261 -0.0200
  848POPE   GL212658   9.745   9.116   6.221 -0.0612  0.0251  0.0252
  848POPE   C1A12659  10.060   9.216   6.609 -0.1169 -0.0690  0.2711
  848POPE   D2A12660  10.290   9.098   6.912  0.0427  0.0447  0.0712
  848POPE   C3A12661  10.362   8.861   7.230  0.1797  0.4976  0.1361
  848POPE   C4A12662  10.529   9.109   7.629  0.5666  0.1743  0.0847
  848POPE   C1B12663   9.744   8.834   6.745  0.1010  0.2413 -0.1023
  848POPE   C2B12664   9.868   8.904   7.161 -0.3290 -0.0475 -0.0530
  848POPE   C3B12665   9.704   9.110   7.481  0.0454  0.0784  0.1511
  848POPE   C4B12666   9.465   9.171   7.875 -0.1529 -0.2501 -0.1658
  849POPE   NH312667  13.371  10.171   5.571 -0.0270 -0.0361  0.0527
  849POPE   PO412668  13.096  10.124   5.801  0.3518 -0.0704  0.0912
  849POPE   GL112669  13.184  10.449   6.116 -0.0245  0.1547 -0.1994
  849POPE   GL212670  13.538  10.446   6.304 -0.0824 -0.2315  0.1661
  849POPE   C1A12671  12.986  10.585   6.429  0.0345  0.3409  0.0284
  849POPE   D2A12672  12.592  10.827   6.478  0.2518  0.3578  0.3628
  849POPE   C3A12673  12.502  11.116   6.743 -0.4467  0.0150  0.5301
  849POPE   C4A12674  12.336  11.592   6.824  0.1170 -0.0079  0.1922
  849POPE   C1B12675  13.441  10.081   6.630  0.2129 -0.0487  0.0812
  849POPE   C2B12676  13.649  10.032   7.008  0.1286 -0.0581  0.0533
  849POPE   C3B12677  14.003   9.943   7.328 -0.3047  0.3231  0.0154
  849POPE   C4B12678  14.144   9.651   7.684 -0.3298  0.2709  0.3731
  850POPE   NH312679   6.408  14.903   5.297 -0.2066 -0.0280 -0.1121
  850POPE   PO412680   6.252  15.296   5.267  0.0758  0.2991 -0.1105
  850POPE   GL112681   6.166  15.157   5.742 -0.0124  0.0949 -0.2613
  850POPE   GL212682   6.457  15.080   5.824  0.1881  0.1931  0.2300
  850POPE   C1A12683   6.180  15.128   6.269  0.0563  0.2062  0.1587
  850POPE   D2A12684   6.450  15.163   6.625  0.0313 -0.1796  0.1871
  850POPE   C3A12685   6.315  15.230   7.061  0.1550 -0.0991 -0.2410
  850POPE   C4A12686   6.349  15.174   7.557  0.0212 -0.0755 -0.1925
  850POPE   C1B12687   6.689  14.941   6.167 -0.1908 -0.1267 -0.2065
  850POPE   C2B12688   6.385  14.718   6.449 -0.1193 -0.1768 -0.0061
  850POPE   C3B12689   6.261  14.744   6.903 -0.2369  0.6333  0.1903
  850POPE   C4B12690   6.270  14.709   7.306 -0.0169 -0.2635  0.2176
  851POPE   NH312691  12.782  15.718   5.259 -0.2353  0.1590 -0.1282
  851POPE   PO412692  12.749  15.992   5.464 -0.0945  0.2244  0.0321
  851POPE   GL112693  12.435  15.934   5.831  0.2625  0.4187 -0.0904
  851POPE   GL212694  12.368  16.243   5.825 -0.0984  0.3290 -0.0982
  851POPE   C1A12695  12.527  15.969   6.235 -0.0855  0.2307 -0.0141
  851POPE   D2A12696  12.487  15.900   6.706 -0.1252  0.0243  0.0246
  851POPE   C3A12697  12.498  15.461   6.802 -0.0058  0.0802 -0.5817
  851POPE   C4A12698  12.534  15.367   7.281 -0.2062 -0.3423  0.2150
  851POPE   C1B12699  12.075  16.315   6.070 -0.1989  0.1354 -0.0696
  851POPE   C2B12700  11.749  16.498   6.253 -0.1326 -0.1013  0.1252
  851POPE   C3B12701  11.367  16.658   6.220 -0.0423 -0.4659  0.0894
  851POPE   C4B12702  10.938  16.465   6.257  0.0135  0.1151 -0.2453
  852POPE   NH312703  11.869  14.954   6.005 -0.0607  0.1043  0.0258
  852POPE   PO412704  11.603  14.694   5.922 -0.0493 -0.0264 -0.1298
  852POPE   GL112705  11.271  14.483   6.076  0.0479 -0.0561 -0.2325
  852POPE   GL212706  11.144  14.204   6.009  0.2141 -0.2223  0.1335
  852POPE   C1A12707  11.214  14.391   6.521 -0.0855 -0.3526 -0.1626
  852POPE   D2A12708  11.482  14.358   6.858 -0.1665 -0.3588  0.0958
  852POPE   C3A12709  11.929  14.479   6.870  0.1444 -0.3119  0.3275
  852POPE   C4A12710  12.327  14.261   7.003 -0.0831 -0.2727 -0.0943
  852POPE   C1B12711  10.787  14.239   6.316  0.0468  0.2266 -0.1128
  852POPE   C2B12712  10.621  14.268   6.679  0.0618 -0.1211  0.0711
  852POPE   C3B12713  10.502  14.160   7.063 -0.1558  0.1065  0.0571
  852POPE   C4B12714  10.519  14.183   7.466  0.0586  0.1847  0.2584
  853POPE   NH312715   0.105  15.826   6.333  0.0201  0.3330  0.0991
  853POPE   PO412716   0.427  15.660   6.113 -0.2515  0.1042  0.1327
  853POPE   GL112717   0.543  15.645   6.504  0.2691  0.0065  0.0171
  853POPE   GL212718   0.318  15.467   6.774  0.1578  0.0418 -0.2747
  853POPE   C1A12719   0.871  15.747   6.824 -0.0030 -0.2361  0.2005
  853POPE   D2A12720   0.961  16.016   7.159 -0.0790 -0.2402 -0.2612
  853POPE   C3A12721   0.565  16.280   7.188 -0.0403 -0.1497  0.0051
  853POPE   C4A12722   0.299  16.418   7.443  0.1096 -0.2854  0.1831
  853POPE   C1B12723   0.586  15.209   7.177 -0.0502 -0.0454  0.2938
  853POPE   C2B12724   0.967  14.956   7.106  0.1693 -0.1496 -0.2982
  853POPE   C3B12725   1.352  14.996   7.200 -0.2151  0.1976 -0.0893
  853POPE   C4B12726   1.600  15.073   7.637 -0.2025  0.2355 -0.1776
  854POPE   NH312727   0.698  17.381   5.808  0.0503 -0.0714  0.2182
  854POPE   PO412728   0.944  17.683   5.790 -0.2213 -0.0240 -0.1674
  854POPE   GL112729   0.840  17.745   6.189 -0.2617  0.0325 -0.1269
  854POPE   GL212730   0.446  17.625   6.280  0.0094  0.1965 -0.0389
  854POPE   C1A12731   1.026  17.832   6.673  0.1529 -0.2631 -0.0470
  854POPE   D2A12732   1.141  18.135   6.894  0.0266 -0.1485 -0.1539
  854POPE   C3A12733   1.165  17.988   7.172 -0.0166 -0.4457  0.3125
  854POPE   C4A12734   1.304  17.769   7.499  0.0418 -0.3712 -0.0269
  854POPE   C1B12735   0.499  17.746   6.553 -0.1521 -0.1211  0.0226
  854POPE   C2B12736   0.557  17.961   7.002  0.1625 -0.0868 -0.2090
  854POPE   C3B12737   0.769  18.290   7.261 -0.0699 -0.3172  0.3913
  854POPE   C4B12738   0.691  18.752   7.482 -0.3105  0.0035 -0.0660
  855POPE   NH312739   6.032  12.468   5.793  0.2069  0.1421 -0.0936
  855POPE   PO412740   6.471  12.528   5.895  0.1106 -0.1177  0.0342
  855POPE   GL112741   6.602  12.245   6.300 -0.2391  0.0839 -0.3119
  855POPE   GL212742   6.486  12.471   6.473  0.0957  0.3453  0.3527
  855POPE   C1A12743   6.411  11.973   6.568  0.0859 -0.1833  0.2849
  855POPE   D2A12744   6.331  11.824   6.928 -0.4077 -0.0783  0.1758
  855POPE   C3A12745   6.578  11.542   7.227  0.1967 -0.3824 -0.0672
  855POPE   C4A12746   6.698  11.072   7.277  0.2685 -0.1318 -0.2082
  855POPE   C1B12747   6.444  12.324   6.908  0.2601  0.0504  0.3429
  855POPE   C2B12748   6.580  12.161   7.299 -0.0126  0.0925  0.1546
  855POPE   C3B12749   6.579  12.396   7.683  0.3017 -0.0054 -0.0132
  855POPE   C4B12750   6.918  12.506   8.031 -0.3810  0.1104  0.2773
  856POPE   NH312751  12.355  16.243   5.254 -0.2627  0.2034 -0.0830
  856POPE   PO412752  12.129  16.545   5.495  0.1617 -0.2647  0.0317
  856POPE   GL112753  12.229  16.705   5.852  0.0055 -0.1190 -0.3807
  856POPE   GL212754  11.982  16.924   5.911 -0.1533  0.1288 -0.0763
  856POPE   C1A12755  12.277  16.663   6.374 -0.1055 -0.0768  0.0089
  856POPE   D2A12756  12.601  16.389   6.698 -0.0943  0.0448 -0.0088
  856POPE   C3A12757  12.818  16.331   7.014  0.1098  0.1216 -0.1540
  856POPE   C4A12758  12.804  16.220   7.441  0.2940  0.0994  0.0353
  856POPE   C1B12759  11.838  17.073   6.247 -0.1106  0.1603 -0.1435
  856POPE   C2B12760  11.705  16.836   6.624  0.1273  0.1782 -0.1607
  856POPE   C3B12761  11.634  16.516   6.806 -0.0613 -0.1393  0.3460
  856POPE   C4B12762  11.261  16.502   7.071 -0.0023 -0.0759 -0.1398
  857POPE   NH312763  16.963   7.681   5.937 -0.1879  0.1162  0.0176
  857POPE   PO412764  16.667   7.460   5.642  0.2482  0.1558 -0.0612
  857POPE   GL112765  16.623   7.343   6.051 -0.0731  0.0094 -0.0406
  857POPE   GL212766  16.703   7.036   6.241  0.0944  0.1538  0.0798
  857POPE   C1A12767  16.249   7.386   6.290 -0.0869  0.3190  0.0667
  857POPE   D2A12768  15.928   7.443   6.585  0.0512 -0.3069 -0.0030
  857POPE   C3A12769  15.413   7.415   6.507  0.0068 -0.1173 -0.1532
  857POPE   C4A12770  15.203   7.288   6.775 -0.1124  0.0778  0.2274
  857POPE   C1B12771  16.677   7.107   6.540  0.0233  0.1573  0.2078
  857POPE   C2B12772  16.928   7.261   6.848 -0.2001  0.1680  0.0334
  857POPE   C3B12773  17.244   7.269   7.163 -0.1545 -0.2028 -0.0730
  857POPE   C4B12774  17.292   7.361   7.618  0.2505 -0.1996 -0.2474
  858POPE   NH312775  14.926  16.562   5.866 -0.0360 -0.0050  0.1003
  858POPE   PO412776  14.515  16.746   5.959 -0.0289 -0.2143  0.3399
  858POPE   GL112777  14.685  16.610   6.273 -0.2486  0.1524 -0.0528
  858POPE   GL212778  14.548  16.308   6.188 -0.1507 -0.0140  0.0371
  858POPE   C1A12779  14.960  16.737   6.679 -0.2511  0.0468  0.0660
  858POPE   D2A12780  15.062  16.720   7.101 -0.2965  0.0503  0.0229
  858POPE   C3A12781  15.411  16.659   7.382  0.2517 -0.3105 -0.0713
  858POPE   C4A12782  15.725  16.723   7.644  0.1984 -0.1119 -0.1773
  858POPE   C1B12783  14.556  16.106   6.551  0.0252  0.2124  0.0500
  858POPE   C2B12784  14.468  15.927   6.825 -0.2564 -0.0063  0.1121
  858POPE   C3B12785  14.248  15.675   7.216  0.0267  0.0281  0.0301
  858POPE   C4B12786  13.841  15.433   7.266 -0.2283  0.0702 -0.3327
  859YOPE   NH312787  12.389  17.073   5.592 -0.3666  0.0866  0.3632
  859YOPE   PO412788  12.222  17.505   5.612 -0.0033  0.1132  0.1104
  859YOPE   GL112789  12.034  17.445   6.013  0.2526 -0.0313  0.1083
  859YOPE   GL212790  12.410  17.256   6.090 -0.2285  0.2953  0.0114
  859YOPE   C1A12791  12.021  17.601   6.471  0.0656  0.4560 -0.3234
  859YOPE   D2A12792  11.909  17.685   6.886 -0.0556  0.0048 -0.2161
  859YOPE   C3A12793  11.668  17.599   7.234 -0.3012  0.1345  0.0399
  859YOPE   C4A12794  11.723  17.477   7.713  0.1714  0.1942 -0.1605
  859YOPE   C1B12795  12.324  17.114   6.418 -0.1500  0.0050 -0.1707
  859YOPE   C2B12796  12.186  17.255   6.764  0.5097 -0.0568 -0.0528
  859YOPE   D3B12797  11.964  17.109   7.021  0.4362 -0.2950 -0.0055
  859YOPE   C4B12798  11.852  16.954   7.422  0.2621 -0.1063 -0.2467
  860YOPE   NH312799  16.206  17.210   5.703 -0.0857  0.0151 -0.2110
  860YOPE   PO412800  16.646  17.034   5.619 -0.1409  0.4674  0.0068
  860YOPE   GL112801  16.591  17.112   6.137 -0.3133 -0.2186 -0.2255
  860YOPE   GL212802  16.367  17.075   6.213  0.0422 -0.0724 -0.2516
  860YOPE   C1A12803  16.939  17.145   6.453  0.0520 -0.0804 -0.1247
  860YOPE   D2A12804  17.147  17.576   6.782  0.0428 -0.2345  0.3293
  860YOPE   C3A12805  17.106  17.672   7.197  0.0990 -0.1453 -0.2751
  860YOPE   C4A12806  17.265  17.855   7.671  0.1217  0.0102  0.2338
  860YOPE   C1B12807  16.531  16.839   6.558  0.3133 -0.0927  0.0693
  860YOPE   C2B12808  16.850  16.807   6.830 -0.0935 -0.1602  0.2763
  860YOPE   D3B12809  17.007  16.666   7.229 -0.0135  0.1224 -0.1112
  860YOPE   C4B12810  17.245  16.366   7.419 -0.3057  0.1592 -0.1649
  861YOPE   NH312811  15.483  14.159   5.731  0.1316 -0.0352  0.0313
  861YOPE   PO412812  15.457  14.566   5.937 -0.0481 -0.0605  0.1360
  861YOPE   GL112813  15.492  14.438   6.286  0.0286 -0.1847  0.2963
  861YOPE   GL212814  15.085  14.382   6.360 -0.4317  0.1418  0.2216
  861YOPE   C1A12815  15.745  14.223   6.489  0.2007 -0.2679  0.1303
  861YOPE   D2A12816  16.060  14.116   6.748 -0.2995  0.0984 -0.1912
  861YOPE   C3A12817  16.051  13.982   7.159 -0.2355  0.1098 -0.1203
  861YOPE   C4A12818  16.128  14.008   7.559 -0.0145 -0.1660 -0.0155
  861YOPE   C1B12819  15.123  14.091   6.724 -0.3223 -0.2155  0.0340
  861YOPE   C2B12820  15.123  14.036   7.200 -0.0237 -0.2298 -0.0191
  861YOPE   D3B12821  15.052  13.643   7.342 -0.2468  0.0531 -0.0571
  861YOPE   C4B12822  15.132  13.462   7.745  0.0550  0.1667 -0.2441
  862YOPE   NH312823  12.851   5.159   6.029  0.0209  0.1701  0.0340
  862YOPE   PO412824  13.196   5.011   5.774 -0.0226  0.1656 -0.1274
  862YOPE   GL112825  13.132   4.679   6.083 -0.0539  0.0406 -0.4027
  862YOPE   GL212826  12.776   4.665   6.175 -0.1069  0.0500 -0.0775
  862YOPE   C1A12827  13.187   4.680   6.524 -0.1827 -0.1203 -0.1341
  862YOPE   D2A12828  13.125   4.651   6.924  0.1438 -0.1415 -0.0118
  862YOPE   C3A12829  12.915   4.912   7.264  0.0000 -0.0514  0.0573
  862YOPE   C4A12830  13.191   5.154   7.540 -0.1804 -0.0392 -0.2084
  862YOPE   C1B12831  12.746   4.430   6.536 -0.1658  0.1893 -0.1668
  862YOPE   C2B12832  12.785   4.276   7.003 -0.0691  0.0704  0.0595
  862YOPE   D3B12833  12.920   3.912   7.149 -0.2056  0.0416 -0.1102
  862YOPE   C4B12834  12.945   3.584   7.332 -0.3626 -0.0979 -0.1626
  863YOPE   NH312835   2.503   4.263   5.547  0.1809  0.1628 -0.1844
  863YOPE   PO412836   2.644   4.540   5.889 -0.0584 -0.3132 -0.0947
  863YOPE   GL112837   2.650   4.426   6.342  0.1194 -0.0792  0.0214
  863YOPE   GL212838   2.380   4.713   6.353  0.1036 -0.0412 -0.1532
  863YOPE   C1A12839   2.748   4.226   6.726  0.0800  0.1198 -0.1967
  863YOPE   D2A12840   2.836   4.238   7.077 -0.0153 -0.0993 -0.2302
  863YOPE   C3A12841   3.092   4.533   7.267 -0.0598  0.0473 -0.2072
  863YOPE   C4A12842   3.188   4.909   7.446  0.2317 -0.0023 -0.1173
  863YOPE   C1B12843   2.334   4.453   6.755 -0.0291 -0.0936  0.2424
  863YOPE   C2B12844   2.352   4.282   7.148  0.5075 -0.0771  0.0436
  863YOPE   D3B12845   2.564   4.037   7.450  0.0013 -0.0666 -0.0146
  863YOPE   C4B12846   2.401   3.977   7.887  0.0107 -0.5588  0.0727
  864YOPE   NH312847   4.865   5.773   6.197 -0.0993  0.1265  0.4697
  864YOPE   PO412848   5.062   6.106   6.128  0.2837  0.1301 -0.5724
  864YOPE   GL112849   5.257   5.966   6.566  0.0935 -0.2522  0.1114
  864YOPE   GL212850   5.137   5.632   6.586 -0.1199  0.0382 -0.2135
  864YOPE   C1A12851   5.453   5.985   6.984  0.0988 -0.1521  0.1059
  864YOPE   D2A12852   5.513   5.942   7.372  0.1264 -0.0366 -0.1952
  864YOPE   C3A12853   5.824   5.881   7.334 -0.0449 -0.2092  0.2551
  864YOPE   C4A12854   5.878   5.661   6.978 -0.1045  0.0419  0.1758
  864YOPE   C1B12855   5.334   5.457   6.825  0.1263  0.0505 -0.0432
  864YOPE   C2B12856   5.494   5.469   7.139  0.3465 -0.1058 -0.2235
  864YOPE   D3B12857   5.487   5.538   7.590 -0.1378  0.0983 -0.0223
  864YOPE   C4B12858   5.436   5.315   8.014  0.1660  0.2182 -0.0813
  865YOPE   NH312859  18.276  13.170   6.332  0.0183 -0.1988 -0.2408
  865YOPE   PO412860  18.452  12.793   6.205  0.0150  0.0089  0.0745
  865YOPE   GL112861  18.634  12.763   6.629  0.5250 -0.3941  0.2082
  865YOPE   GL212862  18.662  13.119   6.696 -0.0465 -0.0691 -0.0847
  865YOPE   C1A12863  18.585  12.335   6.974  0.3579 -0.2600  0.0262
  865YOPE   D2A12864  18.634  12.289   7.405 -0.0166  0.2571  0.3075
  865YOPE   C3A12865  18.983  12.129   7.439  0.3617 -0.0142  0.2257
  865YOPE   C4A12866  19.329  12.122   7.755 -0.2291  0.2359 -0.0435
  865YOPE   C1B12867  18.989  12.951   6.863 -0.1751  0.0710  0.0352
  865YOPE   C2B12868  19.057  13.251   7.156  0.0514 -0.1055  0.0334
  865YOPE   D3B12869  18.780  13.482   7.402 -0.0396  0.3056  0.2355
  865YOPE   C4B12870  18.508  13.806   7.524  0.0896 -0.1216 -0.4868
  866YOPE   NH312871   2.340   9.052   6.285 -0.0288 -0.1711  0.1023
  866YOPE   PO412872   2.163   9.537   6.332 -0.2309  0.1476 -0.1991
  866YOPE   GL112873   2.258   9.655   6.764  0.2174  0.0634 -0.0503
  866YOPE   GL212874   1.978   9.783   6.987 -0.1115 -0.0568  0.0918
  866YOPE   C1A12875   2.408   9.659   7.219  0.1628 -0.2666 -0.1151
  866YOPE   D2A12876   2.649   9.583   7.617  0.0240 -0.0532  0.1381
  866YOPE   C3A12877   2.511   9.383   8.026 -0.2787  0.0410  0.0612
  866YOPE   C4A12878   2.505   9.425   8.467 -0.0092  0.2001 -0.3917
  866YOPE   C1B12879   1.623  10.027   7.035 -0.2406 -0.1797  0.2044
  866YOPE   C2B12880   1.495  10.285   7.292  0.1080 -0.0375  0.2468
  866YOPE   D3B12881   1.203  10.516   7.504  0.2564  0.1197 -0.0729
  866YOPE   C4B12882   0.848  10.766   7.305  0.0227 -0.1374  0.0187
  867YOPE   NH312883  14.883  12.477   5.606 -0.0573  0.1910 -0.0709
  867YOPE   PO412884  14.754  12.830   5.798  0.0878 -0.1128  0.0317
  867YOPE   GL112885  14.698  12.564   6.176 -0.0489  0.2609 -0.1709
  867YOPE   GL212886  14.695  12.227   6.180 -0.2538 -0.2694 -0.1055
  867YOPE   C1A12887  14.976  12.491   6.584 -0.0967 -0.0081 -0.1045
  867YOPE   D2A12888  14.949  12.321   7.080  0.2731 -0.0402 -0.0409
  867YOPE   C3A12889  15.073  12.300   7.470  0.1097 -0.1859 -0.0720
  867YOPE   C4A12890  15.232  12.288   7.792 -0.2642  0.0532  0.2281
  867YOPE   C1B12891  14.526  12.350   6.592  0.1676 -0.0843 -0.1598
  867YOPE   C2B12892  14.368  12.218   7.054  0.1180 -0.1035  0.1772
  867YOPE   D3B12893  14.513  12.259   7.430  0.2371  0.1759 -0.1433
  867YOPE   C4B12894  14.727  12.200   7.841 -0.1035  0.0589  0.3214
  868YOPE   NH312895  14.908   4.255   5.581  0.1450 -0.1210 -0.1643
  868YOPE   PO412896  15.271   4.195   5.765  0.0161  0.0676  0.0638
  868YOPE   GL112897  15.393   3.779   5.997 -0.3592 -0.3212 -0.2398
  868YOPE   GL212898  15.355   3.955   6.252  0.0090 -0.3738 -0.2523
  868YOPE   C1A12899  15.660   3.526   6.191  0.0946  0.1490  0.0401
  868YOPE   D2A12900  16.094   3.483   6.402  0.0210  0.0553 -0.1022
  868YOPE   C3A12901  16.345   3.838   6.477  0.0212 -0.0809  0.3390
  868YOPE   C4A12902  16.437   4.196   6.708  0.2218  0.2135 -0.1156
  868YOPE   C1B12903  15.242   3.866   6.630 -0.1383  0.0461  0.0356
  868YOPE   C2B12904  15.419   3.610   7.098 -0.0128 -0.0043  0.3210
  868YOPE   D3B12905  15.525   3.612   7.504  0.0822 -0.1771  0.0735
  868YOPE   C4B12906  15.312   3.536   7.922  0.0139 -0.1670  0.1335
  869YOPE   NH312907   4.453  15.206   5.764 -0.2297 -0.0195 -0.0313
  869YOPE   PO412908   4.684  15.527   5.603  0.1328  0.0190 -0.1241
  869YOPE   GL112909   4.735  15.539   6.047  0.1443 -0.2427 -0.0115
  869YOPE   GL212910   4.698  15.301   6.189  0.3514 -0.1706 -0.2241
  869YOPE   C1A12911   5.052  15.766   6.291 -0.1691  0.1748 -0.3492
  869YOPE   D2A12912   5.362  16.087   6.421 -0.0394  0.0889 -0.1207
  869YOPE   C3A12913   5.649  15.989   6.758 -0.0050  0.0842  0.1184
  869YOPE   C4A12914   5.797  15.744   7.053 -0.2351 -0.3930 -0.0757
  869YOPE   C1B12915   4.512  15.089   6.546 -0.1314 -0.1544 -0.0997
  869YOPE   C2B12916   4.679  15.122   6.890  0.0363 -0.1488 -0.0323
  869YOPE   D3B12917   4.899  15.446   7.124  0.0061 -0.1896  0.3643
  869YOPE   C4B12918   5.123  15.700   7.396 -0.1363 -0.1260  0.2384
  870YOPE   NH312919   2.916  11.460   5.498  0.0095  0.0306 -0.1203
  870YOPE   PO412920   3.145  11.090   5.701 -0.0525 -0.0963  0.0524
  870YOPE   GL112921   3.328  11.137   6.157  0.1248  0.0361  0.3257
  870YOPE   GL212922   3.203  11.477   6.327  0.0810 -0.0216  0.0838
  870YOPE   C1A12923   3.520  11.015   6.544 -0.0156 -0.1804  0.2282
  870YOPE   D2A12924   3.962  11.005   6.570  0.1701 -0.0256 -0.1589
  870YOPE   C3A12925   4.089  11.116   6.957 -0.0277  0.0767  0.0264
  870YOPE   C4A12926   4.096  11.043   7.372 -0.0313  0.1915 -0.2300
  870YOPE   C1B12927   3.000  11.722   6.612  0.0038  0.2348 -0.2445
  870YOPE   C2B12928   2.776  11.982   6.964 -0.2516  0.0391  0.0888
  870YOPE   D3B12929   2.884  11.971   7.277 -0.2335  0.3246  0.0497
  870YOPE   C4B12930   2.856  11.849   7.641  0.1156 -0.2634 -0.0830
  871YOPE   NH312931  14.981  14.445   5.804  0.1688 -0.3380 -0.0342
  871YOPE   PO412932  15.014  14.090   5.967  0.1562  0.0471  0.3368
  871YOPE   GL112933  14.783  13.889   6.275 -0.2871  0.1805 -0.2370
  871YOPE   GL212934  14.977  13.676   6.398 -0.0303  0.0499 -0.2375
  871YOPE   C1A12935  14.539  13.700   6.586 -0.0859  0.0111 -0.1028
  871YOPE   D2A12936  14.462  13.447   7.019 -0.0870 -0.0744  0.1583
  871YOPE   C3A12937  14.373  13.628   7.319  0.0659  0.2236  0.2186
  871YOPE   C4A12938  14.058  13.932   7.432  0.1203  0.1828  0.0168
  871YOPE   C1B12939  14.968  13.562   6.839  0.0356  0.0323  0.1432
  871YOPE   C2B12940  14.816  13.225   7.162 -0.0352 -0.2398 -0.0561
  871YOPE   D3B12941  14.734  13.257   7.528 -0.1719  0.1297  0.0308
  871YOPE   C4B12942  14.367  13.131   7.502  0.1842 -0.0724  0.1022
  872YOPE   NH312943  18.115   8.629   6.012 -0.0452 -0.1646  0.2774
  872YOPE   PO412944  17.726   8.695   6.276  0.2057  0.2569  0.1720
  872YOPE   GL112945  17.567   8.391   6.600  0.0897  0.0215 -0.3549
  872YOPE   GL212946  17.647   8.605   6.780 -0.1136 -0.3512 -0.1241
  872YOPE   C1A12947  17.382   8.045   6.674 -0.0923 -0.0168  0.2023
  872YOPE   D2A12948  17.067   7.780   6.928  0.2093  0.2327  0.2691
  872YOPE   C3A12949  16.954   7.917   7.293  0.1499 -0.2157  0.2534
  872YOPE   C4A12950  16.569   7.933   7.456 -0.0286  0.0119 -0.0593
  872YOPE   C1B12951  17.767   8.552   7.152 -0.0810 -0.0602  0.0446
  872YOPE   C2B12952  18.125   8.751   7.484 -0.0566 -0.2645  0.1882
  872YOPE   D3B12953  18.599   8.899   7.502 -0.0819 -0.1390 -0.1715
  872YOPE   C4B12954  18.867   9.009   7.755  0.2588  0.2105 -0.3043
  873YOPE   NH312955   1.842   6.235   6.262  0.1344 -0.0287  0.1279
  873YOPE   PO412956   2.279   6.039   6.090 -0.3369  0.3193 -0.2564
  873YOPE   GL112957   2.129   5.898   6.510  0.1154 -0.2311  0.0386
  873YOPE   GL212958   2.271   5.583   6.637 -0.1068  0.3390  0.0774
  873YOPE   C1A12959   2.047   5.976   6.912  0.1350 -0.1189 -0.0883
  873YOPE   D2A12960   2.059   5.904   7.261 -0.0309  0.0604 -0.1978
  873YOPE   C3A12961   1.709   5.770   7.351 -0.0726  0.0591  0.0085
  873YOPE   C4A12962   1.297   5.775   7.406 -0.0361 -0.3271  0.1190
  873YOPE   C1B12963   2.642   5.327   6.892 -0.3518 -0.2411  0.0344
  873YOPE   C2B12964   2.722   5.354   7.352 -0.1715 -0.1457 -0.0990
  873YOPE   D3B12965   2.666   5.066   7.786 -0.1321  0.0064 -0.0215
  873YOPE   C4B12966   2.624   4.744   8.170  0.3012 -0.1862 -0.0935
  874YOPE   NH312967   7.275   7.462   6.127  0.2883 -0.0305 -0.1606
  874YOPE   PO412968   7.262   7.011   6.004 -0.1333  0.0018  0.1284
  874YOPE   GL112969   7.133   6.935   6.414 -0.6092  0.2596  0.0653
  874YOPE   GL212970   6.946   6.640   6.477  0.0834  0.2337 -0.0682
  874YOPE   C1A12971   7.138   7.006   6.858  0.1719  0.2547 -0.2243
  874YOPE   D2A12972   7.501   7.011   7.211  0.2892 -0.1382 -0.1145
  874YOPE   C3A12973   7.769   6.815   7.530 -0.1098  0.1517  0.0975
  874YOPE   C4A12974   7.996   6.447   7.478  0.0790 -0.4452 -0.0584
  874YOPE   C1B12975   6.658   6.937   6.714 -0.3729  0.1835  0.0334
  874YOPE   C2B12976   6.668   7.252   6.993 -0.4061  0.2747 -0.1277
  874YOPE   D3B12977   6.561   7.435   7.386  0.0282  0.2313 -0.0187
  874YOPE   C4B12978   6.369   7.585   7.806 -0.2849  0.0904 -0.0425
  875YOPE   NH312979   1.456   6.539   5.999 -0.2081 -0.0409  0.0520
  875YOPE   PO412980   1.015   6.411   5.710  0.0612  0.1264  0.2140
  875YOPE   GL112981   0.992   6.382   6.165  0.0725 -0.0690 -0.2117
  875YOPE   GL212982   1.100   6.741   6.402  0.0771  0.3575 -0.1800
  875YOPE   C1A12983   1.024   6.185   6.550 -0.1076  0.0311 -0.1730
  875YOPE   D2A12984   1.067   6.083   6.945 -0.0479  0.1278 -0.0134
  875YOPE   C3A12985   0.898   5.677   6.966  0.0853 -0.0195 -0.0977
  875YOPE   C4A12986   0.917   5.279   6.952  0.0462  0.0657 -0.1207
  875YOPE   C1B12987   1.118   6.700   6.899  0.1493  0.1148  0.0557
  875YOPE   C2B12988   0.817   6.743   7.201  0.2336  0.0823  0.0039
  875YOPE   D3B12989   1.106   6.463   7.514 -0.4235  0.0102 -0.0670
  875YOPE   C4B12990   1.171   6.112   7.816  0.3704 -0.3825 -0.1223
  876YOPE   NH312991  16.483   3.594   5.948  0.0429  0.2109 -0.1387
  876YOPE   PO412992  16.938   3.656   5.728  0.0206  0.0476  0.3690
  876YOPE   GL112993  17.011   3.341   6.107 -0.2658  0.0797 -0.0790
  876YOPE   GL212994  16.728   3.154   6.117 -0.1369  0.1002  0.0290
  876YOPE   C1A12995  17.147   3.149   6.491 -0.1775 -0.0238 -0.0332
  876YOPE   D2A12996  17.066   2.948   6.849 -0.2385  0.1210  0.1059
  876YOPE   C3A12997  16.719   2.969   7.079  0.0353  0.2107 -0.0652
  876YOPE   C4A12998  16.564   3.000   7.492  0.0380  0.0269  0.1316
  876YOPE   C1B12999  16.628   3.390   6.496 -0.2301 -0.0641  0.0280
  876YOPE   C2B13000  16.775   3.468   6.864  0.1006 -0.0241  0.0198
  876YOPE   D3B13001  17.008   3.516   7.232 -0.2607  0.0187 -0.0538
  876YOPE   C4B13002  16.981   3.273   7.685  0.0168  0.1011 -0.0916
  877YOPE   NH313003   5.332  10.898   5.085 -0.2816  0.1191  0.1433
  877YOPE   PO413004   5.174  11.038   5.421 -0.4427  0.0205  0.3156
  877YOPE   GL113005   5.311  11.091   5.921 -0.1802  0.4267  0.0830
  877YOPE   GL213006   5.125  11.200   6.120  0.0535  0.0139  0.0455
  877YOPE   C1A13007   5.497  10.973   6.309  0.0732  0.0958  0.0949
  877YOPE   D2A13008   5.696  10.752   6.664 -0.0485  0.1557 -0.2462
  877YOPE   C3A13009   5.584  10.629   7.011 -0.1603  0.2819 -0.1640
  877YOPE   C4A13010   5.622  10.471   7.468 -0.0548 -0.0553  0.0095
  877YOPE   C1B13011   5.046  11.486   6.464 -0.0739 -0.1207  0.1015
  877YOPE   C2B13012   4.940  11.619   6.917  0.1581  0.1626  0.1478
  877YOPE   D3B13013   5.029  11.648   7.396  0.2415 -0.1253  0.0095
  877YOPE   C4B13014   4.829  11.696   7.780 -0.1622  0.0166  0.2831
  878YOPE   NH313015  17.865   6.268   5.593 -0.0097  0.2300 -0.0117
  878YOPE   PO413016  17.973   6.041   5.895  0.0106 -0.0332  0.0530
  878YOPE   GL113017  17.896   6.076   6.296  0.1587 -0.0050  0.1211
  878YOPE   GL213018  18.086   5.930   6.404  0.2935 -0.0952  0.0466
  878YOPE   C1A13019  17.697   6.109   6.697  0.2164  0.1589 -0.0861
  878YOPE   D2A13020  17.370   6.214   6.971 -0.1493  0.4976 -0.2581
  878YOPE   C3A13021  16.955   6.307   6.779  0.0521  0.1296  0.0462
  878YOPE   C4A13022  16.540   6.108   6.727 -0.6247 -0.0828  0.1260
  878YOPE   C1B13023  18.080   5.553   6.703  0.0317 -0.2538 -0.0063
  878YOPE   C2B13024  18.255   5.499   7.135  0.5714  0.1468 -0.2896
  878YOPE   D3B13025  18.714   5.465   7.436  0.0042  0.0938 -0.0031
  878YOPE   C4B13026  18.935   5.563   7.815 -0.5117  0.1732  0.1900
  879YOPE   NH313027   3.344   1.885   5.786  0.0451  0.2640  0.2447
  879YOPE   PO413028   3.454   2.332   5.917 -0.2509 -0.0535  0.1685
  879YOPE   GL113029   3.472   2.339   6.347 -0.0105  0.1256 -0.0758
  879YOPE   GL213030   3.443   2.590   6.473  0.0795  0.0890 -0.2502
  879YOPE   C1A13031   3.795   2.102   6.655  0.0278 -0.2197  0.0288
  879YOPE   D2A13032   4.154   1.831   6.952 -0.2549  0.0404  0.1042
  879YOPE   C3A13033   4.044   1.323   6.952 -0.2685  0.0983  0.0528
  879YOPE   C4A13034   4.166   0.979   7.325 -0.0019 -0.1968  0.1188
  879YOPE   C1B13035   3.411   2.552   6.942  0.0260  0.0825  0.4349
  879YOPE   C2B13036   3.271   2.429   7.388 -0.0443  0.0013  0.2967
  879YOPE   D3B13037   3.255   2.573   7.854  0.1474 -0.0551  0.2734
  879YOPE   C4B13038   3.103   2.707   8.231  0.2103 -0.2188  0.1073
  880YOPE   NH313039   4.131  13.909   5.969  0.2005  0.0608  0.4751
  880YOPE   PO413040   4.299  13.450   6.099 -0.0890 -0.0368  0.1651
  880YOPE   GL113041   4.212  13.834   6.463 -0.0225 -0.1450 -0.0291
  880YOPE   GL213042   4.030  13.742   6.418  0.1065 -0.0183 -0.0528
  880YOPE   C1A13043   4.105  14.152   6.753 -0.0690 -0.1124 -0.3179
  880YOPE   D2A13044   4.090  14.481   7.170 -0.0275  0.1319  0.2266
  880YOPE   C3A13045   4.360  14.331   7.535 -0.0116  0.1550  0.1743
  880YOPE   C4A13046   4.486  14.168   7.883  0.1543  0.0212  0.1624
  880YOPE   C1B13047   3.778  13.693   6.851  0.0022  0.0501 -0.3071
  880YOPE   C2B13048   3.491  13.315   6.999  0.0273  0.0290  0.1617
  880YOPE   D3B13049   3.346  13.221   7.314  0.1848  0.3115  0.0758
  880YOPE   C4B13050   3.444  12.845   7.551  0.2282  0.1524  0.1404
  881YOPE   NH313051   5.381   8.731   5.702  0.0475  0.0119  0.0158
  881YOPE   PO413052   5.772   8.570   5.694 -0.2645 -0.2545 -0.1930
  881YOPE   GL113053   5.675   8.374   6.068  0.0264  0.1044  0.0048
  881YOPE   GL213054   5.743   8.528   6.404  0.2284  0.0030 -0.3437
  881YOPE   C1A13055   5.771   8.037   6.356  0.1608 -0.1327  0.2158
  881YOPE   D2A13056   5.796   8.091   6.899 -0.0899 -0.1497 -0.3311
  881YOPE   C3A13057   5.746   7.862   7.297  0.1689 -0.2821  0.1027
  881YOPE   C4A13058   5.870   7.605   7.616 -0.1242  0.0631  0.4145
  881YOPE   C1B13059   5.614   8.578   6.862 -0.0487 -0.2114 -0.2962
  881YOPE   C2B13060   5.701   8.418   7.315  0.0792 -0.0518 -0.1544
  881YOPE   D3B13061   5.611   8.193   7.711 -0.0367 -0.1350  0.0591
  881YOPE   C4B13062   5.530   7.818   7.926  0.2268 -0.0329 -0.1690
  882YOPE   NH313063  13.513   0.012   5.642  0.1107  0.1853  0.1385
  882YOPE   PO413064  13.423  -0.422   5.672  0.0028 -0.1975  0.2125
  882YOPE   GL113065  13.145  -0.262   5.968 -0.1894 -0.2347 -0.2840
  882YOPE   GL213066  13.045   0.068   5.935 -0.0570 -0.2695 -0.0136
  882YOPE   C1A13067  13.147  -0.243   6.394  0.0347  0.2616  0.0372
  882YOPE   D2A13068  13.251  -0.347   6.869 -0.0382 -0.1838 -0.0694
  882YOPE   C3A13069  13.011  -0.636   7.012  0.1252 -0.1602  0.0667
  882YOPE   C4A13070  13.081  -1.021   7.301 -0.0643  0.1600 -0.1554
  882YOPE   C1B13071  12.923   0.177   6.365  0.0037 -0.0807  0.0302
  882YOPE   C2B13072  13.089   0.089   6.705  0.0607 -0.2920  0.2651
  882YOPE   D3B13073  13.159   0.148   7.050 -0.2967  0.1124  0.0866
  882YOPE   C4B13074  12.956   0.189   7.421  0.0778  0.0081 -0.1379
  883YOPE   NH313075   0.259   3.297   5.863 -0.2362 -0.3750 -0.1816
  883YOPE   PO413076   0.052   3.720   5.876 -0.2129 -0.1657  0.1134
  883YOPE   GL113077  -0.189   3.820   6.172  0.2562  0.0079 -0.0416
  883YOPE   GL213078  -0.352   4.093   6.245 -0.0561  0.1263  0.0362
  883YOPE   C1A13079  -0.294   3.774   6.676  0.1390  0.0427 -0.0197
  883YOPE   D2A13080  -0.392   3.851   7.143 -0.0952 -0.1994 -0.2229
  883YOPE   C3A13081  -0.572   3.527   7.424 -0.0289  0.2722  0.1546
  883YOPE   C4A13082  -0.651   3.112   7.675 -0.3888  0.2746 -0.0162
  883YOPE   C1B13083  -0.490   4.215   6.648  0.0386 -0.2293  0.1446
  883YOPE   C2B13084  -0.493   4.303   7.055 -0.0603 -0.1555  0.0374
  883YOPE   D3B13085  -0.338   4.280   7.455  0.3866  0.0024 -0.2799
  883YOPE   C4B13086  -0.218   3.917   7.660 -0.0661  0.1471 -0.3687
  884YOPE   NH313087   9.970   3.473   5.663 -0.2602 -0.0115  0.0802
  884YOPE   PO413088   9.780   3.022   5.526 -0.0293 -0.1440  0.0296
  884YOPE   GL113089  10.277   2.991   5.792 -0.0988 -0.1165 -0.1210
  884YOPE   GL213090  10.549   2.812   5.820 -0.1600 -0.3555 -0.0382
  884YOPE   C1A13091  10.544   3.271   6.069  0.0456  0.0619  0.0594
  884YOPE   D2A13092  10.710   3.319   6.429 -0.2509 -0.0274  0.0331
  884YOPE   C3A13093  10.888   3.077   6.677  0.0311  0.0789 -0.1942
  884YOPE   C4A13094  10.958   2.994   7.149 -0.0409 -0.2086 -0.1377
  884YOPE   C1B13095  10.532   2.775   6.224 -0.2594 -0.1950 -0.0173
  884YOPE   C2B13096  10.376   3.015   6.570  0.0341  0.2096  0.0877
  884YOPE   D3B13097  10.469   3.202   6.962  0.0425 -0.2445 -0.1135
  884YOPE   C4B13098  10.312   3.622   7.102 -0.1178  0.1954 -0.0470
  885YOPE   NH313099   4.956  14.501   5.383  0.0657 -0.1321 -0.6039
  885YOPE   PO413100   4.575  14.726   5.612 -0.3255  0.0164 -0.1905
  885YOPE   GL113101   4.631  14.777   6.071 -0.1040 -0.0841  0.0511
  885YOPE   GL213102   4.890  14.787   6.115  0.2832 -0.1537  0.0298
  885YOPE   C1A13103   4.484  14.545   6.497  0.0419  0.0899 -0.0091
  885YOPE   D2A13104   4.385  14.661   6.847 -0.1763 -0.1807 -0.1018
  885YOPE   C3A13105   4.634  14.702   7.227  0.1682  0.2978 -0.3310
  885YOPE   C4A13106   4.681  14.843   7.722 -0.3578 -0.1679 -0.0537
  885YOPE   C1B13107   4.972  14.920   6.489 -0.2841 -0.1962  0.1919
  885YOPE   C2B13108   5.117  14.946   6.890  0.1759 -0.0932  0.0414
  885YOPE   D3B13109   4.989  15.022   7.313  0.2035  0.0701  0.1731
  885YOPE   C4B13110   4.887  15.341   7.711  0.2023  0.0591 -0.2566
  886YOPE   NH313111  16.747   6.980   5.730 -0.1093  0.0535  0.0450
  886YOPE   PO413112  16.506   6.624   5.621  0.0789  0.1720  0.1367
  886YOPE   GL113113  16.605   6.508   6.053  0.1919  0.0063  0.2127
  886YOPE   GL213114  16.862   6.415   6.324  0.2533  0.3131 -0.0398
  886YOPE   C1A13115  16.336   6.176   6.310 -0.1144 -0.1443  0.1550
  886YOPE   D2A13116  15.938   6.120   6.489 -0.0602  0.4776 -0.0341
  886YOPE   C3A13117  16.019   5.759   6.722  0.3495  0.0163  0.2484
  886YOPE   C4A13118  15.892   5.451   6.935 -0.1545  0.0385 -0.1039
  886YOPE   C1B13119  16.561   6.549   6.512  0.1392 -0.1597  0.1863
  886YOPE   C2B13120  16.204   6.490   6.780  0.6062  0.1645  0.3160
  886YOPE   D3B13121  16.011   6.526   7.269 -0.0270  0.2960  0.0159
  886YOPE   C4B13122  16.075   6.609   7.561  0.0804 -0.2880  0.1486
  887YOPE   NH313123   7.586  14.391   5.800 -0.1884 -0.2620 -0.0075
  887YOPE   PO413124   7.357  14.076   5.929  0.1494  0.2053 -0.1751
  887YOPE   GL113125   7.351  14.150   6.305 -0.0981 -0.0913 -0.3317
  887YOPE   GL213126   7.242  14.510   6.328  0.0138 -0.1911 -0.2220
  887YOPE   C1A13127   7.273  14.049   6.749  0.1985  0.0791 -0.2027
  887YOPE   D2A13128   7.302  13.776   7.090  0.0588  0.0639 -0.4033
  887YOPE   C3A13129   6.977  13.469   6.899 -0.3822 -0.0551  0.0223
  887YOPE   C4A13130   7.175  13.194   6.633  0.0651  0.1357  0.0868
  887YOPE   C1B13131   7.283  14.553   6.706  0.2317 -0.3376 -0.1205
  887YOPE   C2B13132   7.171  14.474   7.097 -0.0824  0.0851  0.3244
  887YOPE   D3B13133   6.966  14.260   7.442  0.2958 -0.1540  0.2358
  887YOPE   C4B13134   6.972  13.775   7.469 -0.3589  0.0191 -0.4354
  888YOPE   NH313135  10.300   5.532   5.524 -0.3597  0.0858  0.3906
  888YOPE   PO413136  10.264   5.135   5.612 -0.0053  0.0757  0.3972
  888YOPE   GL113137  10.185   5.242   5.933 -0.0696  0.1572  0.1790
  888YOPE   GL213138  10.458   5.188   6.131  0.1762 -0.1867 -0.0927
  888YOPE   C1A13139   9.988   5.485   6.202  0.1924 -0.0509  0.0947
  888YOPE   D2A13140   9.938   5.717   6.641 -0.2866 -0.0702  0.1002
  888YOPE   C3A13141  10.209   5.978   6.801  0.1190  0.0655 -0.0499
  888YOPE   C4A13142  10.416   6.336   7.076 -0.1329  0.0670  0.0702
  888YOPE   C1B13143  10.173   5.153   6.507  0.2296  0.1542 -0.2432
  888YOPE   C2B13144  10.127   4.893   6.813 -0.0817  0.2149 -0.2188
  888YOPE   D3B13145  10.051   4.775   7.200 -0.0320 -0.0308 -0.4115
  888YOPE   C4B13146   9.871   4.689   7.669 -0.3242 -0.0360  0.0630
  889YOPE   NH313147   7.957  10.114   5.826  0.0397 -0.1139  0.0160
  889YOPE   PO413148   7.729   9.690   5.788 -0.1270  0.1917 -0.0777
  889YOPE   GL113149   7.719   9.794   6.222  0.3524  0.3606 -0.1657
  889YOPE   GL213150   7.548  10.067   6.446 -0.1616  0.1894  0.1047
  889YOPE   C1A13151   7.712   9.571   6.649 -0.1186 -0.1271 -0.0362
  889YOPE   D2A13152   7.910   9.676   6.994  0.1137  0.1497 -0.5523
  889YOPE   C3A13153   8.276   9.580   7.001 -0.2881  0.1097  0.2719
  889YOPE   C4A13154   8.609   9.584   7.248  0.1492 -0.1672  0.0379
  889YOPE   C1B13155   7.773  10.142   6.771 -0.2392 -0.3054 -0.1063
  889YOPE   C2B13156   7.986  10.171   7.186 -0.2980  0.3467 -0.3385
  889YOPE   D3B13157   7.981   9.876   7.471  0.1366 -0.1361  0.0517
  889YOPE   C4B13158   8.264   9.445   7.617 -0.0029  0.1065 -0.1360
  890YOPE   NH313159  16.769   0.256   5.546  0.1145  0.0253 -0.3453
  890YOPE   PO413160  16.383   0.401   5.796 -0.1767  0.1276 -0.0197
  890YOPE   GL113161  16.234   0.215   6.222  0.3160  0.0261 -0.0934
  890YOPE   GL213162  16.022   0.338   6.295  0.1688 -0.0535 -0.0270
  890YOPE   C1A13163  16.538  -0.050   6.445 -0.2737 -0.0234 -0.1414
  890YOPE   D2A13164  16.536  -0.211   6.845  0.3875  0.1540 -0.0013
  890YOPE   C3A13165  16.737  -0.383   7.087 -0.1187  0.0271 -0.2682
  890YOPE   C4A13166  16.828  -0.419   7.553 -0.2050  0.2141  0.4364
  890YOPE   C1B13167  15.998   0.113   6.700 -0.2957 -0.0333  0.2788
  890YOPE   C2B13168  15.957  -0.134   6.999  0.1503  0.0088  0.0963
  890YOPE   D3B13169  15.829  -0.062   7.488  0.1465 -0.1793 -0.1258
  890YOPE   C4B13170  15.523   0.255   7.542  0.0685 -0.2056  0.2570
  891YOPE   NH313171  16.705   0.833   5.660 -0.1492  0.3463 -0.0162
  891YOPE   PO413172  17.166   0.780   5.983 -0.2415  0.0100 -0.0304
  891YOPE   GL113173  17.143   0.900   6.337 -0.0675 -0.2376  0.1520
  891YOPE   GL213174  16.897   0.930   6.384 -0.2659 -0.2368 -0.0094
  891YOPE   C1A13175  17.088   0.496   6.617 -0.1216  0.0858 -0.0318
  891YOPE   D2A13176  16.957   0.148   6.748  0.0012 -0.1732 -0.0595
  891YOPE   C3A13177  16.840   0.049   7.152  0.1814 -0.1294  0.1450
  891YOPE   C4A13178  16.707   0.150   7.549  0.0712  0.1170 -0.1467
  891YOPE   C1B13179  17.020   1.034   6.766 -0.2607 -0.0476  0.0062
  891YOPE   C2B13180  16.895   0.804   7.135  0.2861 -0.0203  0.1296
  891YOPE   D3B13181  16.447   0.608   7.401 -0.3994 -0.0751  0.2366
  891YOPE   C4B13182  16.322   0.732   7.776  0.1160  0.2013 -0.0082
  892YOPE   NH313183  12.317   9.166   5.990  0.0332  0.2739  0.1540
  892YOPE   PO413184  12.439   8.810   6.155 -0.0076  0.4449  0.3605
  892YOPE   GL113185  12.092   8.793   6.318 -0.0387  0.5058 -0.1917
  892YOPE   GL213186  11.877   9.023   6.196  0.1456  0.0843 -0.1657
  892YOPE   C1A13187  11.804   8.675   6.692  0.0371  0.0415 -0.0885
  892YOPE   D2A13188  11.399   8.828   6.868 -0.0769  0.1632  0.0224
  892YOPE   C3A13189  11.538   9.131   7.006 -0.4358  0.0504 -0.0155
  892YOPE   C4A13190  11.313   9.266   7.217 -0.1770 -0.0260  0.0472
  892YOPE   C1B13191  11.956   9.201   6.593  0.0057 -0.3066 -0.1118
  892YOPE   C2B13192  12.067   9.052   6.946  0.2281  0.0112 -0.0862
  892YOPE   D3B13193  11.722   8.800   7.275 -0.0208  0.0587  0.0472
  892YOPE   C4B13194  11.384   8.690   7.360 -0.2641 -0.1380 -0.1303
  893YOPE   NH313195   6.786   1.671   5.866  0.0463 -0.0034 -0.2410
  893YOPE   PO413196   6.830   1.320   6.055  0.2824  0.0988  0.1616
  893YOPE   GL113197   6.762   1.245   6.445 -0.0936  0.2011  0.0094
  893YOPE   GL213198   6.394   1.067   6.390 -0.0419 -0.1061 -0.0770
  893YOPE   C1A13199   6.864   1.017   6.844  0.1365  0.0887 -0.0945
  893YOPE   D2A13200   7.028   1.083   7.279 -0.2116  0.0909 -0.0783
  893YOPE   C3A13201   6.969   0.679   7.517  0.1989 -0.0161 -0.1655
  893YOPE   C4A13202   6.974   0.431   7.844 -0.2785  0.3361  0.0059
  893YOPE   C1B13203   6.688   0.760   6.422 -0.2511  0.2481  0.1709
  893YOPE   C2B13204   7.167   0.759   6.558  0.1338  0.0059  0.0196
  893YOPE   D3B13205   7.634   0.643   6.727 -0.0193  0.0538 -0.1270
  893YOPE   C4B13206   8.051   0.610   6.756  0.2926 -0.0095 -0.0848
  894YOPE   NH313207   8.455  11.173   5.495  0.0259  0.1252  0.5050
  894YOPE   PO413208   8.145  11.236   5.737 -0.0345  0.1846 -0.1389
  894YOPE   GL113209   7.743  11.125   5.835  0.1847  0.0567 -0.2708
  894YOPE   GL213210   7.986  10.969   6.133 -0.0542 -0.0165  0.0307
  894YOPE   C1A13211   7.385  11.311   6.115 -0.4166 -0.0002  0.0429
  894YOPE   D2A13212   7.220  11.494   6.480 -0.1487  0.1740 -0.2347
  894YOPE   C3A13213   7.344  11.263   6.810 -0.0522  0.1070  0.1225
  894YOPE   C4A13214   7.226  11.357   7.233 -0.0386  0.0763 -0.0294
  894YOPE   C1B13215   8.060  10.964   6.573  0.0194 -0.2626 -0.2221
  894YOPE   C2B13216   8.295  11.045   6.952 -0.2619 -0.1775  0.1605
  894YOPE   D3B13217   8.333  10.992   7.361 -0.1117 -0.1467 -0.1978
  894YOPE   C4B13218   8.405  11.117   7.723 -0.3283  0.0519 -0.2554
  895YOPE   NH313219   4.365   3.222   5.704 -0.2134 -0.2286 -0.1448
  895YOPE   PO413220   4.063   3.628   5.634  0.1923 -0.0938 -0.0385
  895YOPE   GL113221   4.153   3.568   6.054 -0.1317 -0.0627 -0.0889
  895YOPE   GL213222   4.337   3.361   6.289 -0.0434 -0.1313 -0.0675
  895YOPE   C1A13223   3.898   3.551   6.520  0.1617 -0.2293  0.5151
  895YOPE   D2A13224   3.902   3.471   6.910  0.0891  0.1226  0.0791
  895YOPE   C3A13225   3.543   3.466   7.000  0.1943  0.1215 -0.1454
  895YOPE   C4A13226   3.182   3.315   7.233 -0.0369  0.5688  0.0620
  895YOPE   C1B13227   4.380   3.312   6.773 -0.0168 -0.2204  0.1930
  895YOPE   C2B13228   4.408   3.389   7.174  0.2041 -0.0638  0.0071
  895YOPE   D3B13229   4.722   3.143   7.340 -0.1306 -0.0959 -0.0540
  895YOPE   C4B13230   4.854   2.673   7.215  0.2431 -0.1889  0.0349
  896YOPE   NH313231   1.418   8.625   6.241  0.2624  0.1460 -0.0404
  896YOPE   PO413232   1.353   9.043   6.339  0.0458  0.0893  0.3416
  896YOPE   GL113233   1.634   9.042   6.734 -0.3155 -0.2999 -0.1465
  896YOPE   GL213234   1.806   9.351   6.716 -0.3646 -0.1486 -0.0491
  896YOPE   C1A13235   1.720   8.971   7.190 -0.0586 -0.0909 -0.0865
  896YOPE   D2A13236   1.652   9.192   7.567  0.0881 -0.2556  0.2193
  896YOPE   C3A13237   1.349   9.324   7.649 -0.2099  0.0689  0.1675
  896YOPE   C4A13238   1.135   9.667   7.527 -0.0521  0.2703 -0.2375
  896YOPE   C1B13239   2.077   9.336   7.090  0.3072 -0.0407 -0.2262
  896YOPE   C2B13240   2.132   9.420   7.565  0.2707  0.1117  0.1847
  896YOPE   D3B13241   2.002   9.372   7.929  0.1564  0.0436 -0.0900
  896YOPE   C4B13242   2.105   9.092   8.304 -0.1484 -0.0963  0.2669
  897YOPE   NH313243   8.446   6.799   5.835 -0.0581 -0.3381 -0.0324
  897YOPE   PO413244   8.141   7.085   5.833  0.2881  0.1711 -0.1055
  897YOPE   GL113245   7.971   7.281   6.217  0.1271  0.2022  0.0261
  897YOPE   GL213246   7.659   7.139   6.323  0.2744  0.2800  0.1898
  897YOPE   C1A13247   7.942   7.438   6.600 -0.1868 -0.2767 -0.0133
  897YOPE   D2A13248   7.777   7.350   6.943 -0.0468  0.0085  0.0029
  897YOPE   C3A13249   7.868   7.375   7.400 -0.1178  0.2476  0.0444
  897YOPE   C4A13250   8.118   7.119   7.658  0.0061  0.2200  0.2731
  897YOPE   C1B13251   7.854   6.914   6.676  0.0336  0.1934 -0.2647
  897YOPE   C2B13252   7.968   6.825   7.054  0.1804  0.2393  0.2745
  897YOPE   D3B13253   8.437   6.800   7.325 -0.3525 -0.1737 -0.6488
  897YOPE   C4B13254   8.749   7.239   7.367 -0.1828  0.1484  0.2998
  898YOPE   NH313255   8.734  14.227   5.857 -0.2126 -0.0834  0.2078
  898YOPE   PO413256   8.320  14.311   5.563 -0.1562  0.4409  0.1082
  898YOPE   GL113257   8.215  14.439   6.000 -0.2294 -0.2584 -0.4495
  898YOPE   GL213258   8.075  14.745   6.070  0.0581  0.0283 -0.1297
  898YOPE   C1A13259   8.286  14.359   6.430  0.1774  0.0846  0.1364
  898YOPE   D2A13260   8.441  14.433   6.774  0.0671  0.0118  0.3023
  898YOPE   C3A13261   8.309  14.586   7.091  0.2605 -0.1326 -0.3235
  898YOPE   C4A13262   8.338  14.962   7.315  0.1885 -0.1986 -0.0352
  898YOPE   C1B13263   8.022  14.816   6.546 -0.0647  0.0073  0.1976
  898YOPE   C2B13264   8.005  15.049   6.935 -0.0584  0.0269  0.0053
  898YOPE   D3B13265   8.011  15.526   6.954  0.1054  0.1240 -0.0306
  898YOPE   C4B13266   7.607  15.696   7.102 -0.1617 -0.1192 -0.4118
  899YOPE   NH313267   6.668   8.310   5.364  0.1586  0.0181  0.0331
  899YOPE   PO413268   6.385   8.111   5.670 -0.3942  0.3520  0.0894
  899YOPE   GL113269   6.423   7.972   6.065 -0.0202  0.2899 -0.2186
  899YOPE   GL213270   6.276   8.258   6.233  0.2636  0.0395 -0.0459
  899YOPE   C1A13271   6.172   7.766   6.484 -0.1739  0.0424 -0.0872
  899YOPE   D2A13272   6.104   7.339   6.800  0.3063  0.1868 -0.2408
  899YOPE   C3A13273   6.017   7.387   7.172  0.2110  0.1551 -0.2142
  899YOPE   C4A13274   6.162   7.170   7.552 -0.1842  0.0671 -0.2330
  899YOPE   C1B13275   6.271   8.239   6.713  0.0800 -0.2636  0.0934
  899YOPE   C2B13276   6.241   8.272   7.171  0.1638 -0.4172 -0.1128
  899YOPE   D3B13277   6.450   8.460   7.541  0.1043 -0.2054 -0.0093
  899YOPE   C4B13278   6.555   8.617   7.902  0.2040  0.1138 -0.1204
  900YOPE   NH313279   2.264  16.690   5.797 -0.1394 -0.1491  0.0169
  900YOPE   PO413280   2.427  17.040   5.558  0.0491 -0.1659 -0.0678
  900YOPE   GL113281   2.583  17.257   5.963  0.3259  0.0698 -0.1546
  900YOPE   GL213282   2.459  17.047   6.167 -0.0500  0.0555 -0.0803
  900YOPE   C1A13283   2.827  17.553   6.065  0.4149 -0.4105  0.2134
  900YOPE   D2A13284   3.281  17.682   6.329  0.0799 -0.0631 -0.0028
  900YOPE   C3A13285   3.570  17.811   6.564  0.2024 -0.0137 -0.1922
  900YOPE   C4A13286   3.732  17.904   7.061  0.2995 -0.1016  0.1484
  900YOPE   C1B13287   2.464  17.265   6.535 -0.1745 -0.0525  0.1607
  900YOPE   C2B13288   2.458  17.249   6.946 -0.1604 -0.2371  0.0511
  900YOPE   D3B13289   2.214  17.270   7.306 -0.1243  0.2085  0.3200
  900YOPE   C4B13290   2.010  17.148   7.649  0.5039 -0.1544 -0.0428
  901YOPE   NH313291   8.806  11.564   5.710 -0.0675  0.1759  0.1344
  901YOPE   PO413292   8.438  11.686   5.940 -0.0876 -0.0401  0.2042
  901YOPE   GL113293   8.075  11.533   6.171 -0.3338 -0.0840 -0.0012
  901YOPE   GL213294   7.722  11.706   6.130 -0.2453  0.1517  0.0133
  901YOPE   C1A13295   8.233  11.458   6.658  0.3065 -0.1498  0.0455
  901YOPE   D2A13296   8.618  11.422   6.860  0.1180 -0.3979  0.3293
  901YOPE   C3A13297   8.754  11.099   7.027 -0.0545 -0.0840 -0.2759
  901YOPE   C4A13298   8.760  10.765   7.224  0.2045 -0.2535  0.3788
  901YOPE   C1B13299   7.710  11.509   6.538  0.0533  0.1300 -0.0614
  901YOPE   C2B13300   7.865  11.324   6.938  0.1222  0.0098 -0.1174
  901YOPE   D3B13301   8.130  11.420   7.228 -0.2470 -0.0032  0.0684
  901YOPE   C4B13302   8.184  11.618   7.563  0.1702  0.0064 -0.1790
  902YOPE   NH313303   8.000  11.891   5.805  0.2059  0.1220  0.1976
  902YOPE   PO413304   8.215  12.318   5.836  0.0290  0.2339  0.5186
  902YOPE   GL113305   8.206  12.174   6.160 -0.2743 -0.1014 -0.1421
  902YOPE   GL213306   8.592  12.276   6.251  0.3536 -0.1566 -0.0488
  902YOPE   C1A13307   8.076  11.965   6.499 -0.0104 -0.4129 -0.1052
  902YOPE   D2A13308   7.903  11.840   6.856 -0.0034  0.1341  0.0753
  902YOPE   C3A13309   7.654  12.057   7.176 -0.3735  0.0277 -0.1569
  902YOPE   C4A13310   7.401  12.227   7.527  0.0319 -0.0128 -0.2550
  902YOPE   C1B13311   8.440  12.400   6.673  0.2176 -0.1574  0.1741
  902YOPE   C2B13312   8.714  12.587   6.981  0.0866 -0.0378  0.0814
  902YOPE   D3B13313   9.086  12.538   7.167 -0.0579 -0.1109 -0.1090
  902YOPE   C4B13314   9.504  12.423   6.957 -0.2323  0.2385  0.1706
  903YOPE   NH313315  16.422   9.819   6.157 -0.2797  0.2318  0.0428
  903YOPE   PO413316  16.455  10.261   6.121  0.3733  0.4025 -0.0031
  903YOPE   GL113317  16.429  10.546   6.500  0.0309  0.3403 -0.0908
  903YOPE   GL213318  16.681  10.615   6.438  0.1368 -0.0736  0.2610
  903YOPE   C1A13319  16.543  10.826   6.860 -0.1894 -0.1998  0.2138
  903YOPE   D2A13320  16.722  10.999   7.184 -0.1549 -0.1077 -0.0164
  903YOPE   C3A13321  16.657  10.649   7.566 -0.3219  0.0039 -0.0215
  903YOPE   C4A13322  16.892  10.298   7.568  0.2772  0.0053  0.3305
  903YOPE   C1B13323  16.817  10.429   6.843 -0.0376 -0.2154  0.0564
  903YOPE   C2B13324  16.692  10.466   7.137 -0.0683  0.1063  0.1163
  903YOPE   D3B13325  16.411  10.260   7.350  0.0871  0.0477 -0.0374
  903YOPE   C4B13326  16.356  10.013   7.750  0.0853  0.1984 -0.2401
  904YOPE   NH313327   8.622  17.163   5.367  0.1169  0.1317 -0.1274
  904YOPE   PO413328   9.021  16.947   5.298 -0.0488  0.4089  0.3540
  904YOPE   GL113329   8.886  16.879   5.734 -0.0888  0.1731  0.0891
  904YOPE   GL213330   8.530  16.990   5.870 -0.2332 -0.0413  0.0253
  904YOPE   C1A13331   8.959  16.667   6.107 -0.1201 -0.2468 -0.1939
  904YOPE   D2A13332   9.044  16.829   6.486  0.2395  0.1028 -0.0964
  904YOPE   C3A13333   8.782  16.948   6.802  0.3869 -0.1377  0.1325
  904YOPE   C4A13334   8.292  16.832   6.849  0.3547 -0.3654  0.0662
  904YOPE   C1B13335   8.378  17.019   6.252 -0.2446 -0.0885 -0.0630
  904YOPE   C2B13336   8.015  16.716   6.464  0.0037  0.0062 -0.0161
  904YOPE   D3B13337   7.874  16.274   6.520 -0.1752  0.1262  0.1430
  904YOPE   C4B13338   7.793  15.777   6.538  0.0128  0.0349  0.0343
  905YOPE   NH313339  17.063   4.388   5.961  0.1390  0.1890  0.0193
  905YOPE   PO413340  16.715   4.157   5.738 -0.1396  0.1955  0.2077
  905YOPE   GL113341  16.768   3.953   6.135 -0.1930 -0.3531  0.2955
  905YOPE   GL213342  17.154   3.861   6.234  0.0602 -0.2209  0.2330
  905YOPE   C1A13343  16.835   3.885   6.580  0.1474  0.0648  0.1704
  905YOPE   D2A13344  16.888   4.159   6.997 -0.4754 -0.0231 -0.4516
  905YOPE   C3A13345  16.856   4.019   7.416  0.0225  0.0875 -0.0731
  905YOPE   C4A13346  16.907   3.808   7.753 -0.2348  0.1205 -0.2048
  905YOPE   C1B13347  17.285   3.631   6.590  0.0082  0.0608 -0.1151
  905YOPE   C2B13348  17.383   3.335   6.916 -0.2300 -0.1079 -0.0991
  905YOPE   D3B13349  17.200   2.995   7.307  0.1248  0.0074 -0.1743
  905YOPE   C4B13350  16.876   2.704   7.649 -0.0152  0.0940  0.3717
  906YOPE   NH313351  12.443   6.525   5.914 -0.5409  0.0054  0.1512
  906YOPE   PO413352  12.218   6.958   6.035 -0.2537  0.0808 -0.0512
  906YOPE   GL113353  11.946   7.090   6.350  0.0148 -0.1581  0.1054
  906YOPE   GL213354  11.648   6.852   6.390 -0.1622  0.0443  0.0281
  906YOPE   C1A13355  11.776   7.193   6.760 -0.0376  0.2078 -0.1348
  906YOPE   D2A13356  11.809   7.134   7.220  0.0075 -0.2355 -0.1274
  906YOPE   C3A13357  12.011   7.429   7.575 -0.0841 -0.1940  0.2802
  906YOPE   C4A13358  12.470   7.546   7.676 -0.0251  0.3239  0.0538
  906YOPE   C1B13359  11.475   6.784   6.700 -0.4945  0.1548  0.0468
  906YOPE   C2B13360  11.299   6.663   7.137  0.2608  0.1851  0.2137
  906YOPE   D3B13361  11.065   7.000   7.494 -0.0055  0.2295  0.1234
  906YOPE   C4B13362  11.148   7.134   7.866 -0.0301 -0.0735  0.1534
  907YOPE   NH313363  10.664   0.315   6.106 -0.2170 -0.0725 -0.0506
  907YOPE   PO413364  10.518   0.545   5.888  0.1045 -0.2034 -0.2739
  907YOPE   GL113365  10.533   0.799   6.291  0.0411 -0.1150  0.0035
  907YOPE   GL213366  10.812   0.805   6.220 -0.0125 -0.0895 -0.0855
  907YOPE   C1A13367  10.274   1.163   6.583 -0.1702  0.2302  0.0560
  907YOPE   D2A13368  10.159   1.070   6.966  0.2194  0.0682  0.0298
  907YOPE   C3A13369  10.499   1.095   7.200 -0.1619 -0.1699 -0.0648
  907YOPE   C4A13370  10.878   0.863   7.291 -0.2201  0.0816  0.0147
  907YOPE   C1B13371  11.109   0.955   6.506  0.2955 -0.0368 -0.1949
  907YOPE   C2B13372  11.292   0.979   6.995 -0.2253  0.0492  0.1396
  907YOPE   D3B13373  11.563   1.108   7.284  0.1491 -0.1654  0.0791
  907YOPE   C4B13374  11.731   1.298   7.685 -0.1197 -0.1506 -0.0939
  908YOPE   NH313375  16.990   9.385   5.869  0.0182 -0.4189 -0.1019
  908YOPE   PO413376  16.881   9.843   6.062  0.0289  0.1494  0.0090
  908YOPE   GL113377  16.806   9.589   6.378  0.0471  0.1121  0.1379
  908YOPE   GL213378  17.073   9.405   6.523 -0.0619  0.0974 -0.2641
  908YOPE   C1A13379  16.543   9.497   6.743 -0.2410 -0.1540 -0.1677
  908YOPE   D2A13380  16.261   9.563   7.043  0.2005  0.1714  0.3068
  908YOPE   C3A13381  16.265   9.810   7.283  0.1389 -0.0705 -0.2070
  908YOPE   C4A13382  15.893  10.034   7.580  0.3284 -0.0499 -0.0020
  908YOPE   C1B13383  17.004   9.292   6.943  0.3821  0.4289  0.1661
  908YOPE   C2B13384  16.794   9.286   7.341  0.2744  0.2726  0.0270
  908YOPE   D3B13385  16.383   9.340   7.507 -0.0768  0.1140  0.0948
  908YOPE   C4B13386  16.146   9.536   7.866 -0.0716 -0.1874  0.5379
  909YOPE   NH313387   4.291   0.389   5.525 -0.1859 -0.1025  0.2336
  909YOPE   PO413388   4.080   0.047   5.750 -0.1227  0.4326 -0.1892
  909YOPE   GL113389   4.259  -0.176   6.190 -0.1053 -0.1941 -0.0836
  909YOPE   GL213390   4.443  -0.381   6.031 -0.0444 -0.0431 -0.0552
  909YOPE   C1A13391   4.215  -0.054   6.653  0.1409  0.0244  0.0374
  909YOPE   D2A13392   4.194   0.008   7.046  0.2426 -0.0365  0.3003
  909YOPE   C3A13393   3.928  -0.199   7.431 -0.1151  0.2427  0.0188
  909YOPE   C4A13394   3.957  -0.352   7.835 -0.1653  0.0292 -0.0807
  909YOPE   C1B13395   4.586  -0.446   6.481  0.1656  0.0265 -0.1508
  909YOPE   C2B13396   4.640  -0.237   6.866 -0.0389  0.1068 -0.1166
  909YOPE   D3B13397   4.634  -0.528   7.291 -0.0141  0.1193  0.0240
  909YOPE   C4B13398   4.170  -0.664   7.364  0.2335  0.2715  0.1051
  910YOPE   NH313399  13.806   8.563   5.409  0.2147  0.2425  0.1005
  910YOPE   PO413400  14.192   8.473   5.562  0.1142 -0.2816  0.0255
  910YOPE   GL113401  13.831   8.544   5.929 -0.2086  0.0380  0.2732
  910YOPE   GL213402  13.719   8.253   6.075 -0.1415 -0.0806  0.0089
  910YOPE   C1A13403  13.554   8.673   6.273  0.1509 -0.1962 -0.1681
  910YOPE   D2A13404  13.294   8.801   6.676 -0.3024  0.0196 -0.3302
  910YOPE   C3A13405  12.912   8.716   6.583  0.3343 -0.1000  0.0605
  910YOPE   C4A13406  12.390   8.692   6.808 -0.1896 -0.1084 -0.0609
  910YOPE   C1B13407  13.711   8.130   6.557 -0.1780 -0.1639 -0.2337
  910YOPE   C2B13408  13.701   8.114   6.917 -0.0637  0.0793 -0.2351
  910YOPE   D3B13409  13.925   8.064   7.228  0.0225  0.1321 -0.3569
  910YOPE   C4B13410  14.182   7.749   7.405 -0.0062  0.1875  0.1033
  911YOPE   NH313411  10.636  11.162   5.868  0.2088 -0.1575 -0.2944
  911YOPE   PO413412  10.251  10.911   5.885 -0.0884 -0.0406 -0.1932
  911YOPE   GL113413  10.307  10.749   6.290  0.1647 -0.1550  0.5114
  911YOPE   GL213414  10.246  10.402   6.303  0.0204  0.0491  0.1739
  911YOPE   C1A13415  10.227  10.710   6.713  0.1053 -0.0772  0.0057
  911YOPE   D2A13416  10.311  10.565   7.116  0.0803 -0.2276  0.3305
  911YOPE   C3A13417  10.134  10.592   7.583 -0.1930 -0.0463 -0.0674
  911YOPE   C4A13418   9.915  10.386   7.921 -0.3621 -0.0894 -0.0475
  911YOPE   C1B13419   9.912  10.334   6.413 -0.0501 -0.0499  0.2092
  911YOPE   C2B13420   9.665  10.036   6.504 -0.0351  0.1240 -0.2467
  911YOPE   D3B13421   9.664   9.887   6.953  0.2109 -0.0530 -0.0218
  911YOPE   C4B13422   9.665   9.673   7.292 -0.1460  0.1389  0.1822
  912YOPE   NH313423   0.522  10.068   5.960  0.2302 -0.0600 -0.0217
  912YOPE   PO413424   0.076   9.962   6.017 -0.0251 -0.5200 -0.0027
  912YOPE   GL113425  -0.021  10.094   6.510  0.2399  0.1330  0.4752
  912YOPE   GL213426   0.159  10.362   6.536 -0.1359  0.2886  0.1297
  912YOPE   C1A13427   0.005  10.248   6.979  0.0097 -0.0329 -0.0940
  912YOPE   D2A13428  -0.032  10.489   7.318  0.0823  0.4272 -0.0939
  912YOPE   C3A13429   0.060  10.366   7.717 -0.0782 -0.1787  0.0466
  912YOPE   C4A13430   0.089  10.470   8.149 -0.1700 -0.1013  0.0417
  912YOPE   C1B13431   0.501  10.259   6.754  0.0894 -0.1635 -0.1583
  912YOPE   C2B13432   0.594  10.329   7.102 -0.2609  0.0550  0.2957
  912YOPE   D3B13433   0.459  10.419   7.474 -0.0783  0.0860 -0.2740
  912YOPE   C4B13434   0.392  10.815   7.665 -0.1844 -0.0454  0.4794
  913YOPE   NH313435  17.465  14.617   6.083 -0.1939 -0.1906  0.0990
  913YOPE   PO413436  17.391  14.999   6.147 -0.4176 -0.0050  0.0526
  913YOPE   GL113437  17.086  14.938   6.425  0.2797 -0.1372  0.2223
  913YOPE   GL213438  17.237  15.057   6.629 -0.0988 -0.0487  0.0559
  913YOPE   C1A13439  16.701  14.808   6.605  0.2203 -0.0843 -0.0285
  913YOPE   D2A13440  16.532  14.755   7.034  0.1372 -0.0666  0.3169
  913YOPE   C3A13441  16.289  14.784   7.354  0.0122  0.0992  0.0158
  913YOPE   C4A13442  16.061  14.460   7.360  0.2205  0.0326 -0.0663
  913YOPE   C1B13443  17.056  15.003   7.038 -0.0843  0.3337  0.1830
  913YOPE   C2B13444  17.167  14.996   7.530  0.0737  0.2906  0.0836
  913YOPE   D3B13445  17.099  14.707   7.956 -0.0378 -0.0308  0.2014
  913YOPE   C4B13446  16.788  14.463   8.067 -0.3311  0.0886 -0.1981
  914YOPE   NH313447   3.812  16.948   5.756  0.2182 -0.2154  0.2977
  914YOPE   PO413448   4.249  16.748   5.841  0.3389  0.2508 -0.3142
  914YOPE   GL113449   4.073  16.987   6.155 -0.3206 -0.0341  0.2335
  914YOPE   GL213450   4.201  17.167   6.255  0.0052  0.0612  0.0150
  914YOPE   C1A13451   3.863  16.993   6.568  0.0198  0.1465 -0.0067
  914YOPE   D2A13452   3.942  16.872   6.946  0.1251  0.1840 -0.1081
  914YOPE   C3A13453   4.195  16.976   7.258  0.0551 -0.0513  0.2308
  914YOPE   C4A13454   4.317  17.021   7.655 -0.0370 -0.1284 -0.1160
  914YOPE   C1B13455   4.329  17.163   6.590 -0.1484  0.2514  0.1701
  914YOPE   C2B13456   4.546  17.243   6.972  0.0243  0.1012 -0.1720
  914YOPE   D3B13457   4.689  17.523   7.274 -0.1940 -0.1333  0.0476
  914YOPE   C4B13458   4.457  17.482   7.519 -0.0072  0.0125  0.1514
  915YOPE   NH313459  12.521  14.485   5.888  0.0239  0.4123 -0.0552
  915YOPE   PO413460  12.731  14.752   5.662 -0.0964 -0.2057 -0.0555
  915YOPE   GL113461  12.837  14.972   6.015 -0.1367  0.2408  0.0905
  915YOPE   GL213462  12.544  15.041   6.028  0.2093 -0.1418  0.0263
  915YOPE   C1A13463  12.975  15.239   6.317 -0.1118 -0.0921  0.0578
  915YOPE   D2A13464  13.078  15.389   6.786  0.1621 -0.0584  0.1766
  915YOPE   C3A13465  12.984  15.197   7.203 -0.1837 -0.2764  0.3006
  915YOPE   C4A13466  13.042  14.999   7.646  0.0177 -0.1993  0.0056
  915YOPE   C1B13467  12.564  15.015   6.463 -0.0697 -0.4402 -0.0525
  915YOPE   C2B13468  12.633  15.000   6.901  0.2744 -0.3144 -0.0210
  915YOPE   D3B13469  12.651  14.858   7.351  0.1320  0.0644  0.0458
  915YOPE   C4B13470  12.412  14.532   7.471  0.0873 -0.2101  0.2763
  916YOPE   NH313471   6.323  12.943   5.690  0.1502  0.2244  0.0253
  916YOPE   PO413472   5.822  13.088   5.729  0.0436  0.2691  0.1228
  916YOPE   GL113473   5.793  13.106   6.169  0.0648 -0.2517  0.0988
  916YOPE   GL213474   5.770  12.747   6.141  0.0537 -0.3253 -0.0904
  916YOPE   C1A13475   5.929  13.335   6.521  0.0617  0.2042  0.0267
  916YOPE   D2A13476   5.966  13.571   6.943  0.0799  0.2950  0.2544
  916YOPE   C3A13477   6.294  13.624   7.266  0.0685 -0.5818  0.0843
  916YOPE   C4A13478   6.439  13.419   7.619 -0.1694 -0.0113  0.2053
  916YOPE   C1B13479   5.639  12.836   6.589 -0.1155  0.1918 -0.1486
  916YOPE   C2B13480   5.530  12.714   6.949 -0.0154  0.0514 -0.0418
  916YOPE   D3B13481   5.531  12.519   7.359 -0.0051 -0.0260 -0.1157
  916YOPE   C4B13482   5.532  12.239   7.610 -0.1629 -0.2945 -0.2350
  917YOPE   NH313483   1.640  14.054   5.913  0.0900  0.0744 -0.0728
  917YOPE   PO413484   1.541  13.747   5.743 -0.0448 -0.0524  0.0143
  917YOPE   GL113485   1.432  13.636   6.126 -0.0113  0.3806 -0.3099
  917YOPE   GL213486   1.068  13.522   6.246 -0.0644  0.0529 -0.0873
  917YOPE   C1A13487   1.438  13.496   6.617 -0.1744  0.1054 -0.1264
  917YOPE   D2A13488   1.321  13.616   7.043 -0.2349  0.1925  0.0160
  917YOPE   C3A13489   1.429  13.496   7.470 -0.1324 -0.5129  0.1059
  917YOPE   C4A13490   1.466  13.207   7.801  0.4031 -0.0580 -0.0728
  917YOPE   C1B13491   1.051  13.865   6.502 -0.1012  0.2301 -0.3989
  917YOPE   C2B13492   1.089  14.082   6.888  0.3212  0.3137  0.2155
  917YOPE   D3B13493   1.112  13.964   7.319 -0.1022  0.0804 -0.1189
  917YOPE   C4B13494   1.370  14.004   7.644 -0.0000 -0.0197  0.2813
  918YOPE   NH313495   4.304   5.050   6.003 -0.1344  0.5010  0.0825
  918YOPE   PO413496   4.730   4.916   5.891  0.3769  0.0071 -0.0896
  918YOPE   GL113497   4.636   4.552   6.210 -0.0027  0.0805 -0.0646
  918YOPE   GL213498   4.500   4.317   6.191 -0.2592 -0.3925  0.0784
  918YOPE   C1A13499   4.736   4.609   6.562 -0.0639 -0.0145  0.0298
  918YOPE   D2A13500   4.734   4.672   6.883 -0.1158 -0.0438 -0.2852
  918YOPE   C3A13501   4.454   4.827   7.123 -0.1168  0.2937  0.1541
  918YOPE   C4A13502   4.280   4.724   7.474  0.1432 -0.0063  0.0335
  918YOPE   C1B13503   4.555   4.147   6.535  0.0578  0.1489 -0.1521
  918YOPE   C2B13504   4.676   4.180   6.874 -0.1364 -0.3703 -0.1898
  918YOPE   D3B13505   4.645   4.318   7.335  0.2047 -0.2792 -0.0673
  918YOPE   C4B13506   4.539   4.265   7.713 -0.1950 -0.0460  0.2753
  919YOPE   NH313507   4.352   7.344   6.060 -0.3704 -0.2521  0.2209
  919YOPE   PO413508   4.547   7.627   5.834  0.0315  0.0918  0.1865
  919YOPE   GL113509   4.530   7.827   6.121  0.0471 -0.2224  0.0742
  919YOPE   GL213510   4.162   7.754   6.287  0.1356  0.2672  0.3389
  919YOPE   C1A13511   4.680   8.123   6.466  0.0225  0.0446 -0.0532
  919YOPE   D2A13512   5.041   8.258   6.589 -0.0838  0.2490  0.1294
  919YOPE   C3A13513   5.317   7.913   6.677  0.1240 -0.2962  0.1665
  919YOPE   C4A13514   5.673   7.584   6.735  0.2461 -0.0978  0.2373
  919YOPE   C1B13515   4.291   7.907   6.620 -0.2662 -0.1644  0.4170
  919YOPE   C2B13516   4.456   8.108   6.918  0.1807  0.0495 -0.0653
  919YOPE   D3B13517   4.763   8.245   7.000 -0.2177 -0.3288  0.3427
  919YOPE   C4B13518   5.167   8.412   7.043 -0.1210 -0.0271  0.0551
  920YOPE   NH313519   5.433  12.772   5.760 -0.0461  0.0592 -0.0280
  920YOPE   PO413520   5.517  12.318   5.876 -0.1094 -0.3919  0.0180
  920YOPE   GL113521   5.566  12.326   6.214  0.1921  0.1592  0.1487
  920YOPE   GL213522   5.604  12.022   6.387  0.1140  0.1186 -0.0092
  920YOPE   C1A13523   5.308  12.444   6.581  0.0389  0.5351  0.2393
  920YOPE   D2A13524   5.115  12.456   6.945  0.0124  0.2102  0.0733
  920YOPE   C3A13525   4.713  12.265   7.118  0.0315  0.0534 -0.1084
  920YOPE   C4A13526   4.521  11.864   7.115  0.1146 -0.3313  0.1026
  920YOPE   C1B13527   5.332  11.966   6.693  0.0458 -0.0980 -0.1158
  920YOPE   C2B13528   5.200  11.986   7.085 -0.0455  0.0747 -0.0151
  920YOPE   D3B13529   5.057  12.078   7.611  0.0842  0.2535 -0.0712
  920YOPE   C4B13530   4.738  12.386   7.823  0.2586  0.0136  0.1853
  921YOPE   NH313531   1.423   1.231   5.406  0.0738  0.0493  0.1136
  921YOPE   PO413532   1.624   1.608   5.454 -0.0358  0.0336 -0.0277
  921YOPE   GL113533   1.382   1.565   5.825 -0.2218 -0.1121 -0.1496
  921YOPE   GL213534   1.603   1.593   6.064 -0.2972  0.0781 -0.2250
  921YOPE   C1A13535   1.148   1.262   6.277  0.2781 -0.1409  0.0752
  921YOPE   D2A13536   1.155   1.131   6.820  0.1832 -0.3575 -0.3195
  921YOPE   C3A13537   0.977   0.909   6.993 -0.4002 -0.2971 -0.3222
  921YOPE   C4A13538   0.958   0.807   7.452  0.2265 -0.2863  0.0377
  921YOPE   C1B13539   2.042   1.556   6.120 -0.2496 -0.0134 -0.3204
  921YOPE   C2B13540   2.468   1.646   6.335  0.1679  0.1673  0.0135
  921YOPE   D3B13541   2.878   1.929   6.472 -0.0869  0.3005 -0.0950
  921YOPE   C4B13542   3.330   2.073   6.716 -0.1564  0.1399 -0.1264
  922YOPE   NH313543  14.673  13.756   5.799 -0.1855  0.0496 -0.2628
  922YOPE   PO413544  14.300  13.756   5.769 -0.0715  0.0216  0.0655
  922YOPE   GL113545  14.031  13.901   6.119  0.1039  0.0609 -0.1057
  922YOPE   GL213546  14.032  13.752   6.392 -0.1537  0.4161 -0.0616
  922YOPE   C1A13547  14.059  14.211   6.526 -0.1537  0.1678 -0.1564
  922YOPE   D2A13548  13.978  14.326   7.017  0.1271  0.2464 -0.1677
  922YOPE   C3A13549  14.269  14.564   7.155  0.1406  0.2463  0.2585
  922YOPE   C4A13550  14.633  14.769   7.249  0.3979  0.4267  0.0283
  922YOPE   C1B13551  14.094  13.358   6.724  0.0687 -0.0861  0.2417
  922YOPE   C2B13552  13.962  13.386   7.108  0.2189 -0.3270 -0.1633
  922YOPE   D3B13553  13.893  13.351   7.539 -0.1597  0.1529  0.1791
  922YOPE   C4B13554  14.226  13.504   7.849  0.1803 -0.0549  0.0389
  923YOPE   NH313555  10.464  17.926   6.090  0.2906 -0.0003 -0.3170
  923YOPE   PO413556  10.683  18.340   6.222  0.0422 -0.0631  0.0545
  923YOPE   GL113557  10.604  18.054   6.517 -0.0531  0.2513 -0.2916
  923YOPE   GL213558  10.640  17.701   6.484  0.0436  0.0645 -0.3072
  923YOPE   C1A13559  10.486  17.944   6.910 -0.0294  0.0310  0.3028
  923YOPE   D2A13560  10.413  18.039   7.318  0.0519 -0.3605  0.0016
  923YOPE   C3A13561  10.234  18.285   7.582 -0.2793 -0.0198  0.0083
  923YOPE   C4A13562   9.815  18.211   7.543  0.0834  0.0634 -0.4164
  923YOPE   C1B13563  10.523  17.415   6.814 -0.0695 -0.1064  0.0471
  923YOPE   C2B13564  10.566  17.415   7.296  0.1910  0.1519  0.3470
  923YOPE   D3B13565  10.696  17.649   7.508 -0.0534  0.3232 -0.2846
  923YOPE   C4B13566  10.790  17.504   7.837  0.0878 -0.1672  0.3295
  924YOPE   NH313567   9.713  14.786   5.725  0.2193  0.0737 -0.1153
  924YOPE   PO413568   9.450  15.097   5.926  0.2545  0.2905 -0.1603
  924YOPE   GL113569   9.345  14.977   6.392 -0.0937 -0.0721 -0.1136
  924YOPE   GL213570   9.263  14.700   6.371 -0.1648  0.4303 -0.0408
  924YOPE   C1A13571   9.614  15.000   6.737  0.1817 -0.0432  0.2458
  924YOPE   D2A13572   9.995  14.789   6.791  0.1037 -0.1416 -0.0506
  924YOPE   C3A13573  10.057  14.733   7.273 -0.1919 -0.0778 -0.0978
  924YOPE   C4A13574   9.834  14.442   7.477 -0.2269 -0.0298 -0.2717
  924YOPE   C1B13575   9.160  14.857   6.842  0.1367  0.0442  0.0541
  924YOPE   C2B13576   9.290  14.742   7.338 -0.0277  0.1826 -0.1960
  924YOPE   D3B13577   9.457  14.986   7.519 -0.1163  0.0548  0.0484
  924YOPE   C4B13578   9.686  15.392   7.592 -0.2175  0.1369  0.1072
  925POPC   NC313579   1.508  11.362   5.341 -0.5140  0.0295 -0.1336
  925POPC   PO413580   1.796  10.994   5.646 -0.0498 -0.0059  0.4495
  925POPC   GL113581   1.797  11.169   6.081  0.0340 -0.1022 -0.1025
  925POPC   GL213582   1.624  11.526   6.076  0.2337  0.0763  0.0866
  925POPC   C1A13583   1.586  11.245   6.520  0.0662 -0.2742  0.0408
  925POPC   D2A13584   1.637  11.181   6.914  0.0880  0.1271  0.1806
  925POPC   C3A13585   1.733  10.877   7.006  0.1007 -0.0243 -0.2841
  925POPC   C4A13586   1.893  10.566   7.186  0.1868 -0.0571 -0.0583
  925POPC   C1B13587   1.536  11.780   6.405  0.0266 -0.3080 -0.0877
  925POPC   C2B13588   1.368  12.100   6.657  0.3230  0.0095  0.2699
  925POPC   C3B13589   1.100  12.185   6.960  0.2384 -0.0613  0.0699
  925POPC   C4B13590   0.943  12.355   7.374 -0.2162 -0.3038  0.0793
  926POPC   NC313591  13.456  12.785   5.353 -0.0184  0.0134 -0.1213
  926POPC   PO413592  13.329  13.197   5.613  0.0082  0.3791  0.2377
  926POPC   GL113593  13.152  12.958   5.909  0.1149  0.2313  0.0918
  926POPC   GL213594  13.304  12.830   6.124  0.1465  0.0412  0.2866
  926POPC   C1A13595  12.768  12.816   6.018 -0.3034  0.1751 -0.4766
  926POPC   D2A13596  12.511  12.593   6.169  0.1107 -0.0499 -0.3481
  926POPC   C3A13597  12.526  12.362   6.499  0.0680  0.0283 -0.3912
  926POPC   C4A13598  12.242  12.296   6.802 -0.2442 -0.0781  0.2608
  926POPC   C1B13599  13.152  13.207   6.389  0.2612  0.1165  0.0219
  926POPC   C2B13600  12.966  13.503   6.776 -0.1295 -0.0533  0.3044
  926POPC   C3B13601  12.879  13.544   7.242  0.2501  0.0751 -0.2773
  926POPC   C4B13602  12.849  13.258   7.635  0.2940 -0.0190  0.1886
  927POPC   NC313603  13.155   9.284   5.797 -0.0206  0.1558 -0.0698
  927POPC   PO413604  13.580   9.327   5.637  0.2735  0.0699 -0.0131
  927POPC   GL113605  13.932   9.594   5.930  0.4038  0.1881  0.2913
  927POPC   GL213606  14.229   9.340   6.045 -0.1610 -0.2346  0.0914
  927POPC   C1A13607  14.304   9.913   6.075  0.1697 -0.2629 -0.0513
  927POPC   D2A13608  14.550  10.225   6.375  0.0054  0.0840 -0.0684
  927POPC   C3A13609  14.781  10.295   6.745 -0.2557 -0.3366 -0.0054
  927POPC   C4A13610  14.973  10.541   6.926 -0.2534 -0.0743  0.0500
  927POPC   C1B13611  14.044   9.519   6.405 -0.4267 -0.3445 -0.0298
  927POPC   C2B13612  14.072   9.511   6.837  0.2949 -0.1225  0.1275
  927POPC   C3B13613  14.337   9.465   7.187  0.3259 -0.2245 -0.0437
  927POPC   C4B13614  14.523   9.341   7.507 -0.1546 -0.1763 -0.1165
  928POPC   NC313615   2.407   6.393   5.766  0.0193 -0.0531 -0.0871
  928POPC   PO413616   1.950   6.552   5.904 -0.0923 -0.0419  0.1521
  928POPC   GL113617   2.032   6.656   6.356 -0.1842 -0.0811  0.3681
  928POPC   GL213618   2.359   6.622   6.308 -0.0062  0.3769 -0.1486
  928POPC   C1A13619   1.921   6.727   6.816  0.1517  0.2235 -0.0238
  928POPC   D2A13620   1.854   6.739   7.297  0.1773  0.2260  0.2087
  928POPC   C3A13621   2.356   6.757   7.556  0.0067  0.2436  0.2113
  928POPC   C4A13622   2.514   6.612   8.020  0.0979  0.1858 -0.1263
  928POPC   C1B13623   2.280   6.355   6.712  0.1441  0.2559 -0.0210
  928POPC   C2B13624   2.231   6.376   7.147  0.0601 -0.3149  0.2027
  928POPC   C3B13625   2.075   6.357   7.560  0.0543  0.0953 -0.1923
  928POPC   C4B13626   2.028   5.938   7.730  0.0085 -0.0374 -0.4593
  929POPC   NC313627  14.081  17.473   5.200 -0.1370  0.2606 -0.0646
  929POPC   PO413628  13.852  17.282   5.566 -0.2541 -0.2463  0.2067
  929POPC   GL113629  14.086  17.340   5.964 -0.0119 -0.0354  0.0723
  929POPC   GL213630  14.307  17.214   6.118  0.2514  0.0180  0.3119
  929POPC   C1A13631  14.018  17.687   6.082  0.2513 -0.1700 -0.0327
  929POPC   D2A13632  14.074  17.992   6.374  0.0238  0.0137  0.1385
  929POPC   C3A13633  14.146  18.486   6.389 -0.3002  0.1008 -0.1645
  929POPC   C4A13634  13.935  18.949   6.320  0.2254  0.4060 -0.0245
  929POPC   C1B13635  14.528  17.033   6.567 -0.2745 -0.1769  0.2293
  929POPC   C2B13636  14.541  17.045   6.952 -0.0446  0.0897  0.0873
  929POPC   C3B13637  14.536  16.895   7.364 -0.1917  0.1340  0.0007
  929POPC   C4B13638  14.441  16.972   7.838  0.1620  0.1845  0.0319
  930POPC   NC313639   7.954   4.380   6.003 -0.1683  0.1567 -0.0424
  930POPC   PO413640   7.531   4.337   5.769 -0.3416  0.0491 -0.1095
  930POPC   GL113641   7.484   4.211   6.165 -0.2699  0.0931 -0.1048
  930POPC   GL213642   7.523   3.927   6.379 -0.1767 -0.0554 -0.0076
  930POPC   C1A13643   7.290   4.406   6.546  0.2473 -0.1435 -0.1490
  930POPC   D2A13644   7.344   4.309   6.911  0.1763 -0.0234 -0.1226
  930POPC   C3A13645   7.185   4.379   7.248  0.1037  0.2824  0.1689
  930POPC   C4A13646   6.862   4.278   7.502 -0.0006 -0.4096 -0.0348
  930POPC   C1B13647   7.285   3.920   6.659  0.2115  0.3162 -0.1721
  930POPC   C2B13648   7.303   3.845   7.102 -0.0648 -0.1169 -0.1153
  930POPC   C3B13649   7.359   3.880   7.548  0.0995 -0.1395  0.2048
  930POPC   C4B13650   7.585   3.812   7.868 -0.0764 -0.1963 -0.4769
  931POPC   NC313651  13.287   1.803   5.647 -0.1433  0.1443  0.0309
  931POPC   PO413652  13.279   1.365   5.348  0.0754  0.0235  0.3172
  931POPC   GL113653  13.361   1.269   5.794 -0.1205  0.2443 -0.1516
  931POPC   GL213654  13.129   1.074   5.956  0.1861 -0.0524 -0.0233
  931POPC   C1A13655  13.514   1.356   6.303 -0.4153  0.0329  0.2660
  931POPC   D2A13656  13.982   1.418   6.532 -0.0563  0.1645 -0.0796
  931POPC   C3A13657  14.314   1.122   6.813  0.2505 -0.1121 -0.2197
  931POPC   C4A13658  14.705   1.112   7.104  0.0709  0.0358 -0.1670
  931POPC   C1B13659  13.107   1.104   6.413  0.0609 -0.2873  0.0585
  931POPC   C2B13660  13.152   1.130   6.841 -0.0910  0.2122 -0.1660
  931POPC   C3B13661  13.204   1.367   7.274  0.1659 -0.2168  0.5080
  931POPC   C4B13662  13.329   1.486   7.697 -0.0756 -0.0265  0.2399
  932POPC   NC313663   9.962   2.590   5.659  0.3027  0.1366  0.2154
  932POPC   PO413664  10.340   2.390   5.541 -0.1221  0.2599 -0.1614
  932POPC   GL113665  10.360   2.301   5.979 -0.0910 -0.0372 -0.0279
  932POPC   GL213666  10.763   2.200   6.074 -0.1908  0.0133 -0.0954
  932POPC   C1A13667  10.242   2.199   6.469  0.1424 -0.0116 -0.1947
  932POPC   D2A13668  10.264   2.058   6.923  0.1003  0.0563 -0.1477
  932POPC   C3A13669   9.945   2.082   7.187 -0.0137 -0.2086  0.0934
  932POPC   C4A13670   9.704   2.247   7.402  0.2636 -0.0307 -0.0699
  932POPC   C1B13671  10.880   2.301   6.466  0.2216 -0.1830 -0.1522
  932POPC   C2B13672  10.602   2.598   6.735  0.1873 -0.3110 -0.1030
  932POPC   C3B13673  10.482   2.584   7.068  0.0142 -0.2397 -0.1244
  932POPC   C4B13674  10.250   2.434   7.490 -0.2168  0.4487  0.1454
  933POPC   NC313675  14.412   6.614   5.625 -0.1608  0.2165  0.2236
  933POPC   PO413676  13.980   6.446   5.579 -0.1240  0.4288  0.0739
  933POPC   GL113677  14.053   6.663   6.000 -0.1321 -0.0960  0.1830
  933POPC   GL213678  13.743   6.693   6.155  0.0838 -0.1908  0.1231
  933POPC   C1A13679  14.172   6.558   6.438 -0.0041  0.2397  0.0982
  933POPC   D2A13680  14.080   6.280   6.864  0.0297  0.3426  0.1469
  933POPC   C3A13681  14.106   6.358   7.280 -0.0449 -0.3320  0.1770
  933POPC   C4A13682  14.173   6.642   7.613 -0.4527  0.2809  0.1828
  933POPC   C1B13683  13.593   6.578   6.514  0.0327  0.0363 -0.0780
  933POPC   C2B13684  13.757   6.658   6.817  0.2506 -0.0725 -0.2538
  933POPC   C3B13685  13.657   6.702   7.108 -0.0388  0.0752 -0.1573
  933POPC   C4B13686  13.651   6.532   7.483 -0.0442  0.0475  0.0030
  934POPC   NC313687   7.483   3.434   5.544 -0.1766 -0.0561 -0.1577
  934POPC   PO413688   7.855   3.280   5.845 -0.1368  0.3136  0.5553
  934POPC   GL113689   8.149   3.442   6.202  0.2173 -0.5667 -0.2189
  934POPC   GL213690   7.872   3.361   6.376  0.1781  0.0311  0.0381
  934POPC   C1A13691   8.393   3.422   6.629  0.0068 -0.0392 -0.2618
  934POPC   D2A13692   8.486   3.123   6.947 -0.0424  0.3058 -0.0310
  934POPC   C3A13693   8.562   3.249   7.415 -0.1738  0.1387  0.1765
  934POPC   C4A13694   8.528   3.382   7.861  0.1129 -0.0901 -0.0802
  934POPC   C1B13695   7.956   3.657   6.642 -0.0612  0.2208  0.0471
  934POPC   C2B13696   7.777   3.952   6.934 -0.2863  0.1518 -0.1343
  934POPC   C3B13697   7.700   4.151   7.277  0.2203  0.1999  0.1349
  934POPC   C4B13698   7.875   4.299   7.555  0.1260  0.1767 -0.3378
  935POPC   NC313699  12.752   0.284   5.522  0.1214  0.0412  0.1712
  935POPC   PO413700  13.153   0.366   5.533 -0.4116 -0.0257 -0.0675
  935POPC   GL113701  13.281   0.575   5.990 -0.1265 -0.1874 -0.1937
  935POPC   GL213702  13.500   0.816   6.151  0.0048 -0.0936  0.1035
  935POPC   C1A13703  13.347   0.495   6.482  0.1212  0.1315 -0.0994
  935POPC   D2A13704  13.434   0.477   6.823 -0.1442 -0.0343  0.1999
  935POPC   C3A13705  13.523   0.803   7.089  0.2109  0.0815  0.0391
  935POPC   C4A13706  13.592   1.104   7.483  0.2490 -0.0675 -0.0110
  935POPC   C1B13707  13.566   0.915   6.568 -0.1616  0.2703  0.1162
  935POPC   C2B13708  13.620   1.292   6.950 -0.4205  0.0143  0.0912
  935POPC   C3B13709  13.938   1.499   7.079 -0.0876 -0.0362 -0.0038
  935POPC   C4B13710  14.347   1.622   6.885 -0.1169  0.2112  0.2653
  936POPC   NC313711   4.467  15.909   5.388  0.1522  0.0409  0.0519
  936POPC   PO413712   4.067  15.726   5.502  0.0257  0.6686  0.1393
  936POPC   GL113713   4.186  15.656   5.970 -0.1483  0.2049  0.1708
  936POPC   GL213714   4.206  15.407   6.222 -0.0208 -0.0529  0.0139
  936POPC   C1A13715   4.438  15.874   6.322  0.0747 -0.2209 -0.1570
  936POPC   D2A13716   4.667  16.149   6.593  0.0949 -0.1854  0.2771
  936POPC   C3A13717   4.738  16.087   6.986 -0.1152  0.0389 -0.0576
  936POPC   C4A13718   4.958  16.184   7.414 -0.3130 -0.1259  0.1785
  936POPC   C1B13719   4.171  15.505   6.616 -0.0296 -0.0289 -0.4108
  936POPC   C2B13720   4.024  15.491   7.048 -0.4262 -0.0221  0.0014
  936POPC   C3B13721   3.864  15.211   7.474 -0.2128  0.1956 -0.1906
  936POPC   C4B13722   3.711  14.899   7.323 -0.0260  0.1795 -0.1739
  937POPC   NC313723  14.751   7.720   5.742  0.0021 -0.3316 -0.0189
  937POPC   PO413724  14.405   7.632   5.964  0.0988  0.0236 -0.2810
  937POPC   GL113725  14.149   7.374   6.238  0.0424  0.0009  0.0876
  937POPC   GL213726  13.888   7.407   6.425  0.0089 -0.1382 -0.1606
  937POPC   C1A13727  14.304   7.394   6.676  0.1022  0.1110 -0.0868
  937POPC   D2A13728  14.475   7.391   7.137 -0.0510  0.0937  0.3138
  937POPC   C3A13729  14.784   7.483   7.450  0.3964 -0.0530 -0.0970
  937POPC   C4A13730  15.113   7.185   7.639  0.3110  0.0837  0.2760
  937POPC   C1B13731  13.966   6.999   6.525 -0.0011  0.0467  0.2956
  937POPC   C2B13732  14.213   6.867   6.866 -0.0130 -0.1820 -0.4025
  937POPC   C3B13733  14.082   7.028   7.217 -0.5708  0.0215 -0.2097
  937POPC   C4B13734  13.731   7.065   7.395  0.1637 -0.1768 -0.0132
  938POPC   NC313735  12.201   3.255   5.028  0.1224  0.3111 -0.1442
  938POPC   PO413736  12.323   2.946   5.401 -0.0608  0.0176 -0.0562
  938POPC   GL113737  12.279   3.189   5.824 -0.1170 -0.1398  0.0708
  938POPC   GL213738  12.396   3.436   5.925 -0.5432 -0.3189  0.2772
  938POPC   C1A13739  12.232   3.224   6.317  0.1028  0.1553 -0.0326
  938POPC   D2A13740  12.304   3.131   6.681  0.1269  0.2352  0.1609
  938POPC   C3A13741  12.275   3.388   7.036 -0.0183  0.0859 -0.1176
  938POPC   C4A13742  12.485   3.657   7.188 -0.0150 -0.3927  0.0412
  938POPC   C1B13743  12.482   3.655   6.367  0.0491 -0.1214  0.2015
  938POPC   C2B13744  12.665   3.478   6.752  0.1108  0.0085 -0.2505
  938POPC   C3B13745  12.902   3.121   6.945  0.0956  0.1680 -0.0201
  938POPC   C4B13746  13.317   3.114   7.114  0.0090  0.0367  0.1144
  939POPC   NC313747   7.967   8.087   5.812  0.0332 -0.4089  0.0659
  939POPC   PO413748   7.921   8.510   5.836  0.1302  0.4761  0.1179
  939POPC   GL113749   7.649   8.824   6.119  0.2818  0.0405 -0.0739
  939POPC   GL213750   7.725   8.649   6.291  0.2062  0.3692  0.1100
  939POPC   C1A13751   7.571   9.097   6.545 -0.2953 -0.1856  0.0133
  939POPC   D2A13752   7.510   9.068   6.967 -0.1422 -0.0010  0.2862
  939POPC   C3A13753   7.519   9.459   7.235 -0.1473 -0.0773 -0.1802
  939POPC   C4A13754   7.508   9.877   7.539  0.2734 -0.1767  0.0327
  939POPC   C1B13755   7.652   8.580   6.715 -0.3575 -0.2547  0.2844
  939POPC   C2B13756   7.785   8.299   7.021 -0.0443  0.2670  0.3172
  939POPC   C3B13757   7.723   8.266   7.518 -0.1530  0.0204 -0.2810
  939POPC   C4B13758   7.753   8.602   7.870 -0.1864  0.1176  0.2327
  940POPC   NC313759  15.507   1.327   5.166  0.2228 -0.2028  0.1366
  940POPC   PO413760  15.647   1.541   5.521  0.0131 -0.2239 -0.1605
  940POPC   GL113761  15.490   1.684   5.831 -0.0649  0.2144  0.0695
  940POPC   GL213762  15.398   1.279   5.936  0.1871  0.1448 -0.2132
  940POPC   C1A13763  15.524   1.605   6.303  0.5354 -0.0774 -0.2066
  940POPC   D2A13764  15.500   1.180   6.575  0.2160  0.0994  0.1600
  940POPC   C3A13765  15.452   1.199   7.035 -0.1293  0.0124  0.1758
  940POPC   C4A13766  15.588   1.390   7.496  0.3963 -0.2613 -0.1618
  940POPC   C1B13767  15.613   0.911   6.117 -0.1664 -0.1124  0.0735
  940POPC   C2B13768  15.584   0.653   6.398  0.0972  0.1940  0.2992
  940POPC   C3B13769  15.569   0.316   6.579  0.1016 -0.3501  0.2404
  940POPC   C4B13770  15.577  -0.119   6.610 -0.2023  0.0090 -0.0581
  941POPC   NC313771  13.965  10.706   5.641 -0.1254 -0.1779  0.1077
  941POPC   PO413772  13.738  10.689   5.912 -0.1335 -0.0875  0.0794
  941POPC   GL113773  13.896  11.002   6.225 -0.0835  0.0677 -0.1610
  941POPC   GL213774  14.147  10.924   6.101 -0.1828 -0.0388  0.1800
  941POPC   C1A13775  14.099  10.978   6.610  0.2452  0.3216  0.1861
  941POPC   D2A13776  14.201  10.936   7.077 -0.0853 -0.2102  0.0040
  941POPC   C3A13777  14.176  10.714   7.446  0.0409  0.1154  0.3697
  941POPC   C4A13778  14.462  10.886   7.859  0.0388 -0.0965  0.0694
  941POPC   C1B13779  14.409  10.732   6.328 -0.1361 -0.0502  0.3047
  941POPC   C2B13780  14.503  10.649   6.706  0.0325  0.0649  0.0204
  941POPC   C3B13781  14.719  10.892   7.162 -0.0834  0.0058 -0.1086
  941POPC   C4B13782  14.997  11.275   7.417  0.0465 -0.0414 -0.1897
  942POPC   NC313783  18.163   1.555   5.593 -0.1561 -0.1989 -0.2846
  942POPC   PO413784  18.580   1.359   5.544 -0.0248 -0.3856 -0.3969
  942POPC   GL113785  18.461   1.507   5.971 -0.1904 -0.0042  0.1496
  942POPC   GL213786  18.294   1.251   6.156  0.2905 -0.0846  0.0742
  942POPC   C1A13787  18.307   1.739   6.368  0.1591  0.1622 -0.1738
  942POPC   D2A13788  17.967   1.883   6.582  0.2093 -0.1383 -0.3619
  942POPC   C3A13789  17.828   1.648   6.856  0.2219 -0.1914  0.0713
  942POPC   C4A13790  17.758   1.390   7.156  0.2067 -0.2388  0.2076
  942POPC   C1B13791  18.605   1.256   6.477  0.0872 -0.2058 -0.0361
  942POPC   C2B13792  18.705   1.381   6.937 -0.0619  0.2229 -0.0008
  942POPC   C3B13793  18.743   1.210   7.290  0.1693  0.1184 -0.0385
  942POPC   C4B13794  18.773   1.171   7.666 -0.1162  0.2575 -0.1604
  943POPC   NC313795   4.579  12.180   5.697  0.1252  0.2664  0.1220
  943POPC   PO413796   4.469  11.903   6.139  0.0837  0.1426 -0.0349
  943POPC   GL113797   4.503  11.598   6.334 -0.0585  0.0013 -0.1786
  943POPC   GL213798   4.230  11.434   6.463 -0.2936  0.1623  0.1564
  943POPC   C1A13799   4.516  11.355   6.819  0.2137  0.0304  0.1332
  943POPC   D2A13800   4.519  11.348   7.216 -0.0049 -0.3750  0.0329
  943POPC   C3A13801   4.190  11.562   7.386  0.1622 -0.1317 -0.1808
  943POPC   C4A13802   3.851  11.922   7.552  0.3341  0.3591 -0.0407
  943POPC   C1B13803   4.154  11.687   6.837  0.0761 -0.1732 -0.0216
  943POPC   C2B13804   3.795  11.980   6.894  0.0904  0.3260  0.1664
  943POPC   C3B13805   3.639  12.389   6.807  0.0783 -0.0936 -0.1526
  943POPC   C4B13806   3.890  12.771   6.741  0.2435 -0.1269 -0.2083
  944POPC   NC313807   5.187   6.239   5.606 -0.1301 -0.0640 -0.1421
  944POPC   PO413808   5.435   5.927   5.680  0.0679 -0.3828  0.2802
  944POPC   GL113809   5.417   5.749   6.104  0.0409  0.0705 -0.2054
  944POPC   GL213810   5.656   5.538   6.063  0.0916  0.2430  0.5436
  944POPC   C1A13811   5.722   5.709   6.552  0.1040  0.1042  0.1806
  944POPC   D2A13812   5.772   5.288   6.711  0.1810  0.1330  0.2290
  944POPC   C3A13813   5.622   5.000   7.138  0.0996  0.1617 -0.1296
  944POPC   C4A13814   5.594   4.621   7.401 -0.1155 -0.2023 -0.2961
  944POPC   C1B13815   5.393   5.275   6.351  0.1264 -0.1952 -0.0999
  944POPC   C2B13816   5.461   4.875   6.610 -0.2388  0.2167  0.0314
  944POPC   C3B13817   5.274   4.694   6.884  0.1921 -0.0862  0.2970
  944POPC   C4B13818   5.052   4.596   7.268  0.0397  0.1546 -0.1273
  945POPC   NC313819  10.559  16.948   5.826 -0.1195 -0.1402 -0.0296
  945POPC   PO413820  10.838  16.955   5.535  0.4037  0.1545 -0.0330
  945POPC   GL113821  11.015  17.042   6.064 -0.2157  0.2299  0.1786
  945POPC   GL213822  11.088  17.342   6.170 -0.0921  0.1271  0.1098
  945POPC   C1A13823  11.181  16.939   6.593 -0.2616 -0.1938  0.2544
  945POPC   D2A13824  10.966  16.587   6.735  0.0304  0.1616  0.0367
  945POPC   C3A13825  11.247  16.262   6.606  0.3240  0.1128  0.1243
  945POPC   C4A13826  11.222  15.881   6.440 -0.3149 -0.0253 -0.1169
  945POPC   C1B13827  11.042  17.409   6.632  0.0718  0.1526  0.1665
  945POPC   C2B13828  10.900  17.125   6.962 -0.2459  0.0609  0.0132
  945POPC   C3B13829  10.956  16.898   7.275  0.1853  0.0505 -0.0548
  945POPC   C4B13830  10.755  16.550   7.408 -0.0590 -0.0966 -0.1414
  946POPC   NC313831   8.734   7.095   5.471 -0.0407  0.3416  0.4414
  946POPC   PO413832   9.006   7.328   5.746 -0.1533  0.1040 -0.1096
  946POPC   GL113833   8.858   7.193   6.125  0.1299  0.2053 -0.1811
  946POPC   GL213834   8.482   7.166   6.188 -0.0472  0.0066 -0.1250
  946POPC   C1A13835   8.895   6.935   6.473  0.2274 -0.1630 -0.1462
  946POPC   D2A13836   8.858   6.761   6.829 -0.0182  0.0477  0.2292
  946POPC   C3A13837   8.921   6.634   7.300  0.1684  0.0131 -0.0636
  946POPC   C4A13838   9.132   6.483   7.612 -0.2548  0.1164 -0.2953
  946POPC   C1B13839   8.389   7.056   6.679  0.0229  0.0014 -0.1281
  946POPC   C2B13840   8.326   7.284   7.135  0.0932 -0.2949 -0.0899
  946POPC   C3B13841   8.359   7.619   7.423  0.3748 -0.1821 -0.1666
  946POPC   C4B13842   8.646   7.866   7.716 -0.1020  0.3075 -0.0862
  947POPC   NC313843   0.078   0.848   5.281  0.2555 -0.1353  0.1225
  947POPC   PO413844   0.504   0.726   5.233 -0.2846  0.2001 -0.4828
  947POPC   GL113845   0.497   0.685   5.709 -0.0666  0.0408  0.1167
  947POPC   GL213846   0.195   0.886   5.887 -0.0605 -0.0047  0.1036
  947POPC   C1A13847   0.736   0.937   6.031 -0.0277  0.3046  0.1021
  947POPC   D2A13848   0.740   0.826   6.462  0.0400 -0.1846 -0.2324
  947POPC   C3A13849   0.549   0.435   6.728 -0.0489  0.0430 -0.0026
  947POPC   C4A13850   0.797   0.045   6.781  0.1137 -0.4519 -0.2212
  947POPC   C1B13851   0.230   0.842   6.317 -0.2100 -0.3093  0.2264
  947POPC   C2B13852   0.110   0.764   6.723  0.4294 -0.0395 -0.1338
  947POPC   C3B13853  -0.014   0.815   7.081 -0.1270 -0.1504  0.2985
  947POPC   C4B13854  -0.267   0.796   7.457 -0.1207  0.2517  0.2272
  948POPC   NC313855   5.150   3.657   5.501  0.1349  0.0607  0.2208
  948POPC   PO413856   4.923   3.206   5.696  0.1458  0.0713  0.1925
  948POPC   GL113857   5.190   3.194   6.061  0.0040  0.0881  0.1405
  948POPC   GL213858   5.265   3.504   5.965  0.2144 -0.2792  0.0525
  948POPC   C1A13859   5.471   3.055   6.397  0.0261  0.0863 -0.2102
  948POPC   D2A13860   5.514   3.111   6.855  0.3744  0.0586 -0.1568
  948POPC   C3A13861   5.348   2.963   7.342 -0.1588 -0.1263 -0.2126
  948POPC   C4A13862   5.064   3.021   7.725  0.2029  0.0299  0.2500
  948POPC   C1B13863   5.209   3.559   6.355 -0.1799 -0.2169 -0.0883
  948POPC   C2B13864   5.411   3.645   6.758  0.3419  0.0165 -0.1880
  948POPC   C3B13865   5.669   4.007   6.856  0.3165 -0.0116  0.2359
  948POPC   C4B13866   5.684   4.459   6.877 -0.1149 -0.3451  0.0062
  949POPC   NC313867  17.880  11.513   5.869  0.4149 -0.0842 -0.0774
  949POPC   PO413868  17.661  11.190   5.971 -0.0851 -0.0878  0.0028
  949POPC   GL113869  17.583  11.113   6.426  0.0296  0.0353  0.1627
  949POPC   GL213870  17.703  10.909   6.569 -0.2996 -0.1498  0.0213
  949POPC   C1A13871  17.404  11.311   6.766  0.2084 -0.1347  0.1696
  949POPC   D2A13872  17.446  11.401   7.297 -0.1123  0.1342  0.4347
  949POPC   C3A13873  17.807  11.594   7.517 -0.2700  0.0874  0.1866
  949POPC   C4A13874  18.004  11.693   7.934  0.2227  0.2121 -0.0697
  949POPC   C1B13875  17.716  10.892   7.025 -0.0577 -0.3332  0.3969
  949POPC   C2B13876  17.852  11.106   7.234  0.1071  0.1211 -0.0878
  949POPC   C3B13877  17.942  11.044   7.667 -0.0692 -0.1501  0.0408
  949POPC   C4B13878  17.966  11.076   8.082  0.1664 -0.0882 -0.2661
  950POPC   NC313879  13.870   1.605   4.964 -0.2816  0.1825  0.2302
  950POPC   PO413880  13.804   1.641   5.493 -0.0833 -0.0833  0.2583
  950POPC   GL113881  13.891   1.518   5.856  0.1997 -0.0880  0.1382
  950POPC   GL213882  14.183   1.345   5.966 -0.0569 -0.1738 -0.1502
  950POPC   C1A13883  13.707   1.797   6.211 -0.1321  0.1062 -0.0487
  950POPC   D2A13884  13.750   2.146   6.470 -0.3052 -0.2358 -0.1547
  950POPC   C3A13885  13.447   2.399   6.697 -0.1297  0.1478  0.1176
  950POPC   C4A13886  13.196   2.760   6.744  0.0976  0.1324  0.3000
  950POPC   C1B13887  14.011   0.950   6.241  0.0197  0.4765 -0.1323
  950POPC   C2B13888  14.004   0.743   6.735 -0.1333 -0.2298 -0.2855
  950POPC   C3B13889  13.960   0.551   7.185  0.2668 -0.0808 -0.1245
  950POPC   C4B13890  14.271   0.612   7.580 -0.2271 -0.3218  0.0145
  951POPC   NC313891  11.195   8.411   5.979  0.1059  0.1053  0.0155
  951POPC   PO413892  11.587   8.299   5.688 -0.2315  0.0187 -0.3311
  951POPC   GL113893  11.513   8.043   6.137  0.1731 -0.1059  0.1638
  951POPC   GL213894  11.750   7.820   6.016  0.3297  0.0938 -0.3316
  951POPC   C1A13895  11.544   8.186   6.592 -0.1090  0.2000  0.1359
  951POPC   D2A13896  11.543   8.354   7.041 -0.3103 -0.0068 -0.2925
  951POPC   C3A13897  11.773   8.302   7.387 -0.1233  0.0288 -0.1914
  951POPC   C4A13898  11.786   8.330   7.760  0.3597 -0.0725  0.1476
  951POPC   C1B13899  11.645   7.586   6.468  0.1461  0.1068  0.1676
  951POPC   C2B13900  11.764   7.742   6.849 -0.1708  0.0123  0.2901
  951POPC   C3B13901  11.581   7.744   7.127  0.0430  0.1938 -0.0488
  951POPC   C4B13902  11.561   7.843   7.505  0.0170 -0.0676  0.2159
  952POPC   NC313903   5.929   1.288   5.345 -0.1080  0.4312  0.3595
  952POPC   PO413904   6.262   1.607   5.528 -0.3083 -0.2477  0.0121
  952POPC   GL113905   6.198   1.796   5.962 -0.3863  0.1982 -0.1044
  952POPC   GL213906   6.542   1.851   6.228  0.0545 -0.2079  0.0779
  952POPC   C1A13907   6.182   1.500   6.250 -0.1953  0.0292  0.2312
  952POPC   D2A13908   6.093   1.376   6.559 -0.3162  0.0143  0.0580
  952POPC   C3A13909   6.396   1.262   6.856  0.2966 -0.0728 -0.3333
  952POPC   C4A13910   6.576   1.185   7.258 -0.0529 -0.1786 -0.2324
  952POPC   C1B13911   6.371   1.824   6.645 -0.1192 -0.0539  0.0624
  952POPC   C2B13912   6.433   1.763   7.047  0.0946  0.1140 -0.0853
  952POPC   C3B13913   6.445   1.673   7.468  0.0955  0.0901 -0.3068
  952POPC   C4B13914   6.381   1.641   7.866 -0.0670 -0.0288 -0.0660
  953POPC   NC313915   5.216   9.536   5.356 -0.2124  0.1384 -0.2359
  953POPC   PO413916   5.130   9.104   5.548 -0.0208 -0.0831 -0.0766
  953POPC   GL113917   5.398   9.163   5.907  0.0713  0.2923 -0.0867
  953POPC   GL213918   5.404   8.977   6.129  0.1079  0.2081  0.2068
  953POPC   C1A13919   5.728   9.331   6.179  0.0912  0.2243 -0.0793
  953POPC   D2A13920   6.023   9.356   6.480 -0.2804  0.0199  0.1688
  953POPC   C3A13921   5.897   9.304   6.980  0.1491  0.1084  0.0413
  953POPC   C4A13922   6.118   9.211   7.393 -0.0584 -0.0468 -0.2223
  953POPC   C1B13923   5.576   8.979   6.534  0.1876  0.0408  0.0318
  953POPC   C2B13924   5.407   9.055   6.924 -0.2061 -0.0275 -0.2690
  953POPC   C3B13925   5.309   8.886   7.219  0.4128 -0.0649  0.0174
  953POPC   C4B13926   5.165   8.632   7.552  0.1601 -0.3138 -0.0217
  954POPC   NC313927  17.247   8.638   5.520 -0.0765  0.0410  0.2363
  954POPC   PO413928  17.259   8.926   5.853 -0.0958  0.2038 -0.1687
  954POPC   GL113929  17.325   9.050   6.282 -0.2380  0.4121  0.1200
  954POPC   GL213930  17.611   9.141   6.471  0.1208  0.0510  0.3342
  954POPC   C1A13931  17.210   8.887   6.754  0.2802  0.0734  0.2916
  954POPC   D2A13932  16.920   8.806   7.202  0.1649 -0.1673  0.1845
  954POPC   C3A13933  16.646   8.449   7.084  0.1522  0.1622 -0.2460
  954POPC   C4A13934  16.629   8.006   6.908  0.1508  0.1560  0.1612
  954POPC   C1B13935  17.502   9.437   6.752  0.0320  0.1860 -0.1741
  954POPC   C2B13936  17.437   9.493   7.189 -0.0265  0.0060  0.1004
  954POPC   C3B13937  17.295   9.463   7.530 -0.1993 -0.0189  0.1327
  954POPC   C4B13938  17.416   9.476   7.991  0.0177  0.0895 -0.3884
  955POPC   NC313939   8.291   3.851   5.775  0.1687 -0.0675 -0.0070
  955POPC   PO413940   8.459   4.304   5.814  0.1890 -0.2213 -0.1218
  955POPC   GL113941   8.415   4.393   6.276 -0.2571 -0.4447  0.1841
  955POPC   GL213942   8.692   4.421   6.442 -0.3697 -0.2127 -0.0164
  955POPC   C1A13943   8.254   4.740   6.652 -0.3493 -0.0868 -0.3193
  955POPC   D2A13944   8.042   4.576   7.084  0.3141 -0.0005 -0.0621
  955POPC   C3A13945   8.190   4.184   7.210 -0.4214  0.1766  0.4122
  955POPC   C4A13946   8.132   3.861   7.541 -0.2758  0.3526  0.1793
  955POPC   C1B13947   8.825   4.642   6.738  0.1046 -0.0713  0.0388
  955POPC   C2B13948   8.917   4.572   7.160 -0.0152  0.1437 -0.1359
  955POPC   C3B13949   8.878   4.547   7.644 -0.2515  0.0239  0.0894
  955POPC   C4B13950   8.688   4.624   8.017 -0.0473  0.3976 -0.0058
  956POPC   NC313951   2.283   8.304   5.693 -0.3002 -0.1205 -0.5922
  956POPC   PO413952   2.316   8.060   6.043 -0.4261  0.1029  0.0738
  956POPC   GL113953   2.165   7.767   6.365 -0.2254  0.0962  0.1340
  956POPC   GL213954   1.891   7.552   6.329 -0.1018  0.0432 -0.3749
  956POPC   C1A13955   2.279   7.566   6.731  0.0908 -0.3939  0.0824
  956POPC   D2A13956   2.475   7.497   7.090  0.0843  0.1108 -0.1239
  956POPC   C3A13957   2.274   7.596   7.380  0.2911 -0.1135 -0.0814
  956POPC   C4A13958   2.120   7.575   7.766  0.1320 -0.3737  0.3069
  956POPC   C1B13959   1.832   7.758   6.695  0.0212 -0.0227  0.1292
  956POPC   C2B13960   1.909   7.487   7.046 -0.2496 -0.2274  0.0734
  956POPC   C3B13961   1.687   7.445   7.335 -0.1395 -0.0442  0.1083
  956POPC   C4B13962   1.641   7.344   7.772 -0.0503  0.1872 -0.1015
  957POPC   NC313963   0.244  13.130   6.236  0.3155 -0.0035 -0.1916
  957POPC   PO413964   0.043  13.505   6.082  0.1527 -0.0307  0.2252
  957POPC   GL113965   0.045  13.538   6.514 -0.0046 -0.1306 -0.0142
  957POPC   GL213966  -0.265  13.537   6.762 -0.1536 -0.1354  0.1930
  957POPC   C1A13967   0.226  13.676   6.930  0.0441  0.0972  0.0149
  957POPC   D2A13968   0.527  13.881   7.290 -0.2566  0.3111 -0.0945
  957POPC   C3A13969   0.557  13.767   7.569 -0.0972 -0.0886  0.1514
  957POPC   C4A13970   0.245  13.794   7.896 -0.0824  0.1755  0.0387
  957POPC   C1B13971  -0.223  13.439   7.142 -0.1322  0.3248  0.0732
  957POPC   C2B13972  -0.368  13.418   7.482 -0.3882 -0.3420 -0.2183
  957POPC   C3B13973  -0.119  13.425   7.853  0.2852  0.1236 -0.0465
  957POPC   C4B13974   0.174  13.478   8.285  0.3232  0.1294 -0.2705
  958POPC   NC313975  16.569  17.824   5.421  0.0253 -0.3321  0.0084
  958POPC   PO413976  16.773  18.062   5.746  0.0075  0.1495  0.2434
  958POPC   GL113977  16.791  18.090   6.107  0.0071 -0.1717  0.1413
  958POPC   GL213978  16.566  17.992   6.360  0.0250  0.3405  0.0720
  958POPC   C1A13979  17.001  18.403   6.383 -0.2164  0.1226  0.1950
  958POPC   D2A13980  17.323  18.712   6.292 -0.0368 -0.0131 -0.0697
  958POPC   C3A13981  17.470  18.782   6.746  0.1817  0.3688 -0.1903
  958POPC   C4A13982  17.668  18.547   7.086 -0.1337  0.0601  0.4521
  958POPC   C1B13983  16.784  17.688   6.389 -0.0709  0.2251  0.1083
  958POPC   C2B13984  16.720  17.755   6.775 -0.0241  0.1698  0.4542
  958POPC   C3B13985  16.288  17.845   6.873 -0.2499  0.0660  0.0322
  958POPC   C4B13986  16.116  18.191   6.620 -0.2181  0.0672 -0.1420
  959POPC   NC313987   4.955   7.883   5.675 -0.0153 -0.1196  0.1107
  959POPC   PO413988   5.010   7.747   6.030 -0.0078  0.1270 -0.4470
  959POPC   GL113989   4.924   7.404   6.332  0.1117 -0.0659 -0.2212
  959POPC   GL213990   4.590   7.455   6.516  0.0816 -0.0783  0.0454
  959POPC   C1A13991   5.216   7.445   6.759 -0.0339  0.2577 -0.1539
  959POPC   D2A13992   5.314   7.537   7.211  0.0205  0.0440 -0.5004
  959POPC   C3A13993   5.431   7.244   7.608 -0.1797  0.2204  0.2604
  959POPC   C4A13994   5.532   7.284   8.077 -0.0949 -0.1373  0.3893
  959POPC   C1B13995   4.812   7.755   6.782 -0.2589  0.1145  0.2667
  959POPC   C2B13996   4.873   7.759   7.220  0.1231  0.0969 -0.0162
  959POPC   C3B13997   4.881   7.554   7.574 -0.0919  0.1137 -0.0584
  959POPC   C4B13998   5.094   7.484   8.002 -0.1165  0.1374  0.2125
  960POPC   NC313999   2.620   2.413   5.693  0.1192 -0.3103 -0.0023
  960POPC   PO414000   3.024   2.630   5.787  0.0409  0.1668  0.0727
  960POPC   GL114001   2.953   2.540   6.169  0.0109 -0.2246 -0.0709
  960POPC   GL214002   2.607   2.335   6.220  0.1496 -0.0748  0.0712
  960POPC   C1A14003   2.996   2.456   6.618  0.1013 -0.0072 -0.0141
  960POPC   D2A14004   3.002   2.302   6.996  0.0125 -0.0786  0.1493
  960POPC   C3A14005   2.757   2.319   7.246  0.1604 -0.0007 -0.0118
  960POPC   C4A14006   2.327   2.153   7.362  0.2016  0.1078 -0.0228
  960POPC   C1B14007   2.465   2.164   6.596 -0.0374 -0.2754  0.1531
  960POPC   C2B14008   2.563   1.950   6.982 -0.2043 -0.2323 -0.1104
  960POPC   C3B14009   2.456   1.674   7.335  0.2250 -0.2974 -0.1169
  960POPC   C4B14010   2.301   1.566   7.651  0.3638  0.2105  0.1990
  961POPC   NC314011   0.517   2.450   5.793  0.0567 -0.1248  0.0049
  961POPC   PO414012   0.754   2.308   6.014  0.4233  0.1458  0.2472
  961POPC   GL114013   0.517   2.464   6.370  0.0318 -0.2629 -0.0969
  961POPC   GL214014   0.595   2.675   6.541  0.0758 -0.0886  0.1452
  961POPC   C1A14015   0.213   2.333   6.688 -0.1299 -0.1571  0.0439
  961POPC   D2A14016   0.269   2.392   7.117  0.0036  0.0884 -0.2187
  961POPC   C3A14017   0.386   2.072   7.414  0.0946  0.1727  0.1434
  961POPC   C4A14018   0.242   1.964   7.714 -0.2768  0.2305 -0.0198
  961POPC   C1B14019   0.590   2.666   6.877 -0.0859 -0.0111 -0.2577
  961POPC   C2B14020   0.670   2.851   7.281 -0.3617 -0.3137  0.2678
  961POPC   C3B14021   0.357   3.077   7.549  0.0102  0.2814 -0.1567
  961POPC   C4B14022  -0.039   3.139   7.770  0.0500  0.2438  0.1951
  962POPC   NC314023  10.518  12.453   5.595 -0.3567 -0.1168 -0.2363
  962POPC   PO414024  10.311  12.825   5.805  0.0382  0.2473  0.1743
  962POPC   GL114025  10.455  12.948   6.295  0.1080 -0.0119  0.2390
  962POPC   GL214026  10.642  13.103   6.317 -0.0488 -0.0100  0.1135
  962POPC   C1A14027  10.306  12.825   6.807  0.5114 -0.0495 -0.0390
  962POPC   D2A14028   9.878  12.866   7.006 -0.3235 -0.0082 -0.1335
  962POPC   C3A14029   9.590  12.754   7.341 -0.1610  0.4646  0.0493
  962POPC   C4A14030   9.556  12.386   7.554 -0.0916  0.0394  0.1890
  962POPC   C1B14031  10.719  13.122   6.661  0.0889 -0.1596  0.0958
  962POPC   C2B14032  10.710  13.047   7.005  0.0763  0.2345  0.1830
  962POPC   C3B14033  10.533  13.038   7.500  0.2743  0.1063  0.0826
  962POPC   C4B14034  10.575  12.929   7.919  0.0619  0.1229 -0.1423
  963YOPC   NC314035  15.847  10.494   5.507  0.0383 -0.2020  0.1242
  963YOPC   PO414036  16.002  10.594   5.867  0.0895 -0.2466 -0.0105
  963YOPC   GL114037  15.827  10.679   6.283 -0.1298 -0.1511  0.0160
  963YOPC   GL214038  15.732  10.998   6.373  0.1908  0.0077 -0.5850
  963YOPC   C1A14039  16.067  10.704   6.736  0.0090 -0.0822 -0.1463
  963YOPC   D2A14040  16.216  10.657   7.154 -0.0751  0.0386 -0.1286
  963YOPC   C3A14041  16.246  10.965   7.427  0.0803 -0.4137 -0.0116
  963YOPC   C4A14042  16.111  11.067   7.841 -0.2885 -0.2741  0.1539
  963YOPC   C1B14043  15.452  11.050   6.673 -0.3227  0.1233  0.0534
  963YOPC   C2B14044  15.158  11.069   6.979  0.0536 -0.2785  0.3420
  963YOPC   D3B14045  15.307  10.884   7.244  0.0143 -0.1512  0.0933
  963YOPC   C4B14046  15.688  10.875   7.067  0.0944 -0.2346 -0.1954
  964YOPC   NC314047   4.739   1.149   5.612 -0.3673 -0.1912  0.1283
  964YOPC   PO414048   4.951   1.493   5.561 -0.3036 -0.1138 -0.1867
  964YOPC   GL114049   4.774   1.579   6.003 -0.0588 -0.1565 -0.1039
  964YOPC   GL214050   4.844   1.930   6.126  0.0442  0.2447 -0.1087
  964YOPC   C1A14051   4.952   1.450   6.472 -0.0147 -0.0792  0.3378
  964YOPC   D2A14052   5.113   1.634   6.847  0.0222  0.3217  0.3341
  964YOPC   C3A14053   4.960   1.297   7.120 -0.2272 -0.3612 -0.1924
  964YOPC   C4A14054   4.959   1.113   7.620  0.2948  0.0975 -0.2018
  964YOPC   C1B14055   4.734   1.948   6.506 -0.3266  0.0855  0.0715
  964YOPC   C2B14056   4.982   2.144   6.856 -0.1419 -0.2243  0.1192
  964YOPC   D3B14057   4.737   1.904   7.151  0.0365 -0.0102 -0.0608
  964YOPC   C4B14058   4.608   1.886   7.554 -0.2175 -0.1270  0.0696
  965YOPC   NC314059   7.139   8.674   5.912 -0.0100  0.2948  0.0541
  965YOPC   PO414060   7.470   8.288   5.969 -0.0879  0.3923  0.2133
  965YOPC   GL114061   7.309   8.442   6.333  0.1937 -0.3757 -0.1514
  965YOPC   GL214062   7.177   8.815   6.412  0.0097  0.0469 -0.0186
  965YOPC   C1A14063   7.260   8.350   6.786  0.3529  0.2278  0.2470
  965YOPC   D2A14064   7.250   8.116   7.090 -0.3191  0.1135 -0.1035
  965YOPC   C3A14065   7.514   7.940   7.180 -0.1078 -0.1192 -0.2098
  965YOPC   C4A14066   7.672   7.795   7.596 -0.0950 -0.3237 -0.0456
  965YOPC   C1B14067   7.066   8.911   6.779 -0.4678  0.2143 -0.0797
  965YOPC   C2B14068   7.211   8.706   7.180 -0.3945 -0.0776 -0.0443
  965YOPC   D3B14069   7.621   8.736   7.362  0.1689 -0.0832  0.1097
  965YOPC   C4B14070   8.072   8.720   7.249 -0.3909  0.1154 -0.0029
  966YOPC   NC314071  10.582   7.581   5.832 -0.3545  0.1074 -0.0416
  966YOPC   PO414072  10.770   7.895   5.748 -0.0955  0.1472 -0.3464
  966YOPC   GL114073  10.924   8.035   6.058 -0.0076 -0.0888  0.0869
  966YOPC   GL214074  10.709   7.765   6.253 -0.0228 -0.2001  0.0264
  966YOPC   C1A14075  11.127   7.924   6.420  0.2036  0.2572 -0.1818
  966YOPC   D2A14076  11.187   7.895   6.869  0.1317 -0.0083  0.2343
  966YOPC   C3A14077  10.714   7.927   7.065  0.0201 -0.0582 -0.0893
  966YOPC   C4A14078  10.437   7.801   7.500  0.1040 -0.2200 -0.1232
  966YOPC   C1B14079  10.413   7.371   6.426 -0.1772 -0.1883 -0.3046
  966YOPC   C2B14080  10.505   6.936   6.206  0.0900  0.2322 -0.1024
  966YOPC   D3B14081  10.301   6.512   6.148  0.2960 -0.0316 -0.0734
  966YOPC   C4B14082  10.144   6.096   6.302  0.1276 -0.0456  0.0211
  967YOPC   NC314083  18.529   9.482   5.975  0.1171 -0.1395  0.1733
  967YOPC   PO414084  18.973   9.505   5.901 -0.1898  0.1480  0.2760
  967YOPC   GL114085  18.992   9.555   6.322 -0.3136  0.0312  0.1756
  967YOPC   GL214086  18.971   9.844   6.460 -0.0232 -0.1100 -0.3003
  967YOPC   C1A14087  19.087   9.372   6.748  0.0453  0.1862 -0.1206
  967YOPC   D2A14088  18.953   9.400   7.178  0.3088  0.1776 -0.1890
  967YOPC   C3A14089  18.844   9.510   7.588 -0.1094 -0.2382 -0.0320
  967YOPC   C4A14090  19.019   9.373   8.129  0.3278  0.2074  0.1629
  967YOPC   C1B14091  18.809   9.785   6.866 -0.2136 -0.0983  0.2245
  967YOPC   C2B14092  18.511   9.760   7.155 -0.0013 -0.1111  0.0545
  967YOPC   D3B14093  18.441   9.867   7.608  0.0378 -0.1689  0.2455
  967YOPC   C4B14094  18.104   9.735   7.758 -0.0236  0.0885 -0.0455
  968YOPC   NC314095   5.999  15.586   5.616 -0.1399 -0.0821 -0.1492
  968YOPC   PO414096   6.086  15.934   5.658  0.2580 -0.0427  0.0295
  968YOPC   GL114097   6.379  15.806   5.898 -0.3299  0.1209 -0.2779
  968YOPC   GL214098   6.424  15.993   6.302  0.4261  0.1243 -0.1475
  968YOPC   C1A14099   6.585  15.480   6.173  0.0982 -0.3282 -0.0074
  968YOPC   D2A14100   6.907  15.626   6.510  0.0535  0.1011  0.0689
  968YOPC   C3A14101   6.704  15.545   6.789  0.1362  0.1819 -0.1545
  968YOPC   C4A14102   6.636  15.554   7.296  0.1569  0.0233 -0.0493
  968YOPC   C1B14103   6.463  16.468   6.310 -0.0781  0.2421 -0.0201
  968YOPC   C2B14104   6.607  16.794   6.561  0.0348  0.0555  0.1630
  968YOPC   D3B14105   6.670  16.732   7.013 -0.1447  0.1948 -0.0462
  968YOPC   C4B14106   6.678  16.614   7.392  0.2423  0.1134  0.1868
  969YOPC   NC314107  11.544   9.843   5.712 -0.0646  0.0746  0.0315
  969YOPC   PO414108  11.120   9.868   5.892 -0.1816 -0.0247  0.3166
  969YOPC   GL114109  10.830   9.889   6.157 -0.0310  0.0601  0.3757
  969YOPC   GL214110  10.626   9.562   6.216  0.0475 -0.2718  0.2376
  969YOPC   C1A14111  10.818   9.740   6.669  0.4838  0.0237  0.1274
  969YOPC   D2A14112  11.118   9.561   6.828  0.2077  0.0916  0.0544
  969YOPC   C3A14113  11.304   9.766   7.279 -0.0857 -0.1159 -0.3278
  969YOPC   C4A14114  11.614   9.717   7.587  0.3390  0.0317 -0.2404
  969YOPC   C1B14115  10.462   9.434   6.646 -0.0281 -0.0258  0.0405
  969YOPC   C2B14116  10.585   9.526   7.099 -0.0195  0.0873  0.0986
  969YOPC   D3B14117  10.829   9.468   7.277  0.1797  0.0106  0.1505
  969YOPC   C4B14118  11.133   9.478   7.669 -0.0703 -0.1185 -0.2020
  970YOPC   NC314119  15.826   9.498   5.643 -0.3265  0.1454  0.0456
  970YOPC   PO414120  16.016   9.557   5.966 -0.1521  0.1784 -0.0696
  970YOPC   GL114121  16.059   9.544   6.445 -0.0801  0.1648  0.0596
  970YOPC   GL214122  16.078   9.800   6.496  0.0377 -0.1239 -0.0595
  970YOPC   C1A14123  16.031   9.219   6.713  0.2082  0.3105 -0.1920
  970YOPC   D2A14124  15.990   9.145   7.192 -0.0029 -0.1382  0.0537
  970YOPC   C3A14125  15.696   8.810   7.394 -0.1300 -0.1823 -0.1128
  970YOPC   C4A14126  15.387   8.560   7.121 -0.1413 -0.0517  0.0442
  970YOPC   C1B14127  15.742   9.690   6.813 -0.1661 -0.1686 -0.2938
  970YOPC   C2B14128  15.786   9.578   7.293  0.1158 -0.2165  0.3059
  970YOPC   D3B14129  15.771   9.274   7.633 -0.2725 -0.1113 -0.0033
  970YOPC   C4B14130  15.900   9.114   8.083  0.0848  0.0482 -0.2163
  971YOPC   NC314131   2.116  13.076   5.730  0.2647 -0.1392  0.1195
  971YOPC   PO414132   1.661  12.971   5.662  0.0407 -0.0590 -0.2779
  971YOPC   GL114133   1.844  12.811   6.087 -0.0034  0.2009 -0.1924
  971YOPC   GL214134   1.531  12.986   6.219  0.0499  0.1111  0.1069
  971YOPC   C1A14135   2.062  12.898   6.440  0.0827  0.0872 -0.1446
  971YOPC   D2A14136   2.327  12.777   6.667 -0.0731 -0.0791 -0.2304
  971YOPC   C3A14137   2.195  12.725   7.067  0.3520  0.1510 -0.0867
  971YOPC   C4A14138   2.308  12.656   7.409  0.0428 -0.1372 -0.2049
  971YOPC   C1B14139   1.628  12.990   6.709  0.3535  0.0037  0.1334
  971YOPC   C2B14140   1.704  13.198   7.031  0.1106 -0.1278  0.2474
  971YOPC   D3B14141   1.941  13.547   7.207  0.3244  0.1800 -0.1564
  971YOPC   C4B14142   2.418  13.666   7.223 -0.0208  0.4326  0.0783
  972YOPC   NC314143   8.860   7.791   5.740  0.1611  0.1066 -0.2842
  972YOPC   PO414144   8.453   8.065   5.878 -0.0466  0.1309 -0.1250
  972YOPC   GL114145   8.285   8.283   6.245 -0.0594 -0.2788  0.1322
  972YOPC   GL214146   8.528   8.332   6.415 -0.0840  0.1164 -0.3495
  972YOPC   C1A14147   8.158   8.683   6.574  0.2663 -0.0235 -0.4614
  972YOPC   D2A14148   8.032   9.087   6.837  0.0736 -0.1834 -0.0571
  972YOPC   C3A14149   7.967   9.193   7.237  0.0630  0.1191  0.2332
  972YOPC   C4A14150   7.779   9.335   7.654 -0.3557 -0.0602 -0.1097
  972YOPC   C1B14151   8.818   8.280   6.737 -0.4509  0.1066 -0.2240
  972YOPC   C2B14152   9.067   8.403   7.048  0.0004 -0.1682 -0.0846
  972YOPC   D3B14153   9.002   8.236   7.472 -0.0828 -0.1171  0.0255
  972YOPC   C4B14154   9.021   8.097   7.901 -0.0402  0.0888 -0.2030
  973YOPC   NC314155   2.671   0.158   5.681 -0.0922 -0.0543  0.1963
  973YOPC   PO414156   2.710  -0.234   5.763 -0.3029  0.2241 -0.3544
  973YOPC   GL114157   2.607  -0.413   6.133 -0.2333 -0.1922 -0.0898
  973YOPC   GL214158   2.430  -0.276   6.356  0.1784  0.1572 -0.2832
  973YOPC   C1A14159   2.861  -0.573   6.409  0.2239 -0.1854 -0.0570
  973YOPC   D2A14160   2.923  -1.019   6.656  0.1067  0.4584  0.0846
  973YOPC   C3A14161   2.912  -0.981   7.111  0.1499 -0.1083 -0.1134
  973YOPC   C4A14162   2.762  -1.075   7.512  0.0432  0.1732  0.1104
  973YOPC   C1B14163   2.264  -0.252   6.784 -0.0262 -0.2527  0.1842
  973YOPC   C2B14164   2.032  -0.363   7.123  0.0428 -0.3630  0.3243
  973YOPC   D3B14165   1.782  -0.686   7.334 -0.3288 -0.1500  0.0832
  973YOPC   C4B14166   1.759  -1.086   7.284  0.4138 -0.1036  0.3650
  974YOPC   NC314167   0.888   4.238   5.976  0.0603  0.1328 -0.2417
  974YOPC   PO414168   1.313   4.109   5.987  0.0247  0.0968 -0.0075
  974YOPC   GL114169   1.374   4.038   6.330  0.1990 -0.1279 -0.2237
  974YOPC   GL214170   1.571   4.324   6.547  0.0284  0.1364 -0.0687
  974YOPC   C1A14171   1.107   4.222   6.667  0.0801  0.0460  0.1362
  974YOPC   D2A14172   1.080   4.117   7.083 -0.2762 -0.1942  0.0813
  974YOPC   C3A14173   1.203   4.448   7.433  0.0215 -0.0577 -0.1900
  974YOPC   C4A14174   1.595   4.517   7.598  0.0765 -0.2347  0.3047
  974YOPC   C1B14175   1.419   4.695   6.661 -0.0915 -0.1745  0.1352
  974YOPC   C2B14176   1.434   5.148   6.734  0.0684 -0.0513 -0.1125
  974YOPC   D3B14177   1.213   5.399   6.559  0.2587 -0.1603  0.0442
  974YOPC   C4B14178   1.062   5.685   6.488  0.1171  0.0353 -0.0660
  975YOPC   NC314179   6.118   2.306   5.214 -0.0156  0.2784  0.3643
  975YOPC   PO414180   6.207   2.543   5.557  0.0673  0.1280 -0.1467
  975YOPC   GL114181   6.389   2.586   6.009 -0.0804 -0.3265 -0.0982
  975YOPC   GL214182   6.197   2.294   6.133  0.1686 -0.0192 -0.1074
  975YOPC   C1A14183   6.393   2.790   6.485  0.2527  0.2566  0.0004
  975YOPC   D2A14184   6.185   2.781   6.824  0.3385 -0.2574 -0.1763
  975YOPC   C3A14185   6.143   3.244   7.090  0.0062  0.0239  0.2255
  975YOPC   C4A14186   5.857   3.578   7.131  0.4678 -0.0576  0.1462
  975YOPC   C1B14187   6.157   2.329   6.519  0.1219 -0.0110  0.0147
  975YOPC   C2B14188   5.991   2.142   6.913 -0.0560 -0.1037 -0.4133
  975YOPC   D3B14189   5.880   1.746   6.985  0.1116  0.0846  0.2145
  975YOPC   C4B14190   6.105   1.477   7.210 -0.1553  0.2849  0.1905
  976YOPC   NC314191   2.682  12.567   5.779  0.1144  0.0721  0.2190
  976YOPC   PO414192   2.587  12.205   6.069 -0.0067 -0.2493 -0.3042
  976YOPC   GL114193   2.551  12.444   6.401 -0.2344  0.1057 -0.4225
  976YOPC   GL214194   2.811  12.269   6.501  0.1471 -0.0051 -0.0278
  976YOPC   C1A14195   2.519  12.409   6.869  0.0684 -0.0032 -0.0496
  976YOPC   D2A14196   2.383  12.214   7.215 -0.0890  0.1901  0.1818
  976YOPC   C3A14197   2.408  11.676   7.379  0.0342  0.2586  0.1378
  976YOPC   C4A14198   2.664  11.391   7.390 -0.2245  0.3516 -0.0910
  976YOPC   C1B14199   3.076  12.392   6.818 -0.0120 -0.1369  0.3373
  976YOPC   C2B14200   3.257  12.406   7.278 -0.0840 -0.0499 -0.3525
  976YOPC   D3B14201   3.713  12.440   7.357 -0.2774  0.0377  0.0008
  976YOPC   C4B14202   4.137  12.268   7.112 -0.0680 -0.0411  0.2978
  977YOPC   NC314203   1.428  10.218   5.894 -0.0360 -0.3757 -0.1548
  977YOPC   PO414204   1.017  10.201   5.901 -0.2718  0.0374 -0.1762
  977YOPC   GL114205   0.966   9.967   6.347 -0.1916  0.1356 -0.0854
  977YOPC   GL214206   1.196   9.908   6.585 -0.1553  0.0568 -0.2464
  977YOPC   C1A14207   0.835   9.899   6.880  0.1452 -0.0947  0.0379
  977YOPC   D2A14208   0.993  10.089   7.285  0.2266 -0.1876  0.0254
  977YOPC   C3A14209   0.910  10.089   7.714 -0.0368 -0.1699 -0.2578
  977YOPC   C4A14210   1.069   9.998   8.105  0.2420  0.2432 -0.2019
  977YOPC   C1B14211   0.992  10.404   6.484 -0.1453 -0.2093 -0.0725
  977YOPC   C2B14212   0.768  10.730   6.735 -0.3065 -0.1750 -0.0910
  977YOPC   D3B14213   0.367  10.749   6.844 -0.2829  0.0423  0.0386
  977YOPC   C4B14214   0.247  10.866   7.128 -0.2193 -0.0470  0.2614
  978YOPC   NC314215  13.457   6.279   5.684 -0.1327 -0.1809  0.1050
  978YOPC   PO414216  13.519   5.884   5.865  0.1234  0.0377 -0.0645
  978YOPC   GL114217  13.525   5.800   6.251 -0.1199 -0.4618  0.0087
  978YOPC   GL214218  13.700   5.558   6.422 -0.2302  0.0992  0.3334
  978YOPC   C1A14219  13.712   6.011   6.610 -0.0613  0.3464 -0.1022
  978YOPC   D2A14220  13.647   6.100   7.030  0.0224 -0.1652 -0.2988
  978YOPC   C3A14221  13.320   6.035   7.316  0.0789  0.0953  0.1525
  978YOPC   C4A14222  13.022   5.951   7.135  0.0459  0.0295  0.1217
  978YOPC   C1B14223  14.082   5.819   6.360 -0.0472 -0.1782 -0.0051
  978YOPC   C2B14224  14.385   6.114   6.332 -0.0864  0.1050 -0.0247
  978YOPC   D3B14225  14.828   6.023   6.397 -0.0746  0.4197 -0.1188
  978YOPC   C4B14226  14.959   5.667   6.687 -0.3008  0.1011 -0.2709
  979YOPC   NC314227   9.255   4.135   5.573  0.0919  0.0768 -0.1346
  979YOPC   PO414228   9.268   3.863   5.853 -0.3017  0.0369  0.0753
  979YOPC   GL114229   9.233   3.633   6.206  0.0956 -0.2417  0.0526
  979YOPC   GL214230   9.147   3.253   6.260 -0.3985  0.1602 -0.2952
  979YOPC   C1A14231   9.381   3.553   6.599  0.0770  0.0500 -0.0927
  979YOPC   D2A14232   9.504   3.537   6.993 -0.1094 -0.0071 -0.2821
  979YOPC   C3A14233   9.810   3.362   7.251 -0.0849  0.0217 -0.1904
  979YOPC   C4A14234  10.142   3.445   7.547 -0.1214 -0.0453 -0.0468
  979YOPC   C1B14235   8.859   3.527   6.513 -0.0571 -0.3147  0.2768
  979YOPC   C2B14236   8.697   3.665   6.927  0.2646 -0.0852 -0.1249
  979YOPC   D3B14237   8.224   3.595   7.092 -0.2360  0.0687  0.1345
  979YOPC   C4B14238   8.001   3.209   6.971  0.3144  0.1252 -0.0441
  980YOPC   NC314239   2.323  14.857   5.151 -0.0089  0.1637 -0.0041
  980YOPC   PO414240   1.982  14.889   5.573 -0.1822  0.1454  0.1141
  980YOPC   GL114241   1.995  14.935   5.943 -0.1791 -0.0617 -0.0582
  980YOPC   GL214242   1.997  14.609   6.183  0.1271 -0.1906  0.1285
  980YOPC   C1A14243   1.918  15.120   6.275 -0.0994 -0.1280  0.0374
  980YOPC   D2A14244   1.710  15.369   6.535 -0.0434 -0.1936 -0.2321
  980YOPC   C3A14245   1.944  15.592   6.924  0.3003  0.0793  0.2450
  980YOPC   C4A14246   1.911  15.782   7.299 -0.1020  0.1537  0.4657
  980YOPC   C1B14247   1.801  14.616   6.582 -0.1303  0.0319 -0.0789
  980YOPC   C2B14248   1.677  14.958   6.822 -0.4135 -0.1392 -0.3778
  980YOPC   D3B14249   1.984  15.047   7.126  0.0489  0.0928 -0.0809
  980YOPC   C4B14250   2.001  15.286   7.459 -0.0742 -0.1943  0.0119
  981YOPC   NC314251  11.747   6.193   5.822 -0.0669  0.0165 -0.1255
  981YOPC   PO414252  11.965   6.481   5.965 -0.3852  0.0876 -0.3625
  981YOPC   GL114253  11.909   6.304   6.349  0.0289  0.2972  0.1384
  981YOPC   GL214254  11.699   5.987   6.278 -0.2677 -0.0492 -0.2667
  981YOPC   C1A14255  11.735   6.367   6.669  0.1372  0.1301 -0.0407
  981YOPC   D2A14256  11.484   6.259   6.928  0.2807  0.0750 -0.0095
  981YOPC   C3A14257  11.520   6.260   7.353 -0.1329 -0.0406  0.4080
  981YOPC   C4A14258  11.484   6.074   7.683 -0.5304  0.0601 -0.0410
  981YOPC   C1B14259  11.871   5.763   6.710 -0.2656  0.1402 -0.1057
  981YOPC   C2B14260  12.126   5.608   6.971 -0.0833 -0.0096  0.2042
  981YOPC   D3B14261  12.517   5.617   7.214  0.3478 -0.0721 -0.0121
  981YOPC   C4B14262  12.859   5.365   7.099 -0.0270 -0.0257  0.2160
  982YOPC   NC314263   0.343   5.042   5.913 -0.2228 -0.0426  0.0068
  982YOPC   PO414264   0.181   5.381   5.967 -0.0296  0.0126  0.0791
  982YOPC   GL114265   0.380   5.323   6.298 -0.0655 -0.0252  0.0426
  982YOPC   GL214266   0.735   5.228   6.351  0.1502  0.1258 -0.3169
  982YOPC   C1A14267   0.555   5.599   6.605 -0.2404 -0.1286  0.2870
  982YOPC   D2A14268   0.473   5.996   6.725 -0.0591  0.0607  0.2877
  982YOPC   C3A14269   0.602   6.275   7.065 -0.1070  0.0611 -0.3216
  982YOPC   C4A14270   0.643   6.601   6.767  0.0732 -0.2254  0.1199
  982YOPC   C1B14271   0.588   5.068   6.699 -0.1170  0.1208 -0.2835
  982YOPC   C2B14272   0.395   4.865   7.044 -0.0926  0.0416  0.1962
  982YOPC   D3B14273   0.586   5.090   7.439  0.2529 -0.0801  0.0759
  982YOPC   C4B14274   0.976   5.265   7.671 -0.2652  0.0733 -0.1108
  983YOPC   NC314275   5.563  13.530   5.551  0.0602  0.1467 -0.1440
  983YOPC   PO414276   5.680  13.923   5.584 -0.1407 -0.0188  0.0656
  983YOPC   GL114277   5.539  13.817   5.944 -0.0229 -0.0463  0.0469
  983YOPC   GL214278   5.760  13.598   6.039 -0.0639 -0.1064 -0.2620
  983YOPC   C1A14279   5.260  13.955   6.302 -0.0882 -0.0147 -0.2102
  983YOPC   D2A14280   5.199  14.053   6.677 -0.0759  0.0434  0.1379
  983YOPC   C3A14281   5.577  13.960   7.054  0.0971 -0.0946  0.1589
  983YOPC   C4A14282   5.906  13.939   7.298  0.1660  0.0763 -0.5152
  983YOPC   C1B14283   5.742  13.800   6.462  0.3516  0.4082 -0.3038
  983YOPC   C2B14284   5.929  13.989   6.722  0.1307 -0.1257  0.1390
  983YOPC   D3B14285   6.287  13.986   6.926  0.1502  0.1262 -0.1257
  983YOPC   C4B14286   6.752  13.858   7.041 -0.2646 -0.2477 -0.0427
  984YOPC   NC314287  14.086   3.352   5.492 -0.1213  0.0445  0.0475
  984YOPC   PO414288  14.119   3.829   5.563  0.0182  0.0524  0.0294
  984YOPC   GL114289  13.966   3.635   5.975 -0.0311 -0.0930  0.3903
  984YOPC   GL214290  13.719   3.772   6.078  0.0347 -0.4185  0.1489
  984YOPC   C1A14291  13.932   3.311   6.264 -0.1181  0.3394 -0.1335
  984YOPC   D2A14292  14.011   3.274   6.564  0.0667  0.0890  0.1644
  984YOPC   C3A14293  14.151   3.067   6.909  0.3443  0.2930  0.0059
  984YOPC   C4A14294  13.916   3.012   7.201  0.1673 -0.1864  0.3308
  984YOPC   C1B14295  13.863   3.836   6.557 -0.1100  0.0963  0.2572
  984YOPC   C2B14296  13.848   4.068   6.802  0.0479  0.3912 -0.3443
  984YOPC   D3B14297  13.970   4.126   7.235  0.1087  0.3652  0.0248
  984YOPC   C4B14298  13.799   3.786   7.566 -0.1185  0.2127  0.1851
  985YOPC   NC314299  14.028   5.968   5.339  0.0973 -0.0147  0.0013
  985YOPC   PO414300  14.387   5.723   5.585  0.1311  0.0250  0.1041
  985YOPC   GL114301  14.404   5.563   6.024 -0.2943 -0.0700 -0.0841
  985YOPC   GL214302  14.178   5.348   5.938  0.1825 -0.1253 -0.0921
  985YOPC   C1A14303  14.483   5.614   6.516 -0.1358 -0.3216  0.2655
  985YOPC   D2A14304  14.551   5.542   6.954  0.2474  0.0201 -0.0595
  985YOPC   C3A14305  14.847   5.779   7.313  0.0215 -0.1760 -0.1092
  985YOPC   C4A14306  14.831   6.149   7.467  0.2083  0.0147 -0.0496
  985YOPC   C1B14307  14.113   5.273   6.291 -0.0785  0.3612 -0.2736
  985YOPC   C2B14308  14.070   5.365   6.768  0.0286 -0.2455  0.1331
  985YOPC   D3B14309  14.080   5.751   6.897 -0.4350  0.0460  0.2965
  985YOPC   C4B14310  14.255   5.892   7.211 -0.0666 -0.0132 -0.0856
  986YOPC   NC314311  17.532  16.953   5.730  0.3265  0.1414 -0.0988
  986YOPC   PO414312  17.904  16.869   5.930  0.0923  0.0256  0.1699
  986YOPC   GL114313  18.035  17.140   6.221 -0.0713  0.3349  0.0592
  986YOPC   GL214314  18.396  17.291   6.242 -0.2193  0.0402 -0.1069
  986YOPC   C1A14315  18.039  17.051   6.688  0.1097 -0.1684 -0.2657
  986YOPC   D2A14316  18.033  16.953   7.220  0.0114  0.1223 -0.1658
  986YOPC   C3A14317  18.274  17.125   7.562 -0.3123  0.0112  0.1192
  986YOPC   C4A14318  18.547  17.461   7.566 -0.4630  0.3375 -0.1939
  986YOPC   C1B14319  18.576  16.864   6.571 -0.0770  0.0265  0.2766
  986YOPC   C2B14320  18.339  16.711   6.920  0.0466 -0.2462 -0.1699
  986YOPC   D3B14321  18.366  16.620   7.413 -0.0473 -0.0281 -0.1537
  986YOPC   C4B14322  18.653  16.629   7.868 -0.2592 -0.0096  0.2561
  987YOPC   NC314323   0.156   2.641   5.119  0.0618  0.0770  0.2494
  987YOPC   PO414324   0.092   2.398   5.537 -0.0898 -0.2050 -0.2136
  987YOPC   GL114325  -0.041   2.187   5.900 -0.0977 -0.0360 -0.0122
  987YOPC   GL214326  -0.242   2.000   5.827 -0.2193 -0.0601 -0.0212
  987YOPC   C1A14327   0.109   2.071   6.232  0.0842  0.1609 -0.0005
  987YOPC   D2A14328   0.135   1.864   6.607 -0.0957  0.3174 -0.0216
  987YOPC   C3A14329   0.179   1.901   7.031 -0.0011  0.0331  0.1654
  987YOPC   C4A14330   0.073   1.673   7.368  0.1699  0.2207 -0.0046
  987YOPC   C1B14331  -0.560   2.095   6.054  0.0521  0.1401  0.1978
  987YOPC   C2B14332  -0.700   2.393   6.338  0.1846  0.0538  0.1212
  987YOPC   D3B14333  -0.827   2.341   6.629 -0.2337  0.0683  0.0735
  987YOPC   C4B14334  -0.770   2.250   6.998  0.3314  0.1427  0.0385
  988YOPC   NC314335   3.607  15.710   5.733 -0.1180 -0.2409 -0.0670
  988YOPC   PO414336   3.392  15.405   5.914  0.0717  0.0278 -0.1495
  988YOPC   GL114337   3.492  15.652   6.206 -0.1140 -0.1707 -0.0275
  988YOPC   GL214338   3.742  15.585   6.345 -0.0032  0.0520  0.2414
  988YOPC   C1A14339   3.618  16.063   6.430  0.1650  0.0539  0.1256
  988YOPC   D2A14340   3.556  16.099   6.892  0.0334  0.0509  0.2049
  988YOPC   C3A14341   3.700  15.901   7.283  0.1137  0.0131  0.2103
  988YOPC   C4A14342   3.737  16.013   7.663 -0.0143 -0.0219  0.3405
  988YOPC   C1B14343   3.625  15.591   6.736  0.0259 -0.0447 -0.2762
  988YOPC   C2B14344   3.528  15.421   7.223  0.1645 -0.0456 -0.1372
  988YOPC   D3B14345   3.084  15.501   7.341 -0.2236 -0.0847 -0.0497
  988YOPC   C4B14346   2.687  15.420   7.676 -0.0601  0.0422 -0.0866
  989YOPC   NC314347   3.744   9.864   5.798  0.1923  0.0300  0.0431
  989YOPC   PO414348   3.672  10.298   5.712 -0.2326 -0.3730  0.2187
  989YOPC   GL114349   3.727  10.314   6.130  0.0392  0.1620  0.2253
  989YOPC   GL214350   3.660  10.120   6.345  0.3255 -0.1488 -0.0022
  989YOPC   C1A14351   3.511  10.489   6.627  0.0424 -0.1503  0.0839
  989YOPC   D2A14352   3.184  10.708   6.872  0.2435 -0.2484  0.4115
  989YOPC   C3A14353   2.836  10.461   7.139 -0.0918 -0.4465  0.1777
  989YOPC   C4A14354   2.667  10.286   7.419 -0.1928  0.1616 -0.0890
  989YOPC   C1B14355   3.688  10.091   6.786  0.0367  0.1044  0.1321
  989YOPC   C2B14356   3.847  10.220   7.073 -0.0903  0.1357  0.4622
  989YOPC   D3B14357   3.779  10.657   7.029  0.1933 -0.1031 -0.0834
  989YOPC   C4B14358   3.506  11.019   7.076 -0.2183 -0.0562 -0.3408
  990YOPC   NC314359   5.896  16.833   5.891 -0.0868 -0.2637  0.2626
  990YOPC   PO414360   6.288  16.731   5.716  0.2857 -0.4011  0.1138
  990YOPC   GL114361   6.670  16.895   5.986  0.0129 -0.0427 -0.1535
  990YOPC   GL214362   6.700  17.202   6.267  0.0573 -0.1916 -0.1845
  990YOPC   C1A14363   6.986  16.644   6.126 -0.1109 -0.1373  0.0072
  990YOPC   D2A14364   6.905  16.315   6.502  0.0789  0.0791 -0.1134
  990YOPC   C3A14365   6.548  16.277   6.773 -0.1915 -0.0934  0.1386
  990YOPC   C4A14366   6.389  16.190   7.177 -0.1261  0.0102 -0.0012
  990YOPC   C1B14367   6.922  17.198   6.645 -0.0202 -0.0023  0.0979
  990YOPC   C2B14368   6.817  17.286   7.144 -0.2137 -0.0513 -0.1974
  990YOPC   D3B14369   6.959  17.002   7.465  0.0598  0.1121 -0.0758
  990YOPC   C4B14370   6.846  16.724   7.861 -0.1855 -0.0052  0.4254
  991YOPC   NC314371  17.513  17.965   5.634  0.0856 -0.1149  0.1164
  991YOPC   PO414372  17.608  17.586   5.611  0.0202  0.1711  0.0732
  991YOPC   GL114373  17.766  17.625   5.967 -0.0082  0.1699 -0.0348
  991YOPC   GL214374  17.552  17.261   6.063 -0.2635  0.1183  0.1259
  991YOPC   C1A14375  17.600  17.607   6.464 -0.0045 -0.3234  0.2112
  991YOPC   D2A14376  17.653  17.391   6.887 -0.1749  0.0170 -0.1124
  991YOPC   C3A14377  17.709  17.399   7.216  0.1973 -0.3784  0.0742
  991YOPC   C4A14378  17.468  17.459   7.531  0.0961  0.0368  0.3226
  991YOPC   C1B14379  17.529  17.093   6.473 -0.0059  0.1950 -0.2106
  991YOPC   C2B14380  17.257  17.063   6.893 -0.2498  0.1390  0.2269
  991YOPC   D3B14381  17.457  16.952   7.360  0.1896  0.0459  0.1333
  991YOPC   C4B14382  17.689  16.561   7.362 -0.0964 -0.2115 -0.0752
  992YOPC   NC314383  10.651  13.244   5.861  0.0233  0.1307 -0.0498
  992YOPC   PO414384  10.402  13.581   5.763  0.1888 -0.0750 -0.2722
  992YOPC   GL114385  10.224  13.326   6.119  0.1468 -0.3333 -0.2371
  992YOPC   GL214386  10.079  13.611   6.185 -0.0820 -0.1157 -0.1210
  992YOPC   C1A14387  10.205  13.296   6.619  0.2080 -0.3766 -0.1057
  992YOPC   D2A14388  10.234  13.280   7.101  0.1398 -0.0572 -0.0596
  992YOPC   C3A14389  10.194  13.448   7.513 -0.0826 -0.1768  0.0442
  992YOPC   C4A14390  10.377  13.609   7.933 -0.4912 -0.0136  0.3091
  992YOPC   C1B14391   9.881  13.681   6.427  0.1126 -0.1114  0.0596
  992YOPC   C2B14392   9.981  13.654   6.894 -0.3317 -0.2977 -0.4607
  992YOPC   D3B14393  10.073  13.901   7.256 -0.0295  0.0719  0.2086
  992YOPC   C4B14394   9.990  13.966   7.651  0.1409 -0.1156  0.0457
  993YOPC   NC314395   8.288   2.985   5.810 -0.0247 -0.4350  0.1575
  993YOPC   PO414396   8.470   2.572   5.909 -0.0099  0.3442  0.1038
  993YOPC   GL114397   8.515   2.455   6.347 -0.0956  0.2107 -0.1460
  993YOPC   GL214398   8.200   2.266   6.322  0.1763  0.0451 -0.3235
  993YOPC   C1A14399   8.410   2.625   6.773 -0.0521  0.0036 -0.2567
  993YOPC   D2A14400   8.125   2.684   7.033  0.1152  0.0281  0.0104
  993YOPC   C3A14401   7.881   2.890   7.393 -0.0606 -0.3609 -0.0595
  993YOPC   C4A14402   7.412   2.790   7.414 -0.2333  0.0310  0.0133
  993YOPC   C1B14403   8.311   2.139   6.764  0.2554 -0.1827  0.1055
  993YOPC   C2B14404   8.323   2.132   7.131 -0.2714 -0.0347 -0.1949
  993YOPC   D3B14405   8.183   2.399   7.484  0.0519 -0.0004  0.2201
  993YOPC   C4B14406   8.348   2.780   7.548 -0.1830 -0.1697 -0.0700
  994YOPC   NC314407  12.005   5.131   6.015  0.0234 -0.2247 -0.0937
  994YOPC   PO414408  11.644   5.118   5.705 -0.0179 -0.0220  0.2966
  994YOPC   GL114409  11.555   5.275   6.118  0.2009 -0.0436 -0.0284
  994YOPC   GL214410  11.462   5.536   6.096 -0.0144  0.2683 -0.1885
  994YOPC   C1A14411  11.282   5.170   6.539  0.0064 -0.0079  0.1321
  994YOPC   D2A14412  11.170   5.146   6.971 -0.1390  0.2519 -0.1527
  994YOPC   C3A14413  11.034   4.764   6.995  0.0947  0.0362  0.2035
  994YOPC   C4A14414  11.314   4.298   6.913 -0.2477  0.2529  0.2454
  994YOPC   C1B14415  11.463   5.583   6.516  0.0176 -0.2107  0.1044
  994YOPC   C2B14416  11.698   5.334   6.829  0.2939  0.0009  0.1346
  994YOPC   D3B14417  11.554   5.262   7.289  0.3494  0.3022  0.2284
  994YOPC   C4B14418  11.412   5.090   7.549 -0.0939  0.2085  0.2596
  995YOPC   NC314419   1.842   7.862   5.939 -0.1609 -0.1423 -0.1558
  995YOPC   PO414420   1.379   7.898   6.093 -0.1873 -0.1523 -0.3144
  995YOPC   GL114421   1.379   8.006   6.505  0.0025 -0.0936 -0.0551
  995YOPC   GL214422   1.012   7.877   6.680  0.1166 -0.1179 -0.0214
  995YOPC   C1A14423   1.549   8.056   6.938 -0.1993  0.0833  0.1391
  995YOPC   D2A14424   1.793   8.001   7.211  0.1542  0.3472  0.1813
  995YOPC   C3A14425   1.766   7.928   7.637  0.3815  0.0874  0.1451
  995YOPC   C4A14426   1.410   7.729   7.765  0.0088  0.2523  0.2835
  995YOPC   C1B14427   1.048   8.154   6.979 -0.3370  0.0326  0.1882
  995YOPC   C2B14428   1.369   8.225   7.348 -0.2271 -0.0518 -0.0229
  995YOPC   D3B14429   1.207   8.446   7.750  0.1160 -0.1649  0.1932
  995YOPC   C4B14430   0.785   8.465   7.927 -0.1233  0.0277 -0.0195
  996YOPC   NC314431  16.477  11.787   5.681  0.2561 -0.3468  0.4551
  996YOPC   PO414432  16.680  12.230   5.842 -0.1068  0.1323 -0.2303
  996YOPC   GL114433  16.640  12.346   6.234  0.1602 -0.2303 -0.0951
  996YOPC   GL214434  16.237  12.328   6.374 -0.1713 -0.0637 -0.1764
  996YOPC   C1A14435  16.746  12.106   6.640  0.3915  0.2478  0.3601
  996YOPC   D2A14436  16.713  11.804   6.967 -0.1164  0.4838 -0.0952
  996YOPC   C3A14437  16.748  11.835   7.460 -0.3637  0.1317  0.2371
  996YOPC   C4A14438  16.496  12.031   7.872 -0.1469  0.1066 -0.0423
  996YOPC   C1B14439  16.122  12.593   6.744 -0.2596 -0.0353 -0.0863
  996YOPC   C2B14440  15.958  12.513   7.059 -0.0722  0.3018 -0.1268
  996YOPC   D3B14441  16.074  12.212   7.217  0.0957  0.2382 -0.0733
  996YOPC   C4B14442  16.247  11.877   7.422 -0.1375  0.1034  0.2003
  997YOPC   NC314443  12.830   1.215   5.218 -0.2067  0.2295 -0.5448
  997YOPC   PO414444  12.937   1.501   5.652 -0.2468 -0.0204  0.0682
  997YOPC   GL114445  12.948   1.511   6.067  0.1204 -0.2035  0.0534
  997YOPC   GL214446  12.980   1.915   6.008  0.3891 -0.1293 -0.0978
  997YOPC   C1A14447  12.869   1.579   6.479 -0.3356 -0.0149 -0.0672
  997YOPC   D2A14448  13.056   1.652   6.864  0.3976  0.1260  0.0940
  997YOPC   C3A14449  12.926   1.739   7.244  0.0294 -0.0477  0.6073
  997YOPC   C4A14450  12.619   1.771   7.538 -0.0560 -0.2010  0.0882
  997YOPC   C1B14451  13.283   2.019   6.350 -0.0186 -0.0723 -0.0380
  997YOPC   C2B14452  13.530   1.847   6.771 -0.0432  0.0541 -0.0056
  997YOPC   D3B14453  13.679   2.141   7.069 -0.0933 -0.1446  0.1105
  997YOPC   C4B14454  13.461   2.620   7.109 -0.1519 -0.0825  0.1652
  998YOPC   NC314455  12.615   4.099   5.928 -0.0939  0.1081 -0.3543
  998YOPC   PO414456  12.293   3.929   5.546 -0.1682 -0.0050  0.1531
  998YOPC   GL114457  12.030   3.762   5.960  0.0555  0.3298  0.1610
  998YOPC   GL214458  11.900   3.527   6.085 -0.0081 -0.1121 -0.2927
  998YOPC   C1A14459  11.999   3.914   6.465 -0.0342  0.0392  0.1044
  998YOPC   D2A14460  11.982   4.343   6.689  0.0500 -0.0304  0.4949
  998YOPC   C3A14461  11.775   4.273   7.088  0.0148  0.1530 -0.1831
  998YOPC   C4A14462  11.602   4.392   7.578  0.2215  0.2744 -0.2835
  998YOPC   C1B14463  11.806   3.443   6.474 -0.0080  0.4596 -0.0449
  998YOPC   C2B14464  11.573   3.317   6.840 -0.2995 -0.0819  0.1905
  998YOPC   D3B14465  11.386   3.004   6.936 -0.0889  0.0129  0.2001
  998YOPC   C4B14466  11.464   2.801   7.189  0.3487 -0.1809 -0.2195
  999YOPC   NC314467   3.007  12.909   5.070  0.1937  0.1013 -0.1182
  999YOPC   PO414468   3.105  12.651   5.583  0.0110  0.0321 -0.1242
  999YOPC   GL114469   3.277  12.817   6.015  0.1287  0.0412  0.1164
  999YOPC   GL214470   2.925  12.829   6.182  0.0016 -0.3074  0.1702
  999YOPC   C1A14471   3.318  12.743   6.474  0.1414  0.2336 -0.0563
  999YOPC   D2A14472   3.214  12.827   6.982 -0.1077  0.0358  0.0967
  999YOPC   C3A14473   3.553  12.824   7.068 -0.1081  0.1102  0.1435
  999YOPC   C4A14474   4.020  12.785   7.197  0.1258  0.2512  0.0383
  999YOPC   C1B14475   2.861  12.864   6.567  0.2870  0.1502 -0.0074
  999YOPC   C2B14476   2.728  12.868   7.049  0.0550 -0.1875 -0.2889
  999YOPC   D3B14477   2.860  12.947   7.434 -0.0093 -0.2016 -0.0905
  999YOPC   C4B14478   3.106  13.174   7.841 -0.1121  0.1612 -0.2433
 1000YOPC   NC314479  16.696   2.843   5.251 -0.0995 -0.0690 -0.2578
 1000YOPC   PO414480  16.801   2.573   5.574 -0.0059  0.5677  0.1068
 1000YOPC   GL114481  16.865   2.540   5.939 -0.0106 -0.3110  0.0557
 1000YOPC   GL214482  17.080   2.790   5.988  0.1304  0.1485 -0.0268
 1000YOPC   C1A14483  17.014   2.219   6.114  0.1778  0.0892  0.3162
 1000YOPC   D2A14484  16.851   2.083   6.534  0.0933 -0.1924 -0.0424
 1000YOPC   C3A14485  16.847   2.039   6.934 -0.0978  0.1496  0.0291
 1000YOPC   C4A14486  16.722   1.985   7.321 -0.3624 -0.0456 -0.2704
 1000YOPC   C1B14487  16.889   2.671   6.439  0.1860  0.0915 -0.0022
 1000YOPC   C2B14488  16.695   2.524   6.854  0.0852  0.1497  0.0842
 1000YOPC   D3B14489  16.962   2.386   7.264 -0.2393  0.2130 -0.3427
 1000YOPC   C4B14490  17.344   2.220   7.377 -0.0633 -0.1448  0.2094
 1001YOPC   NC314491  18.250  10.504   6.100 -0.2592 -0.0241  0.1009
 1001YOPC   PO414492  18.487  10.885   5.868 -0.2050 -0.2710 -0.2301
 1001YOPC   GL114493  18.501  11.206   6.182 -0.1752  0.0135  0.0981
 1001YOPC   GL214494  18.785  11.412   6.099  0.1508 -0.1539 -0.1093
 1001YOPC   C1A14495  18.196  11.306   6.491 -0.0158  0.2188 -0.0031
 1001YOPC   D2A14496  17.998  11.243   6.821  0.0272  0.1533 -0.0259
 1001YOPC   C3A14497  17.815  11.544   6.932  0.0743  0.2858  0.1775
 1001YOPC   C4A14498  17.799  11.939   6.936  0.0308 -0.2137 -0.0898
 1001YOPC   C1B14499  18.671  11.533   6.509  0.3551 -0.0206 -0.0533
 1001YOPC   C2B14500  18.724  11.271   6.900  0.3031 -0.0958  0.0820
 1001YOPC   D3B14501  18.955  11.260   7.390  0.2466  0.2714 -0.2379
 1001YOPC   C4B14502  19.173  11.617   7.563 -0.0743  0.1997  0.1528
 1002YOPC   NC314503   0.384  16.221   6.085  0.0714  0.0614 -0.0203
 1002YOPC   PO414504  -0.030  16.278   6.134 -0.3077 -0.0143 -0.2179
 1002YOPC   GL114505   0.076  16.324   6.512  0.3598  0.0560  0.0087
 1002YOPC   GL214506   0.392  16.147   6.629  0.1421 -0.0202 -0.2709
 1002YOPC   C1A14507   0.006  16.213   6.928 -0.0522  0.0401  0.3157
 1002YOPC   D2A14508   0.104  15.990   7.452 -0.1365  0.0725 -0.2276
 1002YOPC   C3A14509  -0.020  16.162   7.783 -0.2957  0.1916  0.0921
 1002YOPC   C4A14510  -0.057  16.258   8.277 -0.0305 -0.0970  0.2680
 1002YOPC   C1B14511   0.388  15.901   6.983  0.1197  0.0227  0.1603
 1002YOPC   C2B14512   0.591  15.741   7.329  0.0240 -0.1612 -0.0018
 1002YOPC   D3B14513   0.581  16.052   7.703 -0.0291 -0.2821 -0.4074
 1002YOPC   C4B14514   0.410  16.043   8.056  0.1991  0.1462  0.0348
 1003YOPC   NC314515  15.683  13.727   5.278  0.1941  0.0019  0.0213
 1003YOPC   PO414516  15.841  13.402   5.450  0.0534 -0.1333 -0.2412
 1003YOPC   GL114517  15.612  13.149   5.819  0.0291  0.1793  0.1861
 1003YOPC   GL214518  15.306  13.099   5.860 -0.2880 -0.3718  0.0456
 1003YOPC   C1A14519  15.590  13.039   6.290 -0.1974 -0.0119 -0.2557
 1003YOPC   D2A14520  15.417  12.785   6.619  0.0215  0.0118 -0.1165
 1003YOPC   C3A14521  15.601  12.500   6.749 -0.0318  0.2316 -0.0539
 1003YOPC   C4A14522  15.649  12.071   6.842  0.1473 -0.3756 -0.0346
 1003YOPC   C1B14523  15.118  13.096   6.346  0.0978 -0.2051 -0.1549
 1003YOPC   C2B14524  15.270  13.152   6.880  0.1970  0.1468 -0.1152
 1003YOPC   D3B14525  15.479  12.753   7.179  0.0067 -0.0288 -0.0013
 1003YOPC   C4B14526  15.555  12.354   7.363  0.0813  0.1552  0.0043
 1004YOPC   NC314527   6.083   4.467   5.506  0.0509  0.1646 -0.1316
 1004YOPC   PO414528   6.214   4.702   5.925 -0.2174 -0.0741  0.0120
 1004YOPC   GL114529   6.311   4.905   6.268 -0.3368  0.4197 -0.3607
 1004YOPC   GL214530   6.629   5.043   6.333  0.0666  0.2431 -0.1634
 1004YOPC   C1A14531   6.444   4.689   6.620 -0.3716 -0.0618  0.2570
 1004YOPC   D2A14532   6.524   4.421   7.099  0.0840 -0.1374  0.1973
 1004YOPC   C3A14533   6.393   4.096   7.407 -0.2392 -0.0714 -0.3681
 1004YOPC   C4A14534   6.184   3.989   7.770  0.0274  0.3861  0.0367
 1004YOPC   C1B14535   6.784   5.222   6.737 -0.0280  0.0724 -0.2220
 1004YOPC   C2B14536   6.763   5.241   7.267 -0.0308  0.0100  0.1624
 1004YOPC   D3B14537   6.315   5.365   7.528 -0.1852 -0.0264  0.2920
 1004YOPC   C4B14538   5.963   5.312   7.322  0.2963 -0.0295 -0.1820
 1005YOPC   NC314539   7.732  12.377   5.796  0.2363  0.1447  0.0881
 1005YOPC   PO414540   7.465  12.066   5.804  0.1379 -0.0781  0.0198
 1005YOPC   GL114541   7.368  12.001   6.229 -0.2752 -0.2422  0.1556
 1005YOPC   GL214542   7.050  12.130   6.367  0.1187  0.1931 -0.2073
 1005YOPC   C1A14543   7.448  12.046   6.665 -0.3667  0.0663 -0.0608
 1005YOPC   D2A14544   7.262  11.777   6.981  0.0586  0.2319 -0.4785
 1005YOPC   C3A14545   6.990  11.878   7.316  0.1140  0.0229 -0.1884
 1005YOPC   C4A14546   6.962  12.063   7.648  0.1234 -0.1513 -0.3550
 1005YOPC   C1B14547   6.951  12.207   6.876 -0.3727  0.1772  0.1750
 1005YOPC   C2B14548   7.017  12.437   7.256 -0.1870 -0.0561 -0.0388
 1005YOPC   D3B14549   6.579  12.698   7.267 -0.3041  0.2514  0.2561
 1005YOPC   C4B14550   6.108  12.645   7.174 -0.1541  0.0164  0.0352
 1006YOPC   NC314551  16.052   0.051   5.747 -0.1081 -0.1808 -0.2301
 1006YOPC   PO414552  15.678  -0.086   5.751 -0.0122 -0.2755 -0.0254
 1006YOPC   GL114553  15.385  -0.118   6.092  0.4547  0.3060  0.2244
 1006YOPC   GL214554  15.297  -0.314   6.118  0.2600  0.0321  0.0938
 1006YOPC   C1A14555  15.182   0.172   6.240 -0.0334 -0.2038 -0.3425
 1006YOPC   D2A14556  14.928   0.427   6.507  0.3659  0.2897 -0.0463
 1006YOPC   C3A14557  14.734   0.876   6.654  0.1154  0.0495 -0.1694
 1006YOPC   C4A14558  14.855   1.267   6.643 -0.0675  0.0749  0.0545
 1006YOPC   C1B14559  15.058  -0.366   6.469 -0.2812  0.1890  0.2412
 1006YOPC   C2B14560  14.906  -0.420   6.925 -0.2163  0.2140 -0.1477
 1006YOPC   D3B14561  14.623  -0.182   7.059 -0.1566 -0.2601  0.1833
 1006YOPC   C4B14562  14.201  -0.117   6.943 -0.4638 -0.4226  0.2175
 1007YOPC   NC314563  14.279   4.235   5.351  0.0371  0.2728 -0.0869
 1007YOPC   PO414564  14.498   4.583   5.596  0.1067 -0.0241  0.3208
 1007YOPC   GL114565  14.353   4.503   5.985  0.1198  0.2911  0.0121
 1007YOPC   GL214566  14.238   4.748   6.101 -0.4859  0.1692  0.0529
 1007YOPC   C1A14567  14.649   4.584   6.380 -0.1472  0.2012 -0.0299
 1007YOPC   D2A14568  14.625   4.636   6.786  0.0362  0.0582 -0.1090
 1007YOPC   C3A14569  14.830   4.600   7.198  0.2590 -0.2506  0.0846
 1007YOPC   C4A14570  15.276   4.496   7.253  0.1567  0.0551 -0.0967
 1007YOPC   C1B14571  14.243   4.872   6.588 -0.0489 -0.3118 -0.2268
 1007YOPC   C2B14572  14.361   5.007   6.958  0.3330  0.1324  0.1660
 1007YOPC   D3B14573  14.385   4.812   7.251 -0.2247 -0.1197 -0.1194
 1007YOPC   C4B14574  14.096   4.645   7.519  0.1620 -0.1069 -0.1163
 1008YOPC   NC314575  17.770  12.344   5.856  0.2545  0.0904 -0.0363
 1008YOPC   PO414576  17.634  11.957   6.030 -0.2496 -0.2151 -0.2689
 1008YOPC   GL114577  17.376  12.276   6.277  0.3873  0.1223  0.1620
 1008YOPC   GL214578  17.459  12.531   6.278 -0.0570 -0.2973 -0.3979
 1008YOPC   C1A14579  17.236  12.498   6.692  0.0936 -0.2570  0.0227
 1008YOPC   D2A14580  16.785  12.529   6.935  0.0471 -0.1130  0.2764
 1008YOPC   C3A14581  16.593  12.331   7.185 -0.3379  0.4520  0.0539
 1008YOPC   C4A14582  16.465  12.395   7.550 -0.0530  0.0154 -0.0901
 1008YOPC   C1B14583  17.709  12.362   6.611  0.1039  0.3589  0.0187
 1008YOPC   C2B14584  18.078  12.387   6.861  0.0817  0.4400 -0.0375
 1008YOPC   D3B14585  18.260  11.988   7.179 -0.2655  0.0906 -0.0540
 1008YOPC   C4B14586  18.112  11.994   7.526 -0.3212 -0.1675  0.0651
 1009YOPC   NC314587  13.454  17.054   5.648 -0.1504 -0.0031 -0.2417
 1009YOPC   PO414588  13.223  16.683   5.868 -0.0889  0.1204  0.1859
 1009YOPC   GL114589  13.365  16.980   6.207 -0.0480  0.5223  0.0937
 1009YOPC   GL214590  13.332  17.342   6.123 -0.3834  0.0003  0.0815
 1009YOPC   C1A14591  13.427  17.117   6.625  0.0897  0.1266 -0.2878
 1009YOPC   D2A14592  13.223  17.473   6.768 -0.0873 -0.0645  0.1534
 1009YOPC   C3A14593  13.074  17.865   6.547 -0.2444 -0.0172  0.1569
 1009YOPC   C4A14594  13.029  17.798   6.063 -0.0269 -0.0473 -0.0489
 1009YOPC   C1B14595  13.588  17.591   6.364 -0.1137  0.0029 -0.2641
 1009YOPC   C2B14596  13.635  17.913   6.663 -0.0097 -0.0640 -0.0120
 1009YOPC   D3B14597  13.926  18.002   7.001  0.3912 -0.0898 -0.0441
 1009YOPC   C4B14598  14.110  18.204   7.375 -0.1879 -0.0062 -0.1187
 1010YOPC   NC314599  17.602   4.668   5.797  0.3234  0.1550 -0.0436
 1010YOPC   PO414600  17.912   4.408   5.564  0.0952  0.1516 -0.1001
 1010YOPC   GL114601  17.813   4.154   5.951  0.0141  0.1222  0.0693
 1010YOPC   GL214602  17.765   3.803   5.926 -0.0721 -0.3484 -0.0511
 1010YOPC   C1A14603  17.504   4.179   6.344  0.2124 -0.2138  0.1401
 1010YOPC   D2A14604  17.572   4.163   6.715  0.1783 -0.2137 -0.1893
 1010YOPC   C3A14605  17.672   3.808   6.835 -0.1588  0.0367 -0.0014
 1010YOPC   C4A14606  17.877   3.465   6.806 -0.2094 -0.0784 -0.2623
 1010YOPC   C1B14607  17.805   3.661   6.289 -0.2639  0.1319 -0.2501
 1010YOPC   C2B14608  17.581   3.261   6.483  0.3023 -0.1132  0.1621
 1010YOPC   D3B14609  17.527   2.833   6.480 -0.2891  0.0117  0.1053
 1010YOPC   C4B14610  17.340   2.487   6.355  0.2290  0.1533  0.2815
 1011YOPC   NC314611   6.769   0.069   5.581  0.0319 -0.4111  0.0232
 1011YOPC   PO414612   6.624   0.427   5.612 -0.0965 -0.0944  0.0893
 1011YOPC   GL114613   6.388   0.391   5.922 -0.3361 -0.0393  0.2767
 1011YOPC   GL214614   6.198   0.640   6.004 -0.1045 -0.1105  0.0456
 1011YOPC   C1A14615   6.259   0.140   6.244 -0.1594  0.3711 -0.0086
 1011YOPC   D2A14616   6.458   0.195   6.607  0.1503  0.1404 -0.0947
 1011YOPC   C3A14617   6.728   0.185   6.438 -0.0084 -0.1013 -0.2549
 1011YOPC   C4A14618   6.968  -0.107   6.418 -0.5752 -0.1114 -0.0150
 1011YOPC   C1B14619   6.209   0.597   6.446 -0.0902  0.2806  0.1413
 1011YOPC   C2B14620   6.458   0.752   6.878 -0.0700  0.0751 -0.2024
 1011YOPC   D3B14621   6.782   0.499   6.944  0.2024 -0.0649  0.3841
 1011YOPC   C4B14622   6.845   0.034   7.001  0.1654 -0.0314  0.1462
 1012YOPC   NC314623   5.039  17.126   5.792 -0.0366  0.3435 -0.1156
 1012YOPC   PO414624   4.692  17.186   5.892  0.0133  0.2276  0.0030
 1012YOPC   GL114625   4.730  17.100   6.269  0.1535 -0.2239  0.2749
 1012YOPC   GL214626   4.919  16.902   6.232 -0.2800  0.1841  0.0341
 1012YOPC   C1A14627   4.873  17.010   6.765  0.0761  0.1076  0.0572
 1012YOPC   D2A14628   4.946  16.668   7.084  0.0108  0.1984 -0.1620
 1012YOPC   C3A14629   5.005  16.696   7.549 -0.1826 -0.2000 -0.1420
 1012YOPC   C4A14630   4.758  16.839   7.825  0.1712  0.0862 -0.0183
 1012YOPC   C1B14631   5.023  16.577   6.552 -0.2286 -0.0625  0.0733
 1012YOPC   C2B14632   5.188  16.306   6.854 -0.0698 -0.0957 -0.2746
 1012YOPC   D3B14633   5.229  15.727   6.901  0.0552 -0.0898 -0.0574
 1012YOPC   C4B14634   5.401  15.307   7.013 -0.0923  0.3431 -0.0272
 1013YOPC   NC314635  11.486  16.040   5.499  0.0794 -0.5450  0.0607
 1013YOPC   PO414636  11.403  15.691   5.410  0.1669  0.2810  0.0157
 1013YOPC   GL114637  11.347  15.754   5.873  0.1854  0.2721 -0.2963
 1013YOPC   GL214638  11.165  15.558   6.044 -0.0355 -0.0891  0.2710
 1013YOPC   C1A14639  11.684  15.974   6.143  0.0594 -0.1835  0.0125
 1013YOPC   D2A14640  11.763  16.071   6.561 -0.1329  0.3048  0.1661
 1013YOPC   C3A14641  12.104  16.197   6.705  0.3620 -0.0333 -0.2947
 1013YOPC   C4A14642  12.197  16.632   6.844  0.0256 -0.3862  0.3488
 1013YOPC   C1B14643  10.926  15.295   6.414 -0.1260  0.1523 -0.2133
 1013YOPC   C2B14644  10.936  15.114   6.829  0.3705  0.0075  0.0091
 1013YOPC   D3B14645  11.091  15.219   7.108  0.0906  0.1689  0.0925
 1013YOPC   C4B14646  11.379  15.406   7.378  0.0647 -0.3320  0.1578
 1014YOPC   NC314647   8.137  15.586   5.447 -0.1251  0.0722 -0.1041
 1014YOPC   PO414648   7.732  15.659   5.795 -0.1033  0.1924  0.0419
 1014YOPC   GL114649   7.369  15.609   6.106 -0.0998 -0.0642 -0.1474
 1014YOPC   GL214650   7.389  15.948   6.094 -0.0471 -0.0771  0.1905
 1014YOPC   C1A14651   7.396  15.441   6.597 -0.1087  0.0058  0.0753
 1014YOPC   D2A14652   7.192  15.440   6.906  0.1515  0.0276 -0.2528
 1014YOPC   C3A14653   7.029  15.834   7.068 -0.0978 -0.0536 -0.2222
 1014YOPC   C4A14654   6.939  16.314   7.076  0.4427  0.2135 -0.1983
 1014YOPC   C1B14655   7.277  15.923   6.558  0.0465  0.1261 -0.3671
 1014YOPC   C2B14656   7.488  16.231   6.916 -0.1920 -0.0572 -0.0747
 1014YOPC   D3B14657   7.866  16.084   7.108 -0.0783  0.0951  0.0681
 1014YOPC   C4B14658   8.075  15.870   7.364  0.0877 -0.1386 -0.0568
 1015YOPC   NC314659  15.548  15.587   5.575  0.0630 -0.0062  0.0793
 1015YOPC   PO414660  15.841  15.777   5.759  0.0225  0.0775  0.0408
 1015YOPC   GL114661  15.577  15.840   6.066  0.0773  0.0076  0.4335
 1015YOPC   GL214662  15.722  15.992   6.271 -0.0702  0.3554  0.0216
 1015YOPC   C1A14663  15.383  15.575   6.368 -0.0021  0.4117  0.5120
 1015YOPC   D2A14664  15.311  15.270   6.657  0.2700 -0.3226 -0.1623
 1015YOPC   C3A14665  15.282  15.010   6.995 -0.1575  0.1553 -0.1351
 1015YOPC   C4A14666  15.213  14.950   7.439  0.2517  0.0895 -0.0967
 1015YOPC   C1B14667  15.492  16.084   6.648  0.3422 -0.0316  0.1453
 1015YOPC   C2B14668  15.409  16.349   6.961  0.0864  0.1840  0.0429
 1015YOPC   D3B14669  15.514  16.662   6.775  0.0510 -0.1253 -0.0182
 1015YOPC   C4B14670  15.709  16.917   7.016  0.0759  0.0252  0.4685
 1016YOPC   NC314671   7.222   0.833   5.495 -0.1358  0.1647 -0.1773
 1016YOPC   PO414672   7.548   0.999   5.761  0.0727 -0.0128  0.1745
 1016YOPC   GL114673   7.855   0.948   6.033 -0.3829 -0.1758 -0.1637
 1016YOPC   GL214674   7.556   0.797   6.243 -0.0215  0.0790  0.2703
 1016YOPC   C1A14675   7.907   1.014   6.555  0.0303  0.2069  0.3578
 1016YOPC   D2A14676   7.918   1.084   6.916 -0.2363  0.3842  0.1011
 1016YOPC   C3A14677   8.120   0.793   7.188 -0.0352 -0.2509 -0.1958
 1016YOPC   C4A14678   8.288   0.693   7.613  0.1198  0.1396  0.0380
 1016YOPC   C1B14679   7.793   0.392   6.329 -0.1838 -0.0547  0.1589
 1016YOPC   C2B14680   8.135   0.104   6.448  0.1297 -0.3742 -0.2375
 1016YOPC   D3B14681   8.327  -0.075   6.180 -0.1781  0.2142  0.2761
 1016YOPC   C4B14682   8.796  -0.130   6.271 -0.3065  0.0737  0.1226
 1017YOPC   NC314683   5.659  15.379   5.247 -0.2221 -0.1570 -0.1302
 1017YOPC   PO414684   5.623  15.254   5.678 -0.1283  0.3891 -0.0804
 1017YOPC   GL114685   5.755  15.396   6.069 -0.2670 -0.2314  0.0791
 1017YOPC   GL214686   5.910  15.777   6.156  0.1058  0.0716 -0.1922
 1017YOPC   C1A14687   5.469  15.583   6.461 -0.2144  0.1504 -0.2771
 1017YOPC   D2A14688   5.090  15.361   6.570 -0.0845  0.0146 -0.1355
 1017YOPC   C3A14689   4.713  15.551   6.619 -0.2368 -0.0455 -0.1324
 1017YOPC   C4A14690   4.462  15.651   6.992  0.0285  0.0380 -0.0392
 1017YOPC   C1B14691   6.067  15.694   6.579  0.1635 -0.0023  0.1069
 1017YOPC   C2B14692   6.277  15.724   6.876 -0.0447 -0.4050 -0.0907
 1017YOPC   D3B14693   6.158  15.652   7.425  0.4791 -0.0856  0.2187
 1017YOPC   C4B14694   6.138  15.488   7.857  0.1192 -0.3459  0.2152
 1018YOPC   NC314695   6.311  17.238   5.844 -0.1415 -0.0763 -0.0003
 1018YOPC   PO414696   5.943  17.484   5.747  0.0121 -0.0894 -0.2358
 1018YOPC   GL114697   5.880  17.253   6.135 -0.0998 -0.0917 -0.6049
 1018YOPC   GL214698   6.209  16.913   6.260 -0.0254 -0.2643 -0.4433
 1018YOPC   C1A14699   5.837  17.124   6.574  0.0071  0.1381 -0.3701
 1018YOPC   D2A14700   5.704  17.174   6.965 -0.0781 -0.0133 -0.1621
 1018YOPC   C3A14701   5.860  16.829   7.053  0.1104 -0.1427  0.0502
 1018YOPC   C4A14702   6.201  16.773   7.252 -0.1181 -0.1435  0.1782
 1018YOPC   C1B14703   6.096  16.659   6.618  0.0735  0.0513 -0.1822
 1018YOPC   C2B14704   6.066  16.199   6.743  0.2707  0.0565  0.1041
 1018YOPC   D3B14705   5.797  16.332   7.070  0.0194 -0.1540 -0.1990
 1018YOPC   C4B14706   5.936  16.122   7.545 -0.2633 -0.0637 -0.0987
 1019YOPC   NC314707  12.541  14.945   5.269 -0.1335  0.2737 -0.0412
 1019YOPC   PO414708  12.201  15.076   5.575 -0.1808  0.0681  0.1389
 1019YOPC   GL114709  12.197  15.473   5.908 -0.1835 -0.0004  0.3144
 1019YOPC   GL214710  11.900  15.492   5.979  0.0543  0.1293 -0.2255
 1019YOPC   C1A14711  12.093  15.730   6.337 -0.1556 -0.0477 -0.0048
 1019YOPC   D2A14712  12.045  15.663   6.668 -0.0711 -0.0234 -0.0236
 1019YOPC   C3A14713  12.195  15.716   7.120  0.0020 -0.2406  0.0109
 1019YOPC   C4A14714  12.386  15.922   7.581  0.1848  0.1245 -0.0318
 1019YOPC   C1B14715  11.640  15.485   6.396  0.0009 -0.0850 -0.1039
 1019YOPC   C2B14716  11.352  15.432   6.646 -0.2012  0.0747 -0.2289
 1019YOPC   D3B14717  11.073  15.596   6.798 -0.3394  0.1727 -0.1733
 1019YOPC   C4B14718  10.728  15.599   6.885 -0.2240  0.4475  0.0041
 1020YOPC   NC314719  15.419   5.417   5.736  0.2343 -0.1613 -0.3391
 1020YOPC   PO414720  15.121   5.134   5.571 -0.3278 -0.1540  0.1856
 1020YOPC   GL114721  15.124   5.154   6.033  0.1442  0.1133 -0.1362
 1020YOPC   GL214722  15.450   5.078   6.084 -0.1347  0.1493  0.2356
 1020YOPC   C1A14723  15.149   5.190   6.499  0.2239  0.2258 -0.1916
 1020YOPC   D2A14724  15.434   5.148   6.796  0.0397  0.3929 -0.3728
 1020YOPC   C3A14725  15.314   5.008   7.189  0.0522  0.0195  0.2875
 1020YOPC   C4A14726  15.269   4.767   7.658  0.2900 -0.1616 -0.0575
 1020YOPC   C1B14727  15.229   4.684   6.300 -0.2927 -0.2553 -0.0402
 1020YOPC   C2B14728  15.164   4.693   6.770 -0.0214  0.0759  0.0263
 1020YOPC   D3B14729  15.597   4.691   6.955  0.0542  0.2638  0.2505
 1020YOPC   C4B14730  15.946   4.919   6.971  0.0266  0.0146 -0.4845
 1021YOPC   NC314731   1.358   2.002   5.578  0.1557  0.0436  0.0770
 1021YOPC   PO414732   0.928   1.971   5.650  0.3130 -0.1883  0.0072
 1021YOPC   GL114733   0.817   1.739   6.117 -0.1744 -0.2577  0.0577
 1021YOPC   GL214734   0.605   1.824   6.324 -0.2475 -0.0732  0.0352
 1021YOPC   C1A14735   1.080   1.658   6.520  0.2799  0.0628 -0.0230
 1021YOPC   D2A14736   1.515   1.514   6.615  0.3883  0.0026  0.2875
 1021YOPC   C3A14737   1.656   1.128   6.658 -0.2159  0.1172  0.3695
 1021YOPC   C4A14738   2.042   0.936   6.812  0.0205 -0.0901 -0.1248
 1021YOPC   C1B14739   0.637   1.799   6.743 -0.2656 -0.0479  0.1916
 1021YOPC   C2B14740   0.976   1.660   7.015 -0.3944  0.1444 -0.0824
 1021YOPC   D3B14741   1.029   1.299   7.342  0.1484  0.2280 -0.3008
 1021YOPC   C4B14742   0.855   1.289   7.733 -0.0088  0.2177 -0.1039
 1022YOPC   NC314743   2.229   7.464   5.946  0.1051  0.1079  0.1672
 1022YOPC   PO414744   2.595   7.604   5.924 -0.2357 -0.3506 -0.3320
 1022YOPC   GL114745   2.761   7.794   6.370 -0.0946  0.1280 -0.2418
 1022YOPC   GL214746   2.888   7.440   6.424 -0.2026  0.0735  0.0673
 1022YOPC   C1A14747   2.959   7.884   6.820 -0.0875  0.1750  0.2982
 1022YOPC   D2A14748   2.938   7.729   7.221  0.0988 -0.0604  0.1190
 1022YOPC   C3A14749   2.754   7.625   7.531  0.0625  0.2155  0.2725
 1022YOPC   C4A14750   2.620   7.212   7.469  0.1383 -0.1269  0.0204
 1022YOPC   C1B14751   2.894   7.395   6.827  0.1833  0.1214  0.0735
 1022YOPC   C2B14752   3.081   7.179   7.248  0.1096 -0.1799 -0.4564
 1022YOPC   D3B14753   3.215   7.418   7.539  0.1226  0.0241  0.3041
 1022YOPC   C4B14754   3.351   7.558   7.881 -0.1664  0.3023 -0.1307
 1023YOPC   NC314755   6.311   8.590   5.808  0.0902  0.1842 -0.1518
 1023YOPC   PO414756   6.684   8.547   5.795 -0.1439  0.2485 -0.1181
 1023YOPC   GL114757   6.743   8.722   6.190 -0.1002  0.0108 -0.2248
 1023YOPC   GL214758   6.560   8.946   6.394 -0.2823 -0.2973 -0.1548
 1023YOPC   C1A14759   6.736   8.588   6.639  0.0433 -0.0970 -0.2649
 1023YOPC   D2A14760   6.754   8.598   7.102  0.0566 -0.0070  0.0103
 1023YOPC   C3A14761   6.464   8.832   7.245  0.0092 -0.3872  0.1847
 1023YOPC   C4A14762   6.065   8.771   7.177  0.1239  0.1283  0.0066
 1023YOPC   C1B14763   6.512   9.119   6.778  0.1239  0.2034 -0.1222
 1023YOPC   C2B14764   6.834   9.276   7.027 -0.4823 -0.2036 -0.0280
 1023YOPC   D3B14765   6.933   9.154   7.312  0.1051  0.2275 -0.2379
 1023YOPC   C4B14766   6.854   8.801   7.554 -0.0716 -0.1141 -0.1595
 1024YOPC   NC314767  15.237   9.921   5.758 -0.0937  0.1047 -0.1605
 1024YOPC   PO414768  15.604   9.950   5.727  0.1017  0.1038  0.3578
 1024YOPC   GL114769  15.534   9.686   6.081  0.3349 -0.1475 -0.1007
 1024YOPC   GL214770  15.629   9.866   6.282  0.1491 -0.2448 -0.0071
 1024YOPC   C1A14771  15.469   9.464   6.443 -0.2003  0.0899 -0.2685
 1024YOPC   D2A14772  15.469   9.206   6.841  0.3257  0.1779  0.0920
 1024YOPC   C3A14773  15.632   8.821   6.755 -0.3420 -0.1713 -0.1795
 1024YOPC   C4A14774  16.057   8.714   6.488  0.3179 -0.0942  0.2565
 1024YOPC   C1B14775  15.748  10.271   6.493  0.2025  0.0319  0.3167
 1024YOPC   C2B14776  15.494  10.541   6.710  0.0970  0.0820 -0.0693
 1024YOPC   D3B14777  15.137  10.536   6.455 -0.0617  0.0643  0.0718
 1024YOPC   C4B14778  14.973  10.887   6.519 -0.0257 -0.3416  0.0223
 1025YOPC   NC314779   5.869  14.335   5.392  0.0741 -0.0974  0.1936
 1025YOPC   PO414780   6.160  14.559   5.602 -0.0209  0.0429 -0.3231
 1025YOPC   GL114781   6.229  14.650   6.002  0.0636 -0.2736  0.2071
 1025YOPC   GL214782   5.944  14.666   6.206  0.2822 -0.2693 -0.0955
 1025YOPC   C1A14783   6.213  14.281   6.297 -0.1006 -0.3581 -0.2991
 1025YOPC   D2A14784   6.483  13.865   6.364  0.5330  0.0118  0.2899
 1025YOPC   C3A14785   6.446  13.423   6.554  0.0779 -0.2008  0.1048
 1025YOPC   C4A14786   6.487  13.201   6.910  0.1663 -0.1463  0.1931
 1025YOPC   C1B14787   5.938  14.513   6.603 -0.2036 -0.2967 -0.3414
 1025YOPC   C2B14788   5.947  14.397   7.004 -0.1376 -0.0032 -0.3498
 1025YOPC   D3B14789   5.852  14.485   7.401  0.0142 -0.1567 -0.3033
 1025YOPC   C4B14790   5.555  14.229   7.635 -0.0017 -0.1337  0.1463
 1026YOPC   NC314791   0.923  12.011   5.756  0.1089 -0.0761 -0.2073
 1026YOPC   PO414792   1.239  12.214   5.730  0.2854 -0.1982  0.3599
 1026YOPC   GL114793   1.199  12.229   6.163  0.0045  0.0105  0.0342
 1026YOPC   GL214794   1.504  12.436   6.105  0.2605  0.0691 -0.1700
 1026YOPC   C1A14795   0.884  12.291   6.495  0.4772 -0.2141 -0.2864
 1026YOPC   D2A14796   0.467  12.339   6.802  0.0841  0.0716  0.4687
 1026YOPC   C3A14797   0.463  12.485   7.118  0.1042 -0.0260  0.0994
 1026YOPC   C4A14798   0.441  12.588   7.541  0.3150  0.3561 -0.0307
 1026YOPC   C1B14799   1.458  12.542   6.486 -0.0819 -0.3082 -0.1968
 1026YOPC   C2B14800   1.377  12.622   6.889 -0.0108  0.0608  0.2599
 1026YOPC   D3B14801   1.507  12.698   7.224  0.2039  0.5053  0.1948
 1026YOPC   C4B14802   1.850  12.759   7.479  0.2087  0.0026  0.0532
 1027YOPC   NC314803  15.036  16.891   5.473 -0.2125 -0.1669  0.1078
 1027YOPC   PO414804  14.880  17.143   5.744  0.2105 -0.0244 -0.1714
 1027YOPC   GL114805  14.790  17.228   6.143 -0.3641 -0.2411 -0.2779
 1027YOPC   GL214806  14.943  17.297   6.492  0.1372  0.0961 -0.0458
 1027YOPC   C1A14807  14.479  17.546   6.428 -0.0421  0.0376 -0.0429
 1027YOPC   D2A14808  14.058  17.569   6.608  0.1060 -0.2365  0.1788
 1027YOPC   C3A14809  13.747  17.398   6.850 -0.0075  0.1643  0.3788
 1027YOPC   C4A14810  13.510  17.338   7.171 -0.1049 -0.2318  0.0749
 1027YOPC   C1B14811  15.256  17.168   6.769  0.0894  0.3902 -0.1902
 1027YOPC   C2B14812  15.489  17.374   7.052 -0.1238  0.1211  0.1616
 1027YOPC   D3B14813  15.665  17.171   7.514  0.2893 -0.0425 -0.0469
 1027YOPC   C4B14814  16.080  17.116   7.344 -0.0337  0.0047  0.1448
 1028YOPC   NC314815  14.521   9.172   5.606 -0.1132 -0.2203 -0.0630
 1028YOPC   PO414816  14.073   8.990   5.705 -0.0287  0.1055 -0.1366
 1028YOPC   GL114817  13.774   9.059   6.070 -0.1257 -0.1602  0.0925
 1028YOPC   GL214818  13.575   9.376   6.160 -0.0340 -0.3486  0.0762
 1028YOPC   C1A14819  13.752   9.070   6.601  0.2505  0.1331  0.0146
 1028YOPC   D2A14820  13.916   9.086   7.022  0.1440  0.3853  0.0091
 1028YOPC   C3A14821  13.862   9.382   7.288  0.0470 -0.3642  0.1080
 1028YOPC   C4A14822  13.591   9.714   7.465 -0.2539  0.0283 -0.1817
 1028YOPC   C1B14823  13.291   9.210   6.467  0.0066  0.1776  0.3754
 1028YOPC   C2B14824  12.927   9.243   6.644  0.2800 -0.4231 -0.3251
 1028YOPC   D3B14825  12.828   8.935   7.045 -0.2186  0.2160 -0.1089
 1028YOPC   C4B14826  12.669   8.616   7.171 -0.0746  0.1565  0.2384
 1029YOPC   NC314827  11.295   0.919   5.660  0.2384 -0.1563  0.0080
 1029YOPC   PO414828  11.752   0.765   5.642  0.1231  0.1324 -0.2341
 1029YOPC   GL114829  11.943   0.916   5.952  0.1134 -0.2514 -0.2481
 1029YOPC   GL214830  12.135   1.115   6.012  0.1961  0.0302 -0.1668
 1029YOPC   C1A14831  12.039   0.935   6.514  0.0641  0.2802  0.0446
 1029YOPC   D2A14832  12.103   0.585   6.879  0.0188 -0.1319 -0.1172
 1029YOPC   C3A14833  11.908   0.606   7.308 -0.1068  0.1320  0.0014
 1029YOPC   C4A14834  11.792   0.744   7.728 -0.2355 -0.1518  0.0423
 1029YOPC   C1B14835  12.027   1.465   6.271  0.1905  0.0557  0.0220
 1029YOPC   C2B14836  12.180   1.446   6.660  0.0745 -0.2233  0.3003
 1029YOPC   D3B14837  12.003   1.195   6.948  0.3656  0.4961 -0.0423
 1029YOPC   C4B14838  12.118   1.152   7.431  0.5001  0.0326  0.0682
 1030YOPC   NC314839   9.971  13.807   5.751 -0.1737  0.0913  0.1574
 1030YOPC   PO414840   9.614  13.564   5.851 -0.0779  0.2825 -0.1672
 1030YOPC   GL114841   9.751  13.220   6.213 -0.1469 -0.3178 -0.2164
 1030YOPC   GL214842   9.539  13.048   6.223  0.0884  0.1407 -0.0924
 1030YOPC   C1A14843   9.720  13.241   6.683  0.0267 -0.0722 -0.0571
 1030YOPC   D2A14844   9.700  13.313   7.145  0.0996 -0.2080  0.1794
 1030YOPC   C3A14845   9.686  13.643   7.329  0.1339  0.0423 -0.0044
 1030YOPC   C4A14846   9.481  13.780   7.678 -0.5305 -0.0372  0.2032
 1030YOPC   C1B14847   9.837  12.764   6.487  0.0756  0.0087  0.0214
 1030YOPC   C2B14848  10.047  12.407   6.432  0.2196 -0.1109 -0.1883
 1030YOPC   D3B14849  10.043  12.380   6.835 -0.1356  0.0967  0.0645
 1030YOPC   C4B14850   9.923  12.245   7.225 -0.4089  0.1494  0.0666
 1031YOPC   NC314851   3.444  14.341   5.626 -0.1752 -0.2831 -0.2738
 1031YOPC   PO414852   3.172  14.566   5.650 -0.1572 -0.1517 -0.0321
 1031YOPC   GL114853   2.999  14.842   5.896 -0.1453  0.0688  0.2578
 1031YOPC   GL214854   3.169  14.992   6.110 -0.0681  0.0082 -0.1495
 1031YOPC   C1A14855   2.802  14.689   6.291  0.0477  0.0235  0.0635
 1031YOPC   D2A14856   2.978  14.702   6.723 -0.2329  0.3845 -0.0732
 1031YOPC   C3A14857   2.670  14.657   7.112  0.1871  0.0965 -0.2103
 1031YOPC   C4A14858   2.319  14.854   7.356 -0.3682  0.3078 -0.1140
 1031YOPC   C1B14859   2.841  15.181   6.417  0.1366  0.4677 -0.1324
 1031YOPC   C2B14860   2.690  15.457   6.567  0.0110  0.1457 -0.1036
 1031YOPC   D3B14861   2.691  15.537   6.994 -0.2900  0.2682  0.0456
 1031YOPC   C4B14862   2.340  15.543   7.241 -0.3910  0.1767 -0.0166
 1032YOPC   NC314863   2.713   1.454   5.559 -0.2742 -0.0816  0.2467
 1032YOPC   PO414864   2.930   1.616   5.918  0.0044 -0.3342  0.2232
 1032YOPC   GL114865   3.004   1.480   6.320  0.2645 -0.4366  0.1917
 1032YOPC   GL214866   3.162   1.253   6.306 -0.2021 -0.0245  0.1183
 1032YOPC   C1A14867   2.929   1.576   6.789  0.0871 -0.2233  0.3175
 1032YOPC   D2A14868   2.959   1.709   7.219 -0.4108 -0.2123 -0.1374
 1032YOPC   C3A14869   3.306   1.901   7.267 -0.0372 -0.1873  0.0984
 1032YOPC   C4A14870   3.672   2.127   7.135 -0.4567 -0.5327 -0.1058
 1032YOPC   C1B14871   3.258   1.078   6.683  0.0264 -0.1339 -0.0541
 1032YOPC   C2B14872   3.086   1.212   7.106 -0.2421 -0.1524 -0.0835
 1032YOPC   D3B14873   3.311   1.355   7.451 -0.0272  0.5418  0.0736
 1032YOPC   C4B14874   3.387   1.672   7.679 -0.1927  0.0210  0.2227
 1033YOPC   NC314875   8.256  13.424   5.756  0.0047 -0.1342  0.1227
 1033YOPC   PO414876   7.776  13.233   5.652  0.2508 -0.2342 -0.0024
 1033YOPC   GL114877   7.762  13.235   6.107 -0.2639  0.3548  0.2785
 1033YOPC   GL214878   7.636  12.913   6.005  0.3886 -0.2525 -0.0095
 1033YOPC   C1A14879   8.008  13.412   6.454  0.0895 -0.0364  0.3315
 1033YOPC   D2A14880   8.180  13.829   6.412  0.3553 -0.2811 -0.0354
 1033YOPC   C3A14881   8.191  14.022   6.822  0.3821  0.0074  0.0117
 1033YOPC   C4A14882   8.027  14.109   7.186  0.0586  0.0518 -0.3049
 1033YOPC   C1B14883   7.639  12.888   6.486  0.0219  0.1606  0.0260
 1033YOPC   C2B14884   7.668  13.098   6.807  0.0703 -0.3529 -0.0193
 1033YOPC   D3B14885   7.419  13.221   7.105  0.1393  0.0550  0.1176
 1033YOPC   C4B14886   7.326  13.402   7.436  0.2678  0.1529  0.1077
 1034YOPC   NC314887   4.312   9.080   5.538 -0.0404  0.1706  0.0703
 1034YOPC   PO414888   4.295   9.141   5.916 -0.1048 -0.2944  0.0217
 1034YOPC   GL114889   4.512   9.220   6.324 -0.1553 -0.4525  0.0830
 1034YOPC   GL214890   4.337   9.566   6.495  0.0469 -0.0300 -0.1336
 1034YOPC   C1A14891   4.816   9.433   6.764 -0.0613 -0.1969 -0.1350
 1034YOPC   D2A14892   5.038   9.426   7.002 -0.1942  0.2408 -0.0175
 1034YOPC   C3A14893   4.964   9.213   7.467 -0.0067 -0.1724 -0.2294
 1034YOPC   C4A14894   5.133   9.047   7.829 -0.3657 -0.2184 -0.0990
 1034YOPC   C1B14895   4.287   9.388   6.874  0.1754 -0.2875 -0.3242
 1034YOPC   C2B14896   4.552   9.410   7.259 -0.2780  0.1484 -0.1238
 1034YOPC   D3B14897   4.485   9.253   7.661 -0.0881  0.0318 -0.2094
 1034YOPC   C4B14898   4.369   9.193   8.105  0.2210 -0.1086 -0.1839
 1035YOPC   NC314899   2.327  17.572   5.615 -0.0987  0.0755  0.3697
 1035YOPC   PO414900   2.203  17.968   5.763 -0.1613 -0.2581 -0.1628
 1035YOPC   GL114901   1.894  18.069   6.088  0.0627  0.0444 -0.1703
 1035YOPC   GL214902   1.664  18.362   6.167  0.2424  0.2225 -0.1310
 1035YOPC   C1A14903   1.989  17.893   6.439  0.1726 -0.1216  0.0888
 1035YOPC   D2A14904   1.941  17.788   6.908  0.3712  0.1647 -0.0847
 1035YOPC   C3A14905   2.237  17.810   7.241 -0.3059  0.1691  0.0224
 1035YOPC   C4A14906   2.225  17.628   7.644  0.2586  0.0111  0.1164
 1035YOPC   C1B14907   1.812  18.327   6.576  0.3096  0.1679 -0.2486
 1035YOPC   C2B14908   1.622  18.169   6.881 -0.1454 -0.2146  0.2174
 1035YOPC   D3B14909   1.523  18.340   7.204 -0.4181 -0.1585 -0.1618
 1035YOPC   C4B14910   1.165  18.560   7.371  0.3023 -0.1378  0.1619
 1036YOPC   NC314911  18.112  16.381   5.994 -0.2892  0.0060  0.1057
 1036YOPC   PO414912  17.732  16.199   6.222 -0.0163 -0.1510  0.2525
 1036YOPC   GL114913  17.654  16.236   6.603  0.1564 -0.1586 -0.0855
 1036YOPC   GL214914  17.674  15.934   6.702 -0.1809 -0.0097 -0.0166
 1036YOPC   C1A14915  17.583  16.171   7.111  0.5636  0.2035 -0.1330
 1036YOPC   D2A14916  17.451  15.867   7.295 -0.1509 -0.1064  0.1675
 1036YOPC   C3A14917  17.743  15.646   7.234 -0.2126 -0.0716 -0.3296
 1036YOPC   C4A14918  17.996  15.379   6.989  0.0648 -0.1858  0.1393
 1036YOPC   C1B14919  17.439  15.580   6.854 -0.1727  0.0400  0.2559
 1036YOPC   C2B14920  17.513  15.255   7.061  0.1607  0.1156  0.2682
 1036YOPC   D3B14921  17.702  15.105   7.468  0.1995  0.3795 -0.1667
 1036YOPC   C4B14922  17.610  14.704   7.780 -0.1160  0.0765 -0.0067
 1037YOPC   NC314923  16.525  16.496   5.653  0.3347  0.2017  0.3365
 1037YOPC   PO414924  16.301  16.625   5.899  0.1143  0.0278  0.0734
 1037YOPC   GL114925  16.165  16.459   6.237  0.1160 -0.0367 -0.3976
 1037YOPC   GL214926  15.860  16.602   6.284 -0.0601 -0.1415  0.0641
 1037YOPC   C1A14927  16.103  16.090   6.518  0.0554  0.3237 -0.2062
 1037YOPC   D2A14928  15.940  16.084   6.869 -0.1867 -0.0283  0.0099
 1037YOPC   C3A14929  16.177  16.055   7.233 -0.1591 -0.0505  0.2121
 1037YOPC   C4A14930  16.353  16.130   7.576  0.4133  0.4365 -0.2574
 1037YOPC   C1B14931  16.034  16.575   6.740  0.0032 -0.2970 -0.1492
 1037YOPC   C2B14932  16.037  16.605   7.161  0.4963 -0.1960  0.2878
 1037YOPC   D3B14933  15.757  16.282   7.404 -0.0983  0.0015 -0.0750
 1037YOPC   C4B14934  15.884  15.996   7.610 -0.0066  0.1983  0.4036
 1038YOPC   NC314935  15.867   0.547   5.563 -0.3658 -0.1179  0.0103
 1038YOPC   PO414936  16.199   0.797   5.445  0.2625  0.1356  0.2133
 1038YOPC   GL114937  16.245   0.969   5.833  0.0035  0.1406  0.0895
 1038YOPC   GL214938  16.099   0.757   6.035 -0.2234 -0.1634 -0.1199
 1038YOPC   C1A14939  16.484   1.164   6.237 -0.1897  0.2998  0.0792
 1038YOPC   D2A14940  16.558   1.211   6.667 -0.1014  0.0765 -0.1479
 1038YOPC   C3A14941  16.238   0.972   7.006 -0.1134  0.1118 -0.1461
 1038YOPC   C4A14942  15.875   0.948   7.324 -0.0897  0.0770  0.0022
 1038YOPC   C1B14943  16.053   0.865   6.459 -0.0020  0.3555  0.0382
 1038YOPC   C2B14944  15.950   0.647   6.856  0.0446  0.2161 -0.2665
 1038YOPC   D3B14945  15.577   0.575   7.110  0.3067 -0.2389  0.0290
 1038YOPC   C4B14946  15.333   0.798   7.349  0.0109 -0.0064 -0.4534
 1039YOPC   NC314947  18.224  13.797   5.971 -0.1509  0.0174  0.1782
 1039YOPC   PO414948  17.843  13.586   6.279 -0.3412 -0.3112  0.0548
 1039YOPC   GL114949  17.918  13.402   6.577  0.1395 -0.1851  0.2491
 1039YOPC   GL214950  17.771  13.122   6.569  0.0162  0.4876 -0.0553
 1039YOPC   C1A14951  17.882  13.283   7.053  0.1119  0.1792  0.0010
 1039YOPC   D2A14952  17.791  13.113   7.457  0.1159 -0.1026 -0.2030
 1039YOPC   C3A14953  17.591  12.654   7.540  0.1529  0.0840 -0.0479
 1039YOPC   C4A14954  17.697  12.350   7.269 -0.0415  0.0573  0.0374
 1039YOPC   C1B14955  17.772  12.815   6.975  0.1180 -0.0781  0.1323
 1039YOPC   C2B14956  18.115  12.643   7.374 -0.0025 -0.2375 -0.1607
 1039YOPC   D3B14957  18.020  12.449   7.733  0.1693 -0.2330  0.3167
 1039YOPC   C4B14958  18.140  12.564   8.157  0.3832  0.0721  0.2427
 1040YOPC   NC314959   3.658   1.200   5.392 -0.0544 -0.2064 -0.0574
 1040YOPC   PO414960   3.838   0.858   5.639 -0.0864  0.0363 -0.1996
 1040YOPC   GL114961   3.938   0.621   5.941  0.2452 -0.2177 -0.1037
 1040YOPC   GL214962   3.620   0.514   6.124 -0.0666 -0.1055 -0.3270
 1040YOPC   C1A14963   4.049   0.480   6.329  0.0418  0.4117  0.3365
 1040YOPC   D2A14964   4.325   0.508   6.797 -0.1951  0.1627 -0.2312
 1040YOPC   C3A14965   4.364   0.423   7.247 -0.0849  0.1696 -0.1578
 1040YOPC   C4A14966   4.132   0.477   7.566 -0.0362 -0.0608  0.0938
 1040YOPC   C1B14967   3.643   0.707   6.519 -0.1489 -0.0366  0.4671
 1040YOPC   C2B14968   3.815   0.741   6.836 -0.0345  0.1223  0.0407
 1040YOPC   D3B14969   3.876   0.494   7.093  0.0616 -0.2162  0.2278
 1040YOPC   C4B14970   3.775   0.213   7.421 -0.0770  0.0694  0.0417
 1041YOPC   NC314971  16.272   7.810   5.483  0.0238  0.0704  0.1610
 1041YOPC   PO414972  16.086   8.192   5.587 -0.0269  0.0511  0.0073
 1041YOPC   GL114973  16.186   8.198   5.985 -0.2243  0.2875 -0.1186
 1041YOPC   GL214974  15.896   7.959   6.053 -0.2544  0.2158 -0.1514
 1041YOPC   C1A14975  16.492   8.263   6.227 -0.0782 -0.0739  0.4140
 1041YOPC   D2A14976  16.802   8.512   6.477 -0.0933  0.0178 -0.1919
 1041YOPC   C3A14977  17.070   8.390   6.829  0.1806 -0.2032 -0.0698
 1041YOPC   C4A14978  17.240   8.412   7.163  0.2618 -0.3484 -0.0648
 1041YOPC   C1B14979  16.118   7.955   6.481 -0.0870  0.2944 -0.0659
 1041YOPC   C2B14980  16.146   7.845   6.803 -0.0803  0.1595  0.0665
 1041YOPC   D3B14981  16.089   7.927   7.180  0.2216 -0.3601 -0.0158
 1041YOPC   C4B14982  15.847   7.997   7.507 -0.2067 -0.0104  0.0582
 1042YOPC   NC314983  18.130   4.837   5.436 -0.3106 -0.1445 -0.2394
 1042YOPC   PO414984  18.255   5.214   5.818  0.4492 -0.0862  0.1135
 1042YOPC   GL114985  18.199   5.258   6.222  0.1981 -0.2814 -0.0145
 1042YOPC   GL214986  18.429   5.394   6.375 -0.0697  0.4060  0.0469
 1042YOPC   C1A14987  18.078   5.003   6.576 -0.0106 -0.0295  0.1194
 1042YOPC   D2A14988  17.853   5.187   7.003 -0.1244 -0.1180 -0.1542
 1042YOPC   C3A14989  18.060   4.872   7.296  0.0170 -0.3444 -0.1308
 1042YOPC   C4A14990  17.925   4.633   7.610 -0.0814 -0.1815  0.1194
 1042YOPC   C1B14991  18.643   5.538   6.827 -0.0472 -0.0999 -0.1587
 1042YOPC   C2B14992  19.050   5.445   7.090 -0.1668 -0.1705  0.0007
 1042YOPC   D3B14993  19.305   5.582   7.422 -0.4364 -0.2404  0.1457
 1042YOPC   C4B14994  19.418   6.063   7.439 -0.3196  0.0533  0.1070
 1043YOPC   NC314995   2.460   8.564   6.118  0.0282  0.0152 -0.0628
 1043YOPC   PO414996   2.176   8.473   6.271 -0.1085  0.3160  0.0364
 1043YOPC   GL114997   1.977   8.630   6.696 -0.0002  0.1044 -0.1532
 1043YOPC   GL214998   2.133   8.869   6.745 -0.0275 -0.0666 -0.1396
 1043YOPC   C1A14999   1.893   8.483   7.165 -0.1497  0.3139 -0.0704
 1043YOPC   D2A15000   1.648   8.521   7.607  0.0387 -0.0927  0.1159
 1043YOPC   C3A15001   1.615   8.246   8.022 -0.0985  0.1989 -0.4617
 1043YOPC   C4A15002   1.913   7.858   8.140  0.3114  0.2377 -0.0570
 1043YOPC   C1B15003   2.345   8.626   7.031  0.0389  0.0529 -0.1480
 1043YOPC   C2B15004   2.542   8.637   7.391 -0.3316  0.1701 -0.0076
 1043YOPC   D3B15005   2.634   8.418   7.820 -0.2731 -0.2534 -0.1005
 1043YOPC   C4B15006   2.744   8.167   8.145 -0.2444  0.0915 -0.0869
 1044YOPC   NC315007  13.378   5.471   5.521  0.2064  0.2609 -0.1594
 1044YOPC   PO415008  13.201   5.511   5.963  0.1017  0.0735  0.0164
 1044YOPC   GL115009  13.281   5.315   6.267  0.1684 -0.3059 -0.0326
 1044YOPC   GL215010  13.472   5.034   6.303 -0.0629  0.0761  0.1835
 1044YOPC   C1A15011  12.992   5.115   6.672 -0.3587 -0.1435  0.2862
 1044YOPC   D2A15012  12.617   4.946   6.854  0.0266 -0.4955 -0.2363
 1044YOPC   C3A15013  12.444   5.126   7.261 -0.1586 -0.1152  0.0196
 1044YOPC   C4A15014  12.594   5.109   7.665 -0.2687  0.1155 -0.1578
 1044YOPC   C1B15015  13.628   5.107   6.622 -0.0185  0.2094 -0.2338
 1044YOPC   C2B15016  13.853   4.972   6.977 -0.0896  0.3049 -0.1322
 1044YOPC   D3B15017  14.042   4.561   6.973  0.0464 -0.1767 -0.0026
 1044YOPC   C4B15018  14.396   4.373   7.130 -0.1271  0.0335 -0.4075
 1045YOPC   NC315019  13.409   2.733   5.497 -0.2801 -0.1100  0.0661
 1045YOPC   PO415020  13.079   3.038   5.471  0.1561  0.0996 -0.0519
 1045YOPC   GL115021  12.723   3.021   5.723 -0.3888 -0.1824  0.2120
 1045YOPC   GL215022  12.711   2.799   5.829  0.1218 -0.1242 -0.0220
 1045YOPC   C1A15023  12.748   3.175   6.135 -0.0615  0.0567  0.1602
 1045YOPC   D2A15024  13.137   3.200   6.515  0.1783  0.1397  0.4101
 1045YOPC   C3A15025  13.153   3.541   6.887 -0.0903 -0.2190  0.1330
 1045YOPC   C4A15026  13.566   3.738   7.100  0.3995 -0.0330 -0.1359
 1045YOPC   C1B15027  12.406   2.739   6.177  0.4736 -0.0426 -0.1559
 1045YOPC   C2B15028  12.102   2.676   6.511 -0.0867  0.2718 -0.1771
 1045YOPC   D3B15029  11.706   2.898   6.547 -0.0390  0.0529 -0.0929
 1045YOPC   C4B15030  11.422   3.149   6.404 -0.0767  0.2035 -0.2515
 1046YOPC   NC315031   9.213   1.523   5.598 -0.0386  0.0571  0.0091
 1046YOPC   PO415032   9.058   1.998   5.625 -0.2768 -0.0555  0.1274
 1046YOPC   GL115033   9.130   2.005   6.090 -0.0383 -0.0103 -0.0050
 1046YOPC   GL215034   8.937   2.159   6.286  0.1500  0.1896 -0.1509
 1046YOPC   C1A15035   9.414   2.238   6.442  0.1713  0.0533  0.1762
 1046YOPC   D2A15036   9.709   2.250   6.662 -0.1556 -0.0780  0.2909
 1046YOPC   C3A15037   9.929   1.807   6.621 -0.0703 -0.3534 -0.2584
 1046YOPC   C4A15038   9.824   1.423   6.628  0.0676 -0.2995 -0.0411
 1046YOPC   C1B15039   8.947   2.430   6.672 -0.1566  0.0639  0.0437
 1046YOPC   C2B15040   9.213   2.363   6.978 -0.1152  0.0818  0.0838
 1046YOPC   D3B15041   9.192   2.408   7.388  0.0608 -0.1017 -0.0839
 1046YOPC   C4B15042   8.837   2.517   7.691  0.1718  0.0531  0.1437
 1047YOPC   NC315043  10.868   8.889   5.415  0.0639  0.1086  0.1584
 1047YOPC   PO415044  10.513   8.719   5.644 -0.0261  0.3704 -0.0861
 1047YOPC   GL115045  10.310   8.899   6.009 -0.1956 -0.2361 -0.3169
 1047YOPC   GL215046  10.410   9.056   6.284 -0.1114  0.0334 -0.2309
 1047YOPC   C1A15047  10.076   8.743   6.344 -0.0870  0.2638 -0.0660
 1047YOPC   D2A15048   9.947   8.322   6.321 -0.1067 -0.2762  0.0309
 1047YOPC   C3A15049  10.372   8.075   6.475 -0.4193 -0.1328  0.1046
 1047YOPC   C4A15050  10.751   8.230   6.482 -0.2995  0.2229 -0.3682
 1047YOPC   C1B15051  10.438   8.661   6.630 -0.0402 -0.0318  0.0666
 1047YOPC   C2B15052  10.602   8.410   6.969  0.0130  0.2026 -0.0646
 1047YOPC   D3B15053  10.348   8.337   7.342 -0.0592  0.0565  0.0938
 1047YOPC   C4B15054   9.970   8.489   7.630  0.0409  0.0501  0.2382
 1048YOPC   NC315055  14.031  16.412   5.786  0.1077  0.3055 -0.1186
 1048YOPC   PO415056  14.077  16.874   5.618 -0.1279 -0.1170 -0.2576
 1048YOPC   GL115057  13.849  16.841   6.008 -0.1798  0.1856 -0.0786
 1048YOPC   GL215058  13.667  16.551   6.076  0.0883  0.1571 -0.1263
 1048YOPC   C1A15059  13.904  17.112   6.412 -0.0202  0.1012 -0.0932
 1048YOPC   D2A15060  14.082  16.956   6.784  0.0264  0.1369 -0.0472
 1048YOPC   C3A15061  14.171  17.294   7.116  0.4152  0.0785  0.1465
 1048YOPC   C4A15062  13.993  17.655   7.271  0.0777  0.0116 -0.1911
 1048YOPC   C1B15063  13.762  16.590   6.458  0.1529  0.0461 -0.0371
 1048YOPC   C2B15064  13.884  16.498   6.822 -0.0330 -0.1390 -0.1649
 1048YOPC   D3B15065  13.634  16.811   7.109  0.0278  0.0646 -0.0289
 1048YOPC   C4B15066  13.515  16.952   7.556  0.0611  0.3107  0.0356
 1049YOPC   NC315067  15.796  14.842   5.642 -0.0635 -0.1966 -0.1441
 1049YOPC   PO415068  16.297  14.984   5.791  0.1830  0.1074  0.0541
 1049YOPC   GL115069  16.254  15.030   6.315 -0.2539  0.0991  0.3208
 1049YOPC   GL215070  16.385  15.235   6.336 -0.1902 -0.2967 -0.1181
 1049YOPC   C1A15071  15.869  15.074   6.656 -0.3420 -0.0357  0.1087
 1049YOPC   D2A15072  15.608  14.911   6.535  0.1888  0.0156 -0.0239
 1049YOPC   C3A15073  15.428  14.562   6.814  0.1960  0.0468  0.0030
 1049YOPC   C4A15074  15.604  14.251   7.054 -0.0920 -0.1513  0.0059
 1049YOPC   C1B15075  16.358  15.164   6.789  0.1869  0.1069  0.0288
 1049YOPC   C2B15076  16.115  15.185   7.082  0.1799  0.1978  0.3801
 1049YOPC   D3B15077  16.011  15.524   7.371 -0.1787  0.0020 -0.4640
 1049YOPC   C4B15078  16.308  15.644   7.485  0.1401 -0.2322  0.0443
 1050YOPC   NC315079   8.489   0.933   5.644  0.1009 -0.0430  0.2556
 1050YOPC   PO415080   8.334   0.642   5.812  0.1837 -0.2819  0.7249
 1050YOPC   GL115081   8.786   0.642   5.986  0.0156  0.1711 -0.1400
 1050YOPC   GL215082   8.727   0.356   5.972 -0.0870  0.1364  0.1156
 1050YOPC   C1A15083   9.085   0.536   6.257  0.2999 -0.0170 -0.2974
 1050YOPC   D2A15084   9.444   0.612   6.540 -0.2703 -0.1424 -0.1033
 1050YOPC   C3A15085   9.465   0.307   6.905 -0.0161 -0.2379 -0.4319
 1050YOPC   C4A15086   9.525   0.170   7.354 -0.0281 -0.0253  0.1519
 1050YOPC   C1B15087   8.617   0.289   6.452  0.0712  0.0231 -0.3354
 1050YOPC   C2B15088   8.485   0.385   6.844  0.0123  0.0226  0.1013
 1050YOPC   D3B15089   8.593   0.607   7.182  0.2889 -0.0739 -0.3624
 1050YOPC   C4B15090   8.774   0.736   7.581  0.0425  0.4254  0.0177
 1051YOPC   NC315091  13.829   4.203   5.759 -0.3045  0.1765  0.0922
 1051YOPC   PO415092  13.784   4.682   5.924 -0.2552  0.4202  0.0357
 1051YOPC   GL115093  13.809   4.564   6.281  0.0790 -0.2282  0.0654
 1051YOPC   GL215094  13.813   4.229   6.276  0.0445 -0.0601 -0.0573
 1051YOPC   C1A15095  13.674   4.585   6.662  0.0663 -0.1038 -0.0251
 1051YOPC   D2A15096  13.594   4.609   7.239 -0.0011 -0.0139  0.0369
 1051YOPC   C3A15097  13.693   4.328   7.597  0.1264 -0.0025  0.1282
 1051YOPC   C4A15098  14.015   4.192   7.841  0.1674  0.0407 -0.2288
 1051YOPC   C1B15099  14.185   4.321   6.538 -0.0819  0.1696  0.1339
 1051YOPC   C2B15100  14.483   4.084   6.703  0.0810 -0.2086 -0.1427
 1051YOPC   D3B15101  14.423   3.853   7.198  0.1169  0.0412 -0.1149
 1051YOPC   C4B15102  14.475   4.208   7.553  0.0445  0.1634 -0.0417
 1052YOPC   NC315103   9.255   3.086   5.470 -0.1316 -0.0642 -0.3361
 1052YOPC   PO415104   9.282   2.921   5.879  0.1888  0.1797  0.0290
 1052YOPC   GL115105   9.663   2.872   6.075 -0.1175 -0.0230  0.1263
 1052YOPC   GL215106   9.939   3.133   6.143 -0.0674 -0.1997 -0.0531
 1052YOPC   C1A15107   9.985   2.583   6.277  0.3784  0.3561 -0.0951
 1052YOPC   D2A15108  10.082   2.651   6.783  0.0122  0.1669 -0.2098
 1052YOPC   C3A15109   9.785   2.569   7.055 -0.1824 -0.0910  0.0616
 1052YOPC   C4A15110   9.379   2.865   7.033 -0.1643  0.1093  0.0661
 1052YOPC   C1B15111   9.781   3.446   6.282 -0.1285 -0.0405 -0.0918
 1052YOPC   C2B15112   9.828   3.854   6.489  0.0113  0.4115  0.1441
 1052YOPC   D3B15113   9.887   3.962   6.908 -0.0988  0.0405 -0.0169
 1052YOPC   C4B15114   9.916   3.857   7.311 -0.0951 -0.2038 -0.1886
 1053YOPC   NC315115  17.843  15.736   6.265  0.0232 -0.2274  0.2991
 1053YOPC   PO415116  18.248  15.553   6.252 -0.1019  0.1540 -0.1191
 1053YOPC   GL115117  18.368  15.437   6.610 -0.1762  0.2937 -0.0333
 1053YOPC   GL215118  18.350  15.778   6.817  0.3319  0.1475 -0.0413
 1053YOPC   C1A15119  18.463  15.349   7.085  0.0482 -0.1954  0.3451
 1053YOPC   D2A15120  18.749  15.397   7.376 -0.2471  0.0788  0.4070
 1053YOPC   C3A15121  18.933  15.599   7.747  0.1483 -0.2085  0.0662
 1053YOPC   C4A15122  19.337  15.669   7.996  0.2239  0.2771 -0.0998
 1053YOPC   C1B15123  18.223  15.740   7.295 -0.3183 -0.1404  0.1314
 1053YOPC   C2B15124  18.257  15.706   7.754  0.0237 -0.1233 -0.0377
 1053YOPC   D3B15125  18.098  16.018   8.067  0.0946 -0.0401  0.1505
 1053YOPC   C4B15126  18.123  16.430   7.960 -0.1055  0.0787 -0.1927
 1054YOPC   NC315127   1.001   8.205   6.157 -0.2705  0.0106  0.0515
 1054YOPC   PO415128   0.611   8.418   6.191 -0.2393  0.0270  0.1577
 1054YOPC   GL115129   0.882   8.534   6.511 -0.1530 -0.2975  0.0251
 1054YOPC   GL215130   0.955   8.893   6.548 -0.1988  0.0778 -0.0739
 1054YOPC   C1A15131   0.874   8.593   6.960 -0.2843  0.0661  0.2627
 1054YOPC   D2A15132   0.847   8.309   7.407 -0.0672 -0.1487 -0.1758
 1054YOPC   C3A15133   0.545   8.016   7.707  0.2915  0.1947  0.0914
 1054YOPC   C4A15134   0.609   8.052   8.126 -0.1035 -0.2548 -0.0341
 1054YOPC   C1B15135   0.779   9.052   6.983  0.0043 -0.4954  0.3758
 1054YOPC   C2B15136   0.862   9.479   7.108 -0.1329  0.0003 -0.1397
 1054YOPC   D3B15137   0.615   9.780   7.359  0.3986 -0.3062  0.1400
 1054YOPC   C4B15138   0.268   9.992   7.384 -0.0046 -0.2133 -0.1237
 1055YOPC   NC315139   4.155   2.291   5.789  0.1115  0.0001  0.1905
 1055YOPC   PO415140   4.484   1.934   5.764  0.2258 -0.0526  0.0282
 1055YOPC   GL115141   4.335   1.994   6.168 -0.1409  0.1517  0.1071
 1055YOPC   GL215142   4.497   2.313   6.249  0.2813  0.2353  0.3202
 1055YOPC   C1A15143   4.268   2.100   6.580 -0.0034 -0.0127  0.2193
 1055YOPC   D2A15144   4.422   2.330   6.847  0.0760  0.1435 -0.3250
 1055YOPC   C3A15145   4.396   2.242   7.257  0.0271 -0.0749 -0.0786
 1055YOPC   C4A15146   4.070   2.015   7.427  0.0135  0.1708 -0.0248
 1055YOPC   C1B15147   4.770   2.380   6.356 -0.0627  0.0023  0.3180
 1055YOPC   C2B15148   5.173   2.522   6.525  0.0246  0.0089 -0.0214
 1055YOPC   D3B15149   5.184   2.645   6.846  0.0309  0.0442 -0.1406
 1055YOPC   C4B15150   5.368   2.429   7.295  0.1810 -0.2428 -0.3001
 1056YOPC   NC315151  17.207   5.049   5.412 -0.1623  0.0658  0.0151
 1056YOPC   PO415152  17.185   4.887   5.901  0.0548  0.1087  0.3552
 1056YOPC   GL115153  17.488   4.705   6.305  0.1403 -0.3759  0.1490
 1056YOPC   GL215154  17.773   4.589   6.439 -0.1838 -0.1134  0.0620
 1056YOPC   C1A15155  17.250   4.543   6.819  0.0189  0.0118  0.0182
 1056YOPC   D2A15156  16.815   4.690   6.886  0.0907 -0.2709 -0.0219
 1056YOPC   C3A15157  16.425   4.489   7.089  0.3118 -0.1221 -0.1200
 1056YOPC   C4A15158  16.363   4.182   7.480  0.0354 -0.2186 -0.1832
 1056YOPC   C1B15159  17.773   4.725   6.865 -0.1859 -0.2141 -0.4262
 1056YOPC   C2B15160  17.631   4.478   7.208  0.0661 -0.3993  0.2779
 1056YOPC   D3B15161  17.195   4.369   7.353 -0.0650 -0.0670 -0.0695
 1056YOPC   C4B15162  16.802   4.510   7.451 -0.0010  0.1705  0.0212
 1057YOPC   NC315163   2.425   9.810   5.954 -0.0662 -0.3108 -0.1010
 1057YOPC   PO415164   2.605   9.400   6.052 -0.3366  0.3986 -0.2919
 1057YOPC   GL115165   2.668   9.607   6.472 -0.2868 -0.0717 -0.0026
 1057YOPC   GL215166   2.743   9.344   6.560  0.4524 -0.0508 -0.0717
 1057YOPC   C1A15167   2.775   9.785   6.911  0.1264 -0.0803  0.2951
 1057YOPC   D2A15168   2.983   9.836   7.346 -0.0408  0.2401  0.2217
 1057YOPC   C3A15169   3.134   9.668   7.888  0.2931  0.0661  0.0655
 1057YOPC   C4A15170   3.171   9.441   8.173  0.2608  0.1461 -0.0522
 1057YOPC   C1B15171   2.563   9.273   6.918  0.2454 -0.1962 -0.0393
 1057YOPC   C2B15172   2.587   9.170   7.377 -0.1145 -0.1987 -0.2875
 1057YOPC   D3B15173   2.140   8.922   7.453  0.1192  0.3084 -0.1863
 1057YOPC   C4B15174   1.919   8.862   7.863  0.2433  0.2876 -0.0567
 1058YOPC   NC315175   3.193   8.552   6.074  0.2196 -0.0633  0.1093
 1058YOPC   PO415176   2.837   8.238   6.213  0.1507 -0.0013  0.2263
 1058YOPC   GL115177   2.912   8.345   6.569 -0.3123  0.1168 -0.0877
 1058YOPC   GL215178   3.153   8.646   6.586 -0.0098  0.3217 -0.2091
 1058YOPC   C1A15179   2.904   8.339   7.066  0.3496 -0.1200 -0.0644
 1058YOPC   D2A15180   3.026   8.279   7.513 -0.0485  0.2439  0.0432
 1058YOPC   C3A15181   2.933   7.944   7.778 -0.0831 -0.2743  0.2035
 1058YOPC   C4A15182   3.040   7.646   8.280 -0.0017  0.0466  0.0403
 1058YOPC   C1B15183   2.845   8.855   6.965  0.0410 -0.1070 -0.1344
 1058YOPC   C2B15184   2.991   8.829   7.446  0.0613 -0.3134 -0.1363
 1058YOPC   D3B15185   2.960   9.168   7.737  0.1027  0.2927  0.2879
 1058YOPC   C4B15186   2.861   9.068   8.201 -0.1556  0.1132 -0.1023
 1059YOPC   NC315187  13.261  14.041   5.658 -0.0387  0.1679 -0.2648
 1059YOPC   PO415188  13.462  14.393   5.755  0.0421  0.1694 -0.0222
 1059YOPC   GL115189  13.476  14.082   6.154  0.0806  0.2529 -0.3797
 1059YOPC   GL215190  13.182  13.974   6.192  0.1783  0.2157 -0.2566
 1059YOPC   C1A15191  13.527  13.871   6.573  0.0708 -0.0851 -0.0696
 1059YOPC   D2A15192  13.454  13.454   6.817 -0.0194  0.0296  0.1110
 1059YOPC   C3A15193  13.553  13.128   6.656  0.0632  0.0342 -0.0599
 1059YOPC   C4A15194  13.365  12.803   6.711  0.0846  0.0070  0.1703
 1059YOPC   C1B15195  13.053  13.959   6.636  0.0047 -0.1516 -0.1782
 1059YOPC   C2B15196  13.203  13.885   7.014 -0.0827  0.0626 -0.1804
 1059YOPC   D3B15197  13.714  13.856   7.060  0.3952  0.0696  0.1787
 1059YOPC   C4B15198  14.161  13.923   6.928 -0.1305  0.2578 -0.0988
 1060YOPC   NC315199  11.314   6.669   5.704 -0.0219  0.1374 -0.0063
 1060YOPC   PO415200  11.190   7.118   5.660 -0.3904  0.3371  0.1894
 1060YOPC   GL115201  11.166   6.972   6.050  0.0189  0.1633 -0.2099
 1060YOPC   GL215202  11.430   7.246   6.188  0.2265 -0.2138  0.3653
 1060YOPC   C1A15203  10.927   7.283   6.374  0.2364 -0.4522  0.1821
 1060YOPC   D2A15204  10.845   7.602   6.682  0.0992  0.2373  0.0659
 1060YOPC   C3A15205  10.369   7.664   6.810 -0.0559 -0.2826  0.0178
 1060YOPC   C4A15206  10.089   7.538   7.204 -0.0861  0.0752 -0.2575
 1060YOPC   C1B15207  11.334   7.245   6.625  0.2351 -0.2243  0.2367
 1060YOPC   C2B15208  11.331   7.166   7.025  0.1188  0.3183 -0.2238
 1060YOPC   D3B15209  10.970   7.432   7.158  0.0980 -0.2896 -0.4127
 1060YOPC   C4B15210  10.506   7.295   7.230  0.0165 -0.0546  0.1035
 1061YOPC   NC315211   3.481  17.703   5.815 -0.0185  0.2607 -0.0091
 1061YOPC   PO415212   3.833  17.432   5.789  0.3432 -0.0364  0.1403
 1061YOPC   GL115213   3.619  17.270   6.172 -0.0105  0.1638  0.3260
 1061YOPC   GL215214   3.456  17.020   6.241 -0.0144 -0.0502  0.2704
 1061YOPC   C1A15215   3.511  17.296   6.628  0.2511 -0.0486  0.0782
 1061YOPC   D2A15216   3.398  17.486   6.876  0.0297  0.1743  0.0464
 1061YOPC   C3A15217   3.557  17.164   7.181  0.1126 -0.0357 -0.2473
 1061YOPC   C4A15218   3.725  16.869   7.374  0.0021  0.3101 -0.0061
 1061YOPC   C1B15219   3.468  16.764   6.712  0.3131  0.0474  0.3163
 1061YOPC   C2B15220   3.376  16.581   7.110  0.2092  0.0388 -0.3309
 1061YOPC   D3B15221   3.399  16.317   7.396  0.0863  0.0298  0.0977
 1061YOPC   C4B15222   3.229  15.887   7.569  0.0484 -0.0066  0.2696
 1062YOPC   NC315223  16.219  12.488   5.723 -0.3917 -0.2465 -0.0765
 1062YOPC   PO415224  15.887  12.726   5.795 -0.1426  0.1509 -0.0300
 1062YOPC   GL115225  16.062  12.719   6.098  0.1032  0.1111 -0.2776
 1062YOPC   GL215226  15.808  12.645   6.303 -0.2656 -0.3980  0.0140
 1062YOPC   C1A15227  16.431  12.789   6.392  0.2678  0.1250  0.0084
 1062YOPC   D2A15228  16.866  12.900   6.540 -0.1224 -0.1000  0.2261
 1062YOPC   C3A15229  16.910  13.077   6.913  0.1512  0.0281  0.2800
 1062YOPC   C4A15230  16.929  13.521   6.950  0.0887  0.5059 -0.0824
 1062YOPC   C1B15231  15.788  12.148   6.336 -0.1940  0.0265 -0.1685
 1062YOPC   C2B15232  16.108  11.985   6.657  0.1347  0.0688  0.2890
 1062YOPC   D3B15233  16.038  11.753   6.992 -0.1219  0.1204  0.1453
 1062YOPC   C4B15234  15.763  11.874   7.365  0.1626 -0.2157  0.1320
 1063YOPC   NC315235   3.721  18.373   5.397 -0.1266  0.0022 -0.0444
 1063YOPC   PO415236   3.805  17.943   5.570 -0.3919  0.1006  0.1916
 1063YOPC   GL115237   3.827  18.098   6.002 -0.0660  0.0176 -0.0371
 1063YOPC   GL215238   3.559  18.118   6.170 -0.0311  0.0821  0.0297
 1063YOPC   C1A15239   4.016  18.062   6.494 -0.0430  0.0316 -0.1500
 1063YOPC   D2A15240   4.190  18.081   6.889 -0.1674 -0.1453 -0.0603
 1063YOPC   C3A15241   4.550  17.750   6.851  0.2253  0.0011 -0.1478
 1063YOPC   C4A15242   4.793  17.516   6.566 -0.2436  0.0540 -0.1078
 1063YOPC   C1B15243   3.334  18.211   6.457  0.3364  0.1104 -0.2819
 1063YOPC   C2B15244   3.255  17.987   6.911 -0.3133 -0.1076 -0.1097
 1063YOPC   D3B15245   3.199  17.964   7.397  0.2998  0.1669  0.2561
 1063YOPC   C4B15246   3.511  17.958   7.754 -0.3581  0.2761 -0.0176
 1064YOPC   NC315247  17.962   9.519   6.275 -0.1249  0.0018  0.0232
 1064YOPC   PO415248  18.249   9.142   6.158 -0.0387 -0.2178 -0.2157
 1064YOPC   GL115249  18.210   8.880   6.557 -0.1761  0.2046  0.3548
 1064YOPC   GL215250  17.979   8.976   6.736  0.0885 -0.0727 -0.3000
 1064YOPC   C1A15251  18.418   8.748   6.973  0.1314 -0.2754 -0.0685
 1064YOPC   D2A15252  18.661   8.454   7.231 -0.3140 -0.0130 -0.2142
 1064YOPC   C3A15253  18.979   8.336   7.198 -0.1802  0.0168  0.1139
 1064YOPC   C4A15254  19.142   8.264   6.822 -0.0068  0.2166 -0.1628
 1064YOPC   C1B15255  17.797   9.074   7.166  0.1571  0.0775  0.1222
 1064YOPC   C2B15256  17.384   8.961   7.225 -0.0798 -0.3104  0.0872
 1064YOPC   D3B15257  17.133   8.930   7.663 -0.1305  0.1690 -0.3504
 1064YOPC   C4B15258  16.908   8.670   7.940  0.0093 -0.2331 -0.1732
 1065YOPC   NC315259  17.377  13.609   6.110 -0.2987  0.1216  0.0422
 1065YOPC   PO415260  17.197  14.039   6.052 -0.0934 -0.1312 -0.0559
 1065YOPC   GL115261  17.218  13.933   6.541  0.4732  0.2123 -0.3136
 1065YOPC   GL215262  17.552  13.874   6.630 -0.2248 -0.1605 -0.0918
 1065YOPC   C1A15263  17.003  13.948   6.771  0.0628 -0.1032 -0.0220
 1065YOPC   D2A15264  16.948  13.969   7.206  0.1057  0.0066  0.1535
 1065YOPC   C3A15265  17.037  13.587   7.467 -0.1409 -0.2176 -0.3194
 1065YOPC   C4A15266  16.737  13.223   7.464  0.2749 -0.0136  0.2109
 1065YOPC   C1B15267  17.430  13.440   6.728  0.0568 -0.1145  0.0845
 1065YOPC   C2B15268  17.346  12.984   6.710  0.1744  0.4626 -0.1314
 1065YOPC   D3B15269  17.202  12.701   7.156 -0.0257  0.1299  0.1716
 1065YOPC   C4B15270  16.806  12.764   7.356 -0.1428 -0.0689  0.1650
 1066YOPC   NC315271   0.818   4.504   5.293  0.0180 -0.3383 -0.3410
 1066YOPC   PO415272   0.755   4.664   5.715  0.2005 -0.3662  0.1593
 1066YOPC   GL115273   0.723   4.785   6.137  0.1758  0.2240 -0.0869
 1066YOPC   GL215274   0.531   4.802   6.286 -0.2067  0.3095  0.0466
 1066YOPC   C1A15275   0.913   4.693   6.621 -0.0231 -0.2669 -0.2986
 1066YOPC   D2A15276   1.030   4.811   7.083  0.2552 -0.0584  0.1042
 1066YOPC   C3A15277   1.558   4.702   7.171 -0.2594 -0.0588  0.0377
 1066YOPC   C4A15278   2.034   4.610   7.397  0.1157 -0.1099 -0.1123
 1066YOPC   C1B15279   0.400   4.536   6.661 -0.1434  0.1224 -0.0556
 1066YOPC   C2B15280   0.601   4.351   6.995 -0.0350 -0.3126 -0.2226
 1066YOPC   D3B15281   0.687   4.539   7.370  0.1326  0.2448  0.2364
 1066YOPC   C4B15282   0.356   4.624   7.691 -0.0389 -0.0652  0.0271
 1067YOPC   NC315283  17.883  15.145   6.322 -0.7207  0.1020  0.0248
 1067YOPC   PO415284  17.934  14.637   6.279  0.1242  0.2236  0.0499
 1067YOPC   GL115285  17.640  14.715   6.551  0.0884 -0.0437 -0.2644
 1067YOPC   GL215286  17.735  14.379   6.654  0.2592 -0.2606  0.1888
 1067YOPC   C1A15287  17.610  14.743   7.045 -0.0175  0.1263  0.1996
 1067YOPC   D2A15288  17.589  14.387   7.384  0.3735 -0.2494  0.3291
 1067YOPC   C3A15289  17.458  13.936   7.606 -0.0511  0.1577 -0.2164
 1067YOPC   C4A15290  17.528  13.553   7.753  0.0874 -0.0193 -0.0759
 1067YOPC   C1B15291  17.611  14.278   6.873  0.0067  0.3019  0.1852
 1067YOPC   C2B15292  17.460  14.006   7.108  0.0879 -0.0142 -0.1694
 1067YOPC   D3B15293  17.386  13.669   7.145 -0.1652 -0.0204  0.2670
 1067YOPC   C4B15294  17.294  13.261   7.223 -0.1836  0.1258  0.0749
 1068YOPC   NC315295   8.624  18.231   5.407 -0.0046  0.0293  0.0179
 1068YOPC   PO415296   8.956  17.909   5.484  0.1280  0.1388  0.1648
 1068YOPC   GL115297   9.144  17.879   5.933 -0.1805 -0.0418 -0.4085
 1068YOPC   GL215298   9.369  17.719   6.043 -0.1627 -0.4846  0.0688
 1068YOPC   C1A15299   9.016  17.948   6.443 -0.2287  0.1901 -0.1208
 1068YOPC   D2A15300   8.791  17.961   6.824  0.2440 -0.1065 -0.0442
 1068YOPC   C3A15301   8.800  18.094   7.221  0.3206 -0.0052 -0.3429
 1068YOPC   C4A15302   8.867  18.023   7.767  0.2864 -0.1732 -0.0023
 1068YOPC   C1B15303   9.565  17.726   6.365  0.1211  0.0873  0.0263
 1068YOPC   C2B15304   9.583  17.583   6.746 -0.2968 -0.3655  0.1694
 1068YOPC   D3B15305   9.606  17.345   7.053  0.0521 -0.1465  0.0500
 1068YOPC   C4B15306   9.442  17.251   7.382  0.1771 -0.0270 -0.1508
 1069YOPC   NC315307  13.120   7.709   5.553  0.2586 -0.0815 -0.0001
 1069YOPC   PO415308  13.331   7.285   5.701  0.2273  0.0260  0.0984
 1069YOPC   GL115309  13.327   7.139   6.042  0.0565 -0.1734  0.0289
 1069YOPC   GL215310  13.255   6.782   6.126  0.0413  0.0411  0.0373
 1069YOPC   C1A15311  13.492   7.105   6.476  0.1222  0.1589 -0.0334
 1069YOPC   D2A15312  13.485   7.171   6.976  0.1367  0.0014 -0.0667
 1069YOPC   C3A15313  13.208   7.356   7.129 -0.1037 -0.1720  0.0671
 1069YOPC   C4A15314  12.762   7.370   7.125 -0.0998 -0.4295  0.0706
 1069YOPC   C1B15315  13.027   6.818   6.491  0.3726  0.0146  0.3845
 1069YOPC   C2B15316  13.166   6.837   6.800 -0.0652 -0.0986 -0.2680
 1069YOPC   D3B15317  13.283   6.380   6.848 -0.0693 -0.0135 -0.1000
 1069YOPC   C4B15318  13.208   6.091   6.589 -0.1876  0.2046  0.4217
 1070YOPC   NC315319  18.482   6.684   6.058 -0.3209  0.3307  0.0652
 1070YOPC   PO415320  18.415   6.234   6.055 -0.0448  0.0759 -0.1045
 1070YOPC   GL115321  18.599   6.262   6.445  0.1501 -0.0744 -0.1270
 1070YOPC   GL215322  18.878   6.464   6.475 -0.1294  0.0429  0.2385
 1070YOPC   C1A15323  18.573   6.007   6.800  0.0526 -0.3508  0.0634
 1070YOPC   D2A15324  18.848   5.904   7.187  0.4280  0.0770 -0.1735
 1070YOPC   C3A15325  18.979   6.068   7.676  0.0683 -0.2402 -0.2750
 1070YOPC   C4A15326  19.222   6.386   7.761 -0.1302 -0.1993  0.0060
 1070YOPC   C1B15327  18.710   6.570   6.904  0.3962  0.1285  0.1195
 1070YOPC   C2B15328  18.548   6.319   7.279 -0.1293 -0.2865  0.2635
 1070YOPC   D3B15329  18.666   6.471   7.746  0.0854 -0.0313 -0.1035
 1070YOPC   C4B15330  18.612   6.713   8.010 -0.0520  0.0817  0.1820
 1071YOPC   NC315331   3.282   7.261   6.100  0.1605  0.2739 -0.1519
 1071YOPC   PO415332   3.304   6.896   6.092 -0.1033  0.1502  0.3529
 1071YOPC   GL115333   3.272   6.596   6.398 -0.0387  0.0753  0.0297
 1071YOPC   GL215334   3.546   6.406   6.397  0.0319 -0.1797  0.1261
 1071YOPC   C1A15335   3.165   6.177   6.625 -0.0334 -0.2364 -0.3169
 1071YOPC   D2A15336   3.185   6.122   7.060  0.0233 -0.0810  0.0986
 1071YOPC   C3A15337   3.037   6.229   7.415  0.1200 -0.1512 -0.1374
 1071YOPC   C4A15338   3.177   6.412   7.780 -0.2776  0.1172 -0.0229
 1071YOPC   C1B15339   3.560   6.498   6.829 -0.1179 -0.1512  0.1966
 1071YOPC   C2B15340   3.736   6.331   7.173  0.0227  0.1176  0.1019
 1071YOPC   D3B15341   3.499   6.140   7.476 -0.2522  0.1736 -0.1577
 1071YOPC   C4B15342   3.575   5.962   7.901 -0.4475  0.2098  0.0513
 1072YOPC   NC315343  17.989   3.432   5.703  0.2479 -0.2233  0.0413
 1072YOPC   PO415344  18.335   3.211   5.939 -0.1957  0.2156  0.3957
 1072YOPC   GL115345  18.539   2.915   6.121 -0.1205 -0.1619  0.1741
 1072YOPC   GL215346  18.665   2.638   6.109  0.0352  0.1395  0.4704
 1072YOPC   C1A15347  18.680   2.866   6.601  0.1538 -0.4816 -0.3438
 1072YOPC   D2A15348  18.771   2.938   7.071 -0.0342 -0.0910 -0.1448
 1072YOPC   C3A15349  18.430   2.942   7.333 -0.3268 -0.0282  0.0841
 1072YOPC   C4A15350  18.268   2.714   7.576  0.1696  0.3164 -0.2333
 1072YOPC   C1B15351  18.390   2.450   6.395  0.0461 -0.0895  0.1413
 1072YOPC   C2B15352  18.310   2.187   6.718 -0.0679  0.1012  0.1372
 1072YOPC   D3B15353  18.248   1.880   7.099  0.0775  0.2969  0.0364
 1072YOPC   C4B15354  17.748   1.855   7.368  0.0326  0.3376  0.2906
 1073YOPC   NC315355  17.200   6.142   5.999 -0.3085  0.2491 -0.2016
 1073YOPC   PO415356  17.437   6.556   5.849  0.1467  0.1040  0.0504
 1073YOPC   GL115357  17.486   6.469   6.311 -0.1348 -0.2164 -0.0644
 1073YOPC   GL215358  17.319   6.249   6.440  0.2702  0.2233  0.0311
 1073YOPC   C1A15359  17.773   6.669   6.740  0.0265  0.0453 -0.1182
 1073YOPC   D2A15360  17.819   6.628   7.224 -0.0018  0.0705 -0.3323
 1073YOPC   C3A15361  18.168   6.453   7.582  0.2128  0.1146  0.1347
 1073YOPC   C4A15362  18.268   6.015   7.569 -0.0216 -0.4267 -0.1168
 1073YOPC   C1B15363  17.161   5.867   6.667 -0.0157 -0.2473  0.1444
 1073YOPC   C2B15364  16.848   5.691   6.891  0.0880  0.0678 -0.1544
 1073YOPC   D3B15365  16.843   5.952   7.213 -0.1101 -0.0986 -0.2049
 1073YOPC   C4B15366  17.014   6.386   7.297 -0.0681  0.0227  0.1403
 1074YOPC   NC315367   5.146   4.866   5.571 -0.1177 -0.1563  0.0956
 1074YOPC   PO415368   5.460   4.569   5.441  0.2493 -0.1006 -0.0556
 1074YOPC   GL115369   5.379   4.531   5.850  0.4929 -0.1497  0.1595
 1074YOPC   GL215370   5.741   4.635   6.013 -0.0283 -0.3636 -0.0425
 1074YOPC   C1A15371   5.193   4.631   6.256  0.2739  0.2379 -0.1380
 1074YOPC   D2A15372   4.960   5.015   6.435  0.1550 -0.1170  0.2200
 1074YOPC   C3A15373   4.939   5.081   6.792 -0.0765 -0.1593  0.0738
 1074YOPC   C4A15374   5.108   5.094   7.108  0.0235  0.0482  0.0201
 1074YOPC   C1B15375   5.560   4.407   6.397 -0.3173  0.0296 -0.0324
 1074YOPC   C2B15376   5.600   3.966   6.321  0.1402  0.0275 -0.1661
 1074YOPC   D3B15377   5.732   3.527   6.271 -0.4123  0.2801 -0.0728
 1074YOPC   C4B15378   5.695   3.121   5.907 -0.2645  0.3922  0.1804
 1075YOPC   NC315379  15.878   3.236   5.149 -0.0589  0.1213  0.0764
 1075YOPC   PO415380  16.158   2.943   5.343 -0.0752  0.0453 -0.3241
 1075YOPC   GL115381  15.902   2.827   5.659  0.0133 -0.2331 -0.0430
 1075YOPC   GL215382  15.996   2.430   5.805 -0.0949  0.2756 -0.1225
 1075YOPC   C1A15383  15.776   3.027   6.067  0.0355 -0.1224 -0.0490
 1075YOPC   D2A15384  15.758   3.070   6.377  0.3495  0.0170  0.2424
 1075YOPC   C3A15385  15.700   3.281   6.663 -0.1176  0.0545 -0.1995
 1075YOPC   C4A15386  15.866   3.464   6.958  0.1078 -0.3289  0.1819
 1075YOPC   C1B15387  15.875   2.525   6.173  0.1912  0.2275  0.4966
 1075YOPC   C2B15388  15.865   2.457   6.538  0.0712 -0.4366 -0.1787
 1075YOPC   D3B15389  15.869   2.785   6.847 -0.2304 -0.3227  0.0464
 1075YOPC   C4B15390  15.529   3.031   7.124 -0.1501 -0.0962  0.2106
 1076YOPC   NC315391  16.515   3.806   5.422 -0.1222 -0.1423 -0.2518
 1076YOPC   PO415392  16.224   4.154   5.643  0.1122 -0.4270  0.3036
 1076YOPC   GL115393  16.160   4.308   5.972 -0.0918  0.0632  0.0147
 1076YOPC   GL215394  16.194   4.732   5.984  0.1643 -0.2039 -0.1184
 1076YOPC   C1A15395  15.907   4.122   6.278  0.1420  0.1242 -0.1608
 1076YOPC   D2A15396  15.782   3.820   6.601 -0.0833  0.1429 -0.1726
 1076YOPC   C3A15397  16.069   3.918   6.980 -0.0966 -0.1799  0.1659
 1076YOPC   C4A15398  16.474   3.823   7.018  0.4619  0.1095  0.0204
 1076YOPC   C1B15399  16.167   4.556   6.433  0.2172  0.0197  0.2320
 1076YOPC   C2B15400  15.927   4.378   6.787 -0.1904 -0.1060  0.0730
 1076YOPC   D3B15401  15.967   4.362   7.132  0.1489 -0.0611  0.2352
 1076YOPC   C4B15402  15.859   4.068   7.497  0.0904 -0.0007 -0.0805
 1077YOPC   NC315403   2.913  17.001   5.696  0.1590 -0.1614  0.3869
 1077YOPC   PO415404   2.682  16.655   5.503  0.1395 -0.1723 -0.1761
 1077YOPC   GL115405   2.812  16.548   5.916  0.0362  0.0121  0.3157
 1077YOPC   GL215406   2.933  16.244   6.082 -0.2376  0.0258  0.0232
 1077YOPC   C1A15407   2.667  16.559   6.298  0.2946  0.1787  0.0048
 1077YOPC   D2A15408   2.215  16.567   6.542  0.1949  0.3137  0.1798
 1077YOPC   C3A15409   2.044  17.022   6.533  0.1032  0.3150 -0.1051
 1077YOPC   C4A15410   2.003  17.438   6.505 -0.0184  0.0100 -0.0203
 1077YOPC   C1B15411   3.165  16.348   6.435  0.0748 -0.0208 -0.0634
 1077YOPC   C2B15412   2.954  16.393   6.771  0.0289 -0.2288  0.0063
 1077YOPC   D3B15413   2.646  16.516   6.878 -0.0492  0.0575  0.2071
 1077YOPC   C4B15414   2.385  16.487   7.134 -0.0148  0.4065 -0.0581
 1078YOPC   NC315415   4.880  16.608   5.799 -0.1278  0.1799  0.4773
 1078YOPC   PO415416   5.372  16.732   5.799  0.0528  0.3053 -0.0577
 1078YOPC   GL115417   5.415  16.630   6.132 -0.1142  0.1265  0.0135
 1078YOPC   GL215418   5.457  17.026   6.219  0.1313 -0.0254  0.4335
 1078YOPC   C1A15419   5.600  16.638   6.558  0.1665 -0.2840 -0.1139
 1078YOPC   D2A15420   5.367  16.813   6.969 -0.1572  0.1035  0.2245
 1078YOPC   C3A15421   5.434  16.564   7.319 -0.0508  0.1354 -0.2083
 1078YOPC   C4A15422   5.431  16.104   7.320  0.0771 -0.0533 -0.3119
 1078YOPC   C1B15423   5.342  17.179   6.540 -0.1850  0.0752 -0.1926
 1078YOPC   C2B15424   5.251  17.439   6.857  0.1801 -0.1026  0.2867
 1078YOPC   D3B15425   5.145  17.248   7.184  0.2084 -0.0920  0.1879
 1078YOPC   C4B15426   4.764  17.081   7.390 -0.3233 -0.2789  0.0886
 1079YOPC   NC315427   0.227  17.211   5.089 -0.0012 -0.0626  0.0631
 1079YOPC   PO415428   0.517  17.054   5.546 -0.1421  0.2431 -0.4422
 1079YOPC   GL115429   0.404  16.868   5.958  0.1040  0.1810  0.3119
 1079YOPC   GL215430   0.464  16.697   6.251  0.0515  0.0845 -0.2322
 1079YOPC   C1A15431   0.427  17.145   6.389 -0.0463 -0.0005  0.1255
 1079YOPC   D2A15432   0.104  17.383   6.605 -0.1294  0.0792  0.0546
 1079YOPC   C3A15433  -0.090  17.206   7.057 -0.2843  0.0398 -0.1904
 1079YOPC   C4A15434   0.133  17.018   7.362 -0.0040 -0.0118 -0.0135
 1079YOPC   C1B15435   0.846  16.884   6.463  0.1665 -0.1584  0.0327
 1079YOPC   C2B15436   1.181  17.080   6.725 -0.0241 -0.1277  0.0065
 1079YOPC   D3B15437   1.277  16.766   6.980 -0.0576 -0.1127  0.0352
 1079YOPC   C4B15438   1.308  16.399   7.104 -0.4034  0.1532 -0.0305
 1080YOPC   NC315439  12.517  11.026   6.010  0.1851  0.1899 -0.1213
 1080YOPC   PO415440  12.912  11.149   5.875 -0.1816 -0.1316 -0.1328
 1080YOPC   GL115441  12.877  11.231   6.326  0.4446  0.1685 -0.0687
 1080YOPC   GL215442  12.838  11.543   6.363 -0.1162 -0.0966  0.2170
 1080YOPC   C1A15443  12.847  11.461   6.829 -0.0319  0.0400  0.2362
 1080YOPC   D2A15444  12.704  11.412   7.297  0.5558 -0.2790  0.1426
 1080YOPC   C3A15445  12.296  11.169   7.261  0.0088  0.1840  0.2967
 1080YOPC   C4A15446  11.965  11.072   7.530  0.0867  0.3131 -0.0549
 1080YOPC   C1B15447  13.323  11.407   6.541  0.0101 -0.2698 -0.2706
 1080YOPC   C2B15448  13.649  11.603   6.836  0.3365 -0.2663  0.1084
 1080YOPC   D3B15449  13.477  11.568   7.243  0.0636  0.1521  0.0293
 1080YOPC   C4B15450  13.232  11.193   7.283  0.1964  0.1174 -0.1383
 1081YOPC   NC315451   3.548   3.975   5.682 -0.0197  0.1296 -0.4497
 1081YOPC   PO415452   3.298   4.119   6.013  0.3966 -0.1306  0.3051
 1081YOPC   GL115453   3.122   4.202   6.412 -0.4751  0.4104  0.1616
 1081YOPC   GL215454   3.548   4.213   6.486 -0.4744 -0.1716 -0.5045
 1081YOPC   C1A15455   3.202   4.404   6.788 -0.0840 -0.3219 -0.0076
 1081YOPC   D2A15456   3.524   4.289   7.092 -0.0625 -0.0005 -0.0165
 1081YOPC   C3A15457   3.526   4.144   7.526 -0.1417 -0.0921  0.2860
 1081YOPC   C4A15458   3.297   4.073   7.894  0.0088  0.2488  0.3551
 1081YOPC   C1B15459   3.752   3.949   6.751 -0.1387 -0.1937  0.2286
 1081YOPC   C2B15460   3.823   3.837   7.156  0.2148  0.2498  0.0392
 1081YOPC   D3B15461   3.965   3.646   7.505  0.1216 -0.0070  0.0422
 1081YOPC   C4B15462   3.732   3.853   7.865 -0.0383  0.0615 -0.1259
 1082YOPC   NC315463   3.262   6.352   5.986 -0.0143 -0.2073  0.0372
 1082YOPC   PO415464   3.535   6.062   6.000 -0.0700  0.0759 -0.1598
 1082YOPC   GL115465   3.659   5.822   6.299  0.1628 -0.0188  0.1496
 1082YOPC   GL215466   3.859   5.874   6.477  0.1617 -0.1385 -0.0175
 1082YOPC   C1A15467   3.533   5.584   6.523  0.2614  0.2980  0.2214
 1082YOPC   D2A15468   3.622   5.276   6.877  0.0360  0.1272 -0.0248
 1082YOPC   C3A15469   3.568   5.225   7.306 -0.1533  0.2916 -0.0413
 1082YOPC   C4A15470   3.568   5.557   7.637 -0.1331 -0.0040  0.1179
 1082YOPC   C1B15471   3.646   6.019   6.801 -0.1419 -0.1367  0.0396
 1082YOPC   C2B15472   3.456   5.767   7.140 -0.0564  0.2067  0.2193
 1082YOPC   D3B15473   3.145   5.719   7.450 -0.1036  0.1311  0.1511
 1082YOPC   C4B15474   3.003   5.416   7.827 -0.0856 -0.1652  0.1268
 1083YOPC   NC315475   7.216   9.493   5.779  0.0216 -0.2860 -0.0472
 1083YOPC   PO415476   6.941   9.167   6.000  0.0122 -0.1229  0.4227
 1083YOPC   GL115477   6.771   9.412   6.275  0.1549  0.3582  0.1042
 1083YOPC   GL215478   6.417   9.575   6.265  0.0158  0.0668 -0.1901
 1083YOPC   C1A15479   6.649   9.601   6.670  0.1616  0.2361 -0.1916
 1083YOPC   D2A15480   6.363   9.514   7.058 -0.6694 -0.1448 -0.1236
 1083YOPC   C3A15481   6.673   9.589   7.407  0.0837  0.1345 -0.0626
 1083YOPC   C4A15482   7.060   9.625   7.432 -0.0373  0.0451  0.1164
 1083YOPC   C1B15483   6.398  10.035   6.626  0.1693 -0.0610 -0.0063
 1083YOPC   C2B15484   6.533  10.382   6.854 -0.0925 -0.1948 -0.2145
 1083YOPC   D3B15485   6.683  10.584   7.244 -0.0170 -0.2574 -0.0363
 1083YOPC   C4B15486   6.807  10.604   7.731 -0.1517  0.0381 -0.0154
 1084YOPC   NC315487  14.747  15.193   5.686 -0.2672  0.2624  0.1721
 1084YOPC   PO415488  15.170  14.988   5.674 -0.0286  0.1340  0.1638
 1084YOPC   GL115489  15.084  14.886   6.054 -0.1575 -0.1134  0.1503
 1084YOPC   GL215490  14.783  14.783   6.084  0.2764  0.0135  0.4414
 1084YOPC   C1A15491  15.135  14.863   6.513 -0.0217  0.2267  0.0773
 1084YOPC   D2A15492  14.891  14.713   6.801  0.0106 -0.3206 -0.2513
 1084YOPC   C3A15493  15.148  14.526   7.179 -0.2710 -0.1267  0.1106
 1084YOPC   C4A15494  15.393  14.342   7.525 -0.1570 -0.3853 -0.0053
 1084YOPC   C1B15495  14.547  14.968   6.358 -0.1234  0.2308 -0.3130
 1084YOPC   C2B15496  14.344  14.932   6.722 -0.1227  0.2773 -0.0932
 1084YOPC   D3B15497  14.224  15.095   7.152  0.1793  0.1347  0.4545
 1084YOPC   C4B15498  14.224  15.202   7.530 -0.1943 -0.2173  0.2206
 1085YOPC   NC315499   6.450  13.715   5.851 -0.2575  0.0285 -0.2743
 1085YOPC   PO415500   6.701  13.341   5.918  0.1822 -0.0350  0.1181
 1085YOPC   GL115501   6.606  13.031   6.236 -0.3345  0.0821  0.0479
 1085YOPC   GL215502   6.269  12.868   6.178  0.1176 -0.2163  0.1227
 1085YOPC   C1A15503   6.781  12.932   6.639  0.0983 -0.1481  0.2098
 1085YOPC   D2A15504   7.000  12.905   7.005  0.0783 -0.1016 -0.0489
 1085YOPC   C3A15505   6.834  13.186   7.319 -0.0976  0.1200 -0.0495
 1085YOPC   C4A15506   6.770  12.969   7.697  0.3697 -0.1475 -0.1527
 1085YOPC   C1B15507   6.101  12.865   6.486  0.0620 -0.0101  0.0753
 1085YOPC   C2B15508   6.012  13.067   6.948  0.2012 -0.0281  0.0206
 1085YOPC   D3B15509   5.769  12.958   7.333 -0.2149 -0.3030  0.4453
 1085YOPC   C4B15510   5.483  13.019   7.538  0.3057  0.0267 -0.0858
 1086YOPC   NC315511  11.916   0.396   5.366  0.0331  0.0462 -0.1198
 1086YOPC   PO415512  12.223   0.189   5.584 -0.0092 -0.0562  0.0904
 1086YOPC   GL115513  12.106   0.449   5.889 -0.1253  0.0425  0.0627
 1086YOPC   GL215514  12.010   0.178   6.065 -0.0885 -0.2851 -0.0398
 1086YOPC   C1A15515  11.746   0.591   6.310 -0.0301 -0.0969 -0.0879
 1086YOPC   D2A15516  11.496   0.692   6.668 -0.1064  0.1465 -0.0693
 1086YOPC   C3A15517  11.061   0.505   6.792 -0.0618 -0.2764  0.0571
 1086YOPC   C4A15518  10.887   0.401   7.150 -0.0973 -0.1949  0.2107
 1086YOPC   C1B15519  11.962   0.221   6.452  0.2894  0.5729 -0.2729
 1086YOPC   C2B15520  12.227   0.155   6.769  0.2526 -0.0942 -0.1429
 1086YOPC   D3B15521  11.892   0.029   7.126  0.1743  0.2280 -0.2340
 1086YOPC   C4B15522  11.640  -0.178   7.299  0.2345 -0.3053  0.1736
 1087YOPC   NC315523   9.865  17.871   5.536 -0.1879 -0.1535 -0.2531
 1087YOPC   PO415524   9.822  18.073   5.872  0.0606 -0.3036  0.2618
 1087YOPC   GL115525   9.654  18.199   6.239 -0.0037 -0.2285 -0.2535
 1087YOPC   GL215526   9.402  18.221   6.236  0.0994  0.0937  0.2806
 1087YOPC   C1A15527   9.706  18.516   6.484  0.3327  0.1731 -0.1495
 1087YOPC   D2A15528   9.914  18.714   6.652  0.0329 -0.1024  0.0378
 1087YOPC   C3A15529   9.895  18.651   7.065  0.1963  0.3358 -0.0807
 1087YOPC   C4A15530  10.041  18.830   7.521  0.1732  0.1016 -0.1016
 1087YOPC   C1B15531   9.400  18.186   6.716 -0.0949  0.0045 -0.0194
 1087YOPC   C2B15532   9.479  18.313   7.068 -0.0478  0.0178 -0.1046
 1087YOPC   D3B15533   9.268  18.319   7.517  0.2112  0.1926 -0.3320
 1087YOPC   C4B15534   9.088  18.558   7.831  0.2233 -0.1200 -0.3503
 1088YOPC   NC315535   8.635  16.298   4.960 -0.1479  0.4182 -0.0064
 1088YOPC   PO415536   8.536  16.073   5.394  0.0236  0.2564  0.1715
 1088YOPC   GL115537   8.626  16.270   5.752 -0.2158 -0.0324 -0.1960
 1088YOPC   GL215538   8.881  16.366   5.778 -0.1068  0.0961 -0.4347
 1088YOPC   C1A15539   8.763  16.084   6.274 -0.0453 -0.2307  0.0461
 1088YOPC   D2A15540   8.739  15.870   6.674 -0.1307  0.0015 -0.3131
 1088YOPC   C3A15541   9.033  16.052   6.921 -0.0240 -0.0490  0.0922
 1088YOPC   C4A15542   9.339  16.318   7.112 -0.1619  0.0295 -0.0400
 1088YOPC   C1B15543   9.217  16.208   6.122 -0.4898 -0.0506  0.4671
 1088YOPC   C2B15544   9.233  16.340   6.465  0.1676  0.0603 -0.0813
 1088YOPC   D3B15545   9.511  16.652   6.539  0.0355  0.0715 -0.3068
 1088YOPC   C4B15546   9.782  16.926   6.826  0.4096 -0.0919 -0.0309
 1089YOPC   NC315547  14.673   0.290   5.610 -0.1203  0.2447  0.3979
 1089YOPC   PO415548  14.355   0.568   5.721 -0.1514  0.0924  0.1033
 1089YOPC   GL115549  14.505   0.788   6.062  0.0313 -0.2603  0.2566
 1089YOPC   GL215550  14.396   0.668   6.432  0.0181 -0.1875  0.1891
 1089YOPC   C1A15551  14.577   1.144   6.279 -0.0205  0.1374 -0.0378
 1089YOPC   D2A15552  14.582   1.618   6.459 -0.1436  0.0164 -0.0089
 1089YOPC   C3A15553  14.186   1.840   6.284 -0.0988 -0.0634 -0.0234
 1089YOPC   C4A15554  14.002   2.120   5.929  0.0487  0.1324  0.2205
 1089YOPC   C1B15555  14.271   0.341   6.712  0.0209 -0.0611  0.0850
 1089YOPC   C2B15556  14.658   0.263   6.949  0.2777  0.1247  0.3194
 1089YOPC   D3B15557  15.027   0.077   6.849  0.1274  0.0883 -0.0563
 1089YOPC   C4B15558  15.518   0.083   7.089  0.2508  0.0715 -0.3376
 1090YOPC   NC315559   8.343  12.904   5.173  0.2720  0.0111 -0.0407
 1090YOPC   PO415560   8.474  13.030   5.591  0.1703 -0.1501  0.0565
 1090YOPC   GL115561   8.615  13.061   6.048 -0.1712  0.1564 -0.5454
 1090YOPC   GL215562   8.500  13.297   6.156 -0.3220  0.0361 -0.1435
 1090YOPC   C1A15563   8.981  13.243   6.437  0.2598  0.3112 -0.1425
 1090YOPC   D2A15564   8.880  13.527   6.877 -0.4962  0.3526  0.0627
 1090YOPC   C3A15565   9.163  13.737   7.302 -0.1323 -0.0309 -0.2488
 1090YOPC   C4A15566   9.016  14.009   7.699  0.1986 -0.2801 -0.2326
 1090YOPC   C1B15567   8.470  13.439   6.621  0.0547  0.1092 -0.0708
 1090YOPC   C2B15568   8.281  13.590   7.006  0.0231 -0.0438  0.1128
 1090YOPC   D3B15569   8.674  13.639   7.407  0.0754  0.1757 -0.1758
 1090YOPC   C4B15570   8.726  13.624   7.899  0.3513  0.0437  0.0290
 1091YOPC   NC315571  14.111   7.984   5.264 -0.0610 -0.0012 -0.2027
 1091YOPC   PO415572  14.450   8.049   5.530 -0.1370  0.1052 -0.2357
 1091YOPC   GL115573  14.509   8.248   5.867 -0.2622  0.1912 -0.1622
 1091YOPC   GL215574  14.709   8.098   6.117  0.1295  0.1277 -0.0051
 1091YOPC   C1A15575  14.214   8.297   6.178 -0.3098 -0.0989  0.3633
 1091YOPC   D2A15576  14.076   8.550   6.411 -0.0845 -0.2038  0.0735
 1091YOPC   C3A15577  14.218   9.022   6.459 -0.1996  0.0661  0.2575
 1091YOPC   C4A15578  14.485   9.221   6.803  0.1346  0.0983  0.2405
 1091YOPC   C1B15579  14.675   8.257   6.589  0.1056 -0.4716  0.3485
 1091YOPC   C2B15580  14.872   8.366   6.915  0.3319 -0.3539 -0.0889
 1091YOPC   D3B15581  14.711   8.505   7.272 -0.1022  0.4080  0.0289
 1091YOPC   C4B15582  14.299   8.281   7.481  0.1000  0.0648  0.2445
 1092YOPC   NC315583   5.357   0.567   5.818 -0.2536 -0.0448 -0.1539
 1092YOPC   PO415584   4.911   0.649   5.680  0.0920  0.0320  0.0423
 1092YOPC   GL115585   4.808   0.709   6.046  0.3221 -0.0984 -0.3926
 1092YOPC   GL215586   5.083   0.483   6.219  0.0885  0.2055 -0.2715
 1092YOPC   C1A15587   4.495   0.722   6.346  0.0741  0.2458  0.0622
 1092YOPC   D2A15588   4.239   1.030   6.613  0.0225  0.1001 -0.1094
 1092YOPC   C3A15589   4.530   0.975   7.018  0.1158 -0.3164 -0.1777
 1092YOPC   C4A15590   4.777   0.774   7.246  0.3156 -0.4088  0.1206
 1092YOPC   C1B15591   5.200   0.448   6.510  0.0639  0.1830 -0.1636
 1092YOPC   C2B15592   5.241   0.491   6.952  0.0694 -0.2222  0.2379
 1092YOPC   D3B15593   5.489   0.170   6.948  0.1521  0.0548 -0.0777
 1092YOPC   C4B15594   5.754   0.117   7.106 -0.0596  0.1877  0.0417
 1093YOPC   NC315595  12.689   6.156   5.571  0.0549  0.3637  0.1109
 1093YOPC   PO415596  12.971   6.428   5.874  0.5647  0.3523 -0.2208
 1093YOPC   GL115597  12.740   6.346   6.302 -0.0007 -0.0898 -0.3747
 1093YOPC   GL215598  12.470   6.118   6.331 -0.2471  0.0699 -0.0975
 1093YOPC   C1A15599  12.764   6.386   6.767 -0.0233  0.0880  0.0100
 1093YOPC   D2A15600  12.975   6.488   7.178 -0.0015 -0.2351  0.4152
 1093YOPC   C3A15601  12.865   6.249   7.528  0.0075  0.3723  0.0830
 1093YOPC   C4A15602  12.642   5.881   7.709  0.4788  0.0153 -0.2651
 1093YOPC   C1B15603  12.188   6.139   6.741  0.0177  0.1648 -0.2711
 1093YOPC   C2B15604  11.975   6.093   7.126  0.0101  0.0051  0.0472
 1093YOPC   D3B15605  12.153   6.246   7.554  0.1707 -0.1177 -0.1324
 1093YOPC   C4B15606  12.437   6.272   7.945  0.0515 -0.1761  0.0122
 1094YOPC   NC315607   6.557  10.023   5.433 -0.2183 -0.0292  0.1087
 1094YOPC   PO415608   6.446   9.908   5.895  0.0268  0.1572 -0.1859
 1094YOPC   GL115609   6.092  10.014   6.152  0.0542 -0.1308  0.2072
 1094YOPC   GL215610   5.865   9.834   6.040  0.1535  0.0246 -0.2362
 1094YOPC   C1A15611   5.680  10.319   6.234  0.1600  0.2335 -0.4134
 1094YOPC   D2A15612   5.330  10.482   6.179  0.1275 -0.1874 -0.2263
 1094YOPC   C3A15613   4.972  10.335   6.307 -0.0287 -0.0802 -0.4731
 1094YOPC   C4A15614   4.658  10.023   6.323 -0.1588  0.3064 -0.3223
 1094YOPC   C1B15615   5.786   9.817   6.435 -0.0538  0.1443  0.0237
 1094YOPC   C2B15616   6.016   9.741   6.762  0.1518  0.0801  0.0423
 1094YOPC   D3B15617   5.897   9.690   7.272  0.2059 -0.2428 -0.1426
 1094YOPC   C4B15618   5.796   9.556   7.752 -0.2284  0.1312 -0.2766
 1095YOPC   NC315619  11.215  12.626   5.389 -0.2444  0.0444 -0.1824
 1095YOPC   PO415620  10.985  12.335   5.701  0.0286 -0.3506  0.4819
 1095YOPC   GL115621  11.065  12.368   6.041  0.1714 -0.5061  0.1233
 1095YOPC   GL215622  10.876  12.724   6.012  0.0407  0.0950  0.0432
 1095YOPC   C1A15623  11.189  12.082   6.468  0.2540  0.3033  0.0486
 1095YOPC   D2A15624  11.064  12.102   6.918  0.5107  0.1385  0.3847
 1095YOPC   C3A15625  11.089  11.714   7.238  0.3180  0.0341  0.2634
 1095YOPC   C4A15626  11.053  11.246   7.267  0.5017  0.0538 -0.1689
 1095YOPC   C1B15627  11.021  12.802   6.444 -0.2681  0.1565  0.4751
 1095YOPC   C2B15628  11.225  12.515   6.760 -0.0228 -0.3136 -0.2463
 1095YOPC   D3B15629  11.038  12.595   7.170 -0.3997 -0.0413  0.0229
 1095YOPC   C4B15630  10.814  12.544   7.589  0.1064 -0.0925  0.0674
 1096YOPC   NC315631   0.834  14.518   5.763 -0.0764 -0.0225  0.3980
 1096YOPC   PO415632   1.169  14.565   5.868 -0.1555  0.1327 -0.1469
 1096YOPC   GL115633   1.445  14.536   6.240  0.1777  0.3210 -0.1273
 1096YOPC   GL215634   1.408  14.915   6.307 -0.1346 -0.1664 -0.3794
 1096YOPC   C1A15635   1.298  14.568   6.777  0.3465  0.3932 -0.1327
 1096YOPC   D2A15636   1.076  14.509   7.141 -0.0027  0.0464  0.0953
 1096YOPC   C3A15637   1.401  14.579   7.435 -0.3064 -0.1694 -0.0448
 1096YOPC   C4A15638   1.435  14.578   7.882 -0.1131 -0.4399  0.1635
 1096YOPC   C1B15639   1.221  15.309   6.551 -0.2505 -0.1089 -0.0918
 1096YOPC   C2B15640   1.297  15.419   6.927 -0.1411 -0.0918  0.2999
 1096YOPC   D3B15641   1.048  15.487   7.286 -0.1977 -0.0376 -0.1121
 1096YOPC   C4B15642   1.053  15.895   7.625  0.2216 -0.0651  0.1415
 1097YOPC   NC315643   2.888  13.532   5.546  0.2630 -0.1279 -0.0507
 1097YOPC   PO415644   3.140  13.937   5.653  0.0660 -0.2483 -0.0287
 1097YOPC   GL115645   3.204  14.091   6.059  0.0276  0.4063 -0.4056
 1097YOPC   GL215646   3.243  14.378   6.099  0.1475  0.1138  0.0054
 1097YOPC   C1A15647   3.105  14.164   6.601 -0.4239  0.1128  0.1639
 1097YOPC   D2A15648   3.085  14.300   7.057 -0.1686 -0.0437  0.1949
 1097YOPC   C3A15649   3.382  14.139   7.397  0.0442 -0.0226 -0.1344
 1097YOPC   C4A15650   3.826  14.169   7.557 -0.0309 -0.1577 -0.0308
 1097YOPC   C1B15651   3.457  14.536   6.422 -0.1893  0.2907  0.0998
 1097YOPC   C2B15652   3.591  14.574   6.925 -0.1074  0.1367  0.3969
 1097YOPC   D3B15653   3.293  14.696   7.228 -0.0180  0.0645  0.0653
 1097YOPC   C4B15654   3.105  14.549   7.464 -0.1432  0.2260  0.0269
 1098YOPC   NC315655  16.361   5.090   5.657  0.2471 -0.0908 -0.1629
 1098YOPC   PO415656  16.423   5.561   5.720  0.0344  0.1723  0.1354
 1098YOPC   GL115657  16.563   5.494   6.153 -0.1277  0.1361 -0.1178
 1098YOPC   GL215658  16.543   5.162   6.173  0.0583  0.0670 -0.2308
 1098YOPC   C1A15659  16.482   5.695   6.490  0.0021 -0.0355 -0.0979
 1098YOPC   D2A15660  16.370   5.544   6.947 -0.1637  0.2089 -0.2433
 1098YOPC   C3A15661  16.629   5.546   7.298 -0.1350  0.1160  0.0768
 1098YOPC   C4A15662  16.831   5.565   7.708  0.0628  0.2320  0.1692
 1098YOPC   C1B15663  16.514   4.993   6.527  0.1677 -0.0777 -0.0929
 1098YOPC   C2B15664  16.464   5.021   6.965 -0.1857 -0.1478 -0.1318
 1098YOPC   D3B15665  16.487   4.966   7.399 -0.0080  0.2515 -0.4718
 1098YOPC   C4B15666  16.171   4.666   7.599 -0.2869  0.0193  0.0047
 1099YOPC   NC315667  10.132   7.828   5.234  0.1597 -0.1426  0.2660
 1099YOPC   PO415668  10.217   7.862   5.622 -0.0217 -0.0422  0.0104
 1099YOPC   GL115669  10.021   7.811   5.991 -0.2576  0.1207 -0.0750
 1099YOPC   GL215670   9.742   7.685   6.063 -0.0534  0.0351 -0.1320
 1099YOPC   C1A15671  10.043   7.704   6.416 -0.2850 -0.1381  0.1445
 1099YOPC   D2A15672   9.915   7.367   6.481 -0.0469 -0.0968  0.1283
 1099YOPC   C3A15673   9.837   7.160   6.945 -0.4339  0.0108  0.0071
 1099YOPC   C4A15674   9.812   7.128   7.358 -0.1291 -0.1976 -0.1759
 1099YOPC   C1B15675   9.552   7.919   6.436 -0.0225 -0.1599  0.0534
 1099YOPC   C2B15676   9.801   7.851   6.812  0.5761 -0.2008  0.0161
 1099YOPC   D3B15677  10.115   8.031   7.027  0.4098  0.0336  0.2994
 1099YOPC   C4B15678  10.098   8.404   6.904 -0.1216 -0.1761 -0.0478
 1100YOPC   NC315679  17.100  15.335   5.948 -0.2414  0.4724  0.4565
 1100YOPC   PO415680  17.157  15.716   5.963  0.0312 -0.1607  0.0941
 1100YOPC   GL115681  16.810  15.737   6.209  0.1124 -0.0783 -0.0333
 1100YOPC   GL215682  16.863  15.426   6.407  0.0950  0.0649 -0.0197
 1100YOPC   C1A15683  16.529  15.856   6.424  0.0786 -0.0688 -0.2438
 1100YOPC   D2A15684  16.395  15.789   6.870 -0.2005  0.1243 -0.1324
 1100YOPC   C3A15685  16.542  15.494   7.076  0.1904 -0.0254  0.2274
 1100YOPC   C4A15686  16.621  15.135   7.341  0.1767  0.2880  0.3098
 1100YOPC   C1B15687  16.923  15.542   6.702  0.0014 -0.0821 -0.1059
 1100YOPC   C2B15688  17.030  15.464   7.177  0.0863 -0.0743 -0.2879
 1100YOPC   D3B15689  17.320  15.455   7.477  0.1215 -0.1130  0.3735
 1100YOPC   C4B15690  17.800  15.526   7.685  0.1001  0.1185 -0.2929
 1101YOPC   NC315691  14.915   7.118   5.253 -0.2488  0.0573  0.0565
 1101YOPC   PO415692  14.678   7.274   5.560  0.0756  0.2798 -0.2830
 1101YOPC   GL115693  14.700   7.195   5.920  0.0806  0.1013  0.2311
 1101YOPC   GL215694  15.047   7.371   6.050 -0.0555 -0.0617 -0.3821
 1101YOPC   C1A15695  14.489   6.931   6.313  0.0855 -0.0495  0.2623
 1101YOPC   D2A15696  14.631   6.589   6.592  0.1677  0.3584  0.0822
 1101YOPC   C3A15697  14.519   6.454   7.022 -0.1665 -0.2863 -0.1018
 1101YOPC   C4A15698  14.539   6.808   7.336  0.1267  0.0206 -0.0034
 1101YOPC   C1B15699  14.934   7.068   6.406  0.1240  0.2556  0.2243
 1101YOPC   C2B15700  14.702   7.087   6.738 -0.2841  0.0579 -0.1044
 1101YOPC   D3B15701  14.940   7.162   7.124  0.0252  0.1512 -0.3196
 1101YOPC   C4B15702  15.414   7.302   7.264  0.0012 -0.1644  0.0044
 1102YOPC   NC315703   4.045   1.836   5.520  0.0118 -0.0572  0.0633
 1102YOPC   PO415704   3.696   1.588   5.679 -0.2161 -0.1481 -0.2098
 1102YOPC   GL115705   3.802   1.241   5.955 -0.2949 -0.0990  0.1990
 1102YOPC   GL215706   3.569   1.007   6.130  0.0460  0.0714  0.1043
 1102YOPC   C1A15707   4.100   1.026   6.158 -0.3203 -0.1283  0.1947
 1102YOPC   D2A15708   4.571   1.153   6.135 -0.0074 -0.0893  0.2698
 1102YOPC   C3A15709   4.739   1.049   6.587  0.0603  0.2564  0.2271
 1102YOPC   C4A15710   4.782   0.632   6.719  0.0167 -0.0451  0.1276
 1102YOPC   C1B15711   3.759   1.188   6.508  0.0246  0.1241 -0.0187
 1102YOPC   C2B15712   3.978   1.440   6.401 -0.1057  0.0689  0.0901
 1102YOPC   D3B15713   4.394   1.491   6.488  0.0393 -0.0753  0.1585
 1102YOPC   C4B15714   4.584   1.460   6.862  0.0171  0.0611  0.1398
 1103YOPC   NC315715   2.461  10.457   6.203 -0.4653  0.1428  0.3706
 1103YOPC   PO415716   2.242  10.117   6.303 -0.2924 -0.5329 -0.2366
 1103YOPC   GL115717   2.519  10.065   6.633 -0.0936  0.0580 -0.2155
 1103YOPC   GL215718   2.614  10.393   6.720 -0.2795 -0.2450 -0.2133
 1103YOPC   C1A15719   2.353  10.086   7.004 -0.1471  0.0996  0.0782
 1103YOPC   D2A15720   2.103  10.164   7.233  0.0397  0.1488  0.2398
 1103YOPC   C3A15721   2.029  10.405   7.666  0.0390  0.4177 -0.2426
 1103YOPC   C4A15722   1.866  10.352   7.950  0.1180 -0.1778 -0.3329
 1103YOPC   C1B15723   2.289  10.668   6.925  0.2449  0.1727  0.2470
 1103YOPC   C2B15724   2.321  10.726   7.398 -0.2023  0.3275  0.2753
 1103YOPC   D3B15725   2.449  10.994   7.692 -0.0811 -0.2607 -0.1040
 1103YOPC   C4B15726   2.851  11.080   7.840  0.0299  0.0155 -0.0004
 1104YOPC   NC315727  12.342  13.645   5.661  0.2523 -0.0911  0.0661
 1104YOPC   PO415728  12.708  13.839   5.746 -0.1019 -0.1977  0.0776
 1104YOPC   GL115729  12.644  13.588   6.228  0.0673 -0.1738  0.2396
 1104YOPC   GL215730  12.463  13.328   6.075 -0.0802 -0.3459 -0.0651
 1104YOPC   C1A15731  12.353  13.565   6.516  0.2602 -0.0929  0.0051
 1104YOPC   D2A15732  12.446  13.269   6.935  0.2609 -0.1697  0.3033
 1104YOPC   C3A15733  12.643  13.012   7.237 -0.2908 -0.1449 -0.0707
 1104YOPC   C4A15734  12.576  12.589   7.284 -0.0715 -0.0578  0.2494
 1104YOPC   C1B15735  12.679  13.096   6.505  0.1106 -0.1360  0.1665
 1104YOPC   C2B15736  12.792  12.649   6.792  0.1247 -0.0889  0.1771
 1104YOPC   D3B15737  13.062  12.496   6.454  0.0480  0.2026 -0.1691
 1104YOPC   C4B15738  12.967  12.231   6.093 -0.0378  0.2503 -0.3797
 1105YOPC   NC315739  15.374  18.262   5.451 -0.0322  0.5054 -0.1411
 1105YOPC   PO415740  15.037  18.115   5.657  0.1144 -0.2219 -0.0396
 1105YOPC   GL115741  14.866  18.033   6.012 -0.1337  0.0926  0.1960
 1105YOPC   GL215742  14.969  17.760   6.206 -0.3126 -0.1763  0.0574
 1105YOPC   C1A15743  14.544  18.047   6.361  0.1148  0.0675  0.0652
 1105YOPC   D2A15744  14.403  17.916   6.845 -0.1083  0.2300 -0.1309
 1105YOPC   C3A15745  14.559  17.592   7.008  0.1320 -0.1430 -0.0054
 1105YOPC   C4A15746  14.504  17.458   7.425 -0.0893  0.2703  0.1745
 1105YOPC   C1B15747  15.015  17.738   6.683 -0.0483  0.1169  0.1536
 1105YOPC   C2B15748  15.085  17.694   7.045 -0.0479 -0.0519  0.2614
 1105YOPC   D3B15749  14.999  17.416   7.374  0.1709  0.0770  0.0059
 1105YOPC   C4B15750  15.197  17.134   7.336  0.3637 -0.0904  0.1506
 1106YOPC   NC315751  14.087   3.033   4.957 -0.1669  0.1582  0.1274
 1106YOPC   PO415752  14.276   2.943   5.346  0.1136  0.0196  0.1106
 1106YOPC   GL115753  14.476   2.862   5.803 -0.0420 -0.0862 -0.0245
 1106YOPC   GL215754  14.701   2.912   5.947  0.1335  0.0980 -0.0368
 1106YOPC   C1A15755  14.456   2.521   6.081  0.2499 -0.0387  0.0033
 1106YOPC   D2A15756  14.195   2.358   6.341 -0.2813 -0.1425 -0.1530
 1106YOPC   C3A15757  14.242   2.128   6.824  0.1287 -0.2419  0.1099
 1106YOPC   C4A15758  14.502   2.289   7.144  0.0565  0.0792  0.1015
 1106YOPC   C1B15759  14.815   3.108   6.337 -0.1423 -0.1653  0.0590
 1106YOPC   C2B15760  14.799   2.977   6.729  0.4132  0.0224  0.0112
 1106YOPC   D3B15761  15.098   2.977   7.020  0.3454 -0.1646  0.1262
 1106YOPC   C4B15762  15.111   3.273   7.354  0.0899  0.1717 -0.1822
 1107YOPC   NC315763   4.816   9.115   5.907  0.4571  0.1715  0.0061
 1107YOPC   PO415764   4.669   8.812   6.107 -0.4318  0.0470  0.3282
 1107YOPC   GL115765   4.573   8.644   6.501 -0.0165 -0.3599  0.1911
 1107YOPC   GL215766   4.283   8.812   6.514  0.1117  0.3376 -0.0881
 1107YOPC   C1A15767   4.352   8.608   6.970 -0.1924  0.0006  0.2288
 1107YOPC   D2A15768   4.475   8.385   7.361  0.2189  0.1886  0.0443
 1107YOPC   C3A15769   4.887   8.239   7.496  0.4207 -0.0842  0.0024
 1107YOPC   C4A15770   5.239   8.083   7.358 -0.1818 -0.0163 -0.0482
 1107YOPC   C1B15771   3.997   8.957   6.814 -0.0758  0.0763 -0.0597
 1107YOPC   C2B15772   3.617   8.969   7.078  0.0353 -0.0700  0.2643
 1107YOPC   D3B15773   3.711   8.980   7.530 -0.0829  0.1208  0.1711
 1107YOPC   C4B15774   3.977   9.000   7.838  0.0411 -0.3759 -0.0898
 1108YOPC   NC315775  17.674   1.027   5.246  0.3282  0.0412  0.0070
 1108YOPC   PO415776  17.771   1.256   5.622  0.1105 -0.0248  0.2140
 1108YOPC   GL115777  17.555   1.152   6.074  0.0240  0.1880  0.0721
 1108YOPC   GL215778  17.880   1.008   6.196 -0.0727  0.0024 -0.4170
 1108YOPC   C1A15779  17.471   1.242   6.503 -0.0383 -0.1801  0.0487
 1108YOPC   D2A15780  17.411   1.413   6.869 -0.2750 -0.0091  0.1495
 1108YOPC   C3A15781  17.261   1.779   7.098 -0.4737  0.0263 -0.0884
 1108YOPC   C4A15782  17.117   1.759   7.512 -0.0289  0.0177 -0.3028
 1108YOPC   C1B15783  17.966   1.387   6.470  0.0301  0.0020 -0.3492
 1108YOPC   C2B15784  18.233   1.381   6.855 -0.2365  0.1479 -0.0305
 1108YOPC   D3B15785  18.243   1.362   7.235  0.0598  0.0558  0.1352
 1108YOPC   C4B15786  18.202   1.202   7.720  0.0028 -0.0098 -0.0024
 1109YOPC   NC315787  13.288   3.209   4.994  0.0945  0.0050  0.1175
 1109YOPC   PO415788  13.651   3.061   5.244  0.0903  0.2429  0.3422
 1109YOPC   GL115789  13.884   2.925   5.667  0.1714 -0.3802 -0.2549
 1109YOPC   GL215790  13.936   2.564   5.718  0.1770  0.1262  0.2308
 1109YOPC   C1A15791  14.029   2.904   6.059 -0.0109 -0.2093  0.0911
 1109YOPC   D2A15792  14.353   2.951   6.352  0.2834 -0.0739  0.0255
 1109YOPC   C3A15793  14.391   2.695   6.670  0.0982 -0.2175  0.1619
 1109YOPC   C4A15794  14.491   2.742   7.129 -0.1247 -0.1113  0.1228
 1109YOPC   C1B15795  13.601   2.447   5.989 -0.0146 -0.0496  0.1791
 1109YOPC   C2B15796  13.257   2.519   6.264 -0.0880 -0.0004  0.2512
 1109YOPC   D3B15797  12.965   2.769   6.295  0.1204  0.2023  0.1214
 1109YOPC   C4B15798  12.685   2.894   6.565  0.1194 -0.2746  0.0208
 1110YOPC   NC315799   0.384   8.755   5.891 -0.1088 -0.0402  0.2262
 1110YOPC   PO415800   0.024   8.745   5.907 -0.2499 -0.0874 -0.3716
 1110YOPC   GL115801   0.128   8.694   6.433  0.1581 -0.1636 -0.1812
 1110YOPC   GL215802   0.456   8.791   6.458 -0.0448  0.0870 -0.3236
 1110YOPC   C1A15803   0.073   8.340   6.724 -0.1627  0.2549 -0.0536
 1110YOPC   D2A15804   0.148   7.978   6.627 -0.2922 -0.0620 -0.1717
 1110YOPC   C3A15805   0.051   7.759   7.071 -0.0441 -0.1162  0.2555
 1110YOPC   C4A15806   0.222   7.922   7.385 -0.2868  0.1338  0.0365
 1110YOPC   C1B15807   0.377   8.786   6.939 -0.1434  0.1221  0.3453
 1110YOPC   C2B15808   0.649   8.782   7.404 -0.0880 -0.0842  0.1416
 1110YOPC   D3B15809   0.298   8.426   7.711 -0.0052  0.3921  0.3788
 1110YOPC   C4B15810   0.199   8.266   8.121 -0.0627 -0.1315 -0.1491
 1111YOPC   NC315811   2.973  15.852   5.308 -0.1762 -0.2495 -0.3724
 1111YOPC   PO415812   2.798  15.526   5.482 -0.1130 -0.1198 -0.2653
 1111YOPC   GL115813   2.752  15.457   5.968  0.2087  0.1363  0.1695
 1111YOPC   GL215814   3.018  15.602   6.170 -0.2992 -0.0487 -0.0203
 1111YOPC   C1A15815   2.406  15.250   6.173 -0.1428 -0.1108 -0.0642
 1111YOPC   D2A15816   2.339  14.898   6.392 -0.0986  0.1914  0.1499
 1111YOPC   C3A15817   2.219  14.748   6.820  0.0727  0.1976 -0.1040
 1111YOPC   C4A15818   2.070  14.462   7.114 -0.3510 -0.0073  0.2025
 1111YOPC   C1B15819   3.136  15.759   6.539 -0.0130 -0.0653 -0.1995
 1111YOPC   C2B15820   3.177  15.765   6.928 -0.2210  0.0140 -0.0818
 1111YOPC   D3B15821   3.030  16.113   7.113  0.0928  0.1189 -0.0826
 1111YOPC   C4B15822   2.870  16.528   7.293 -0.0301  0.2158  0.1389
 1112YOPC   NC315823   9.637  12.461   5.620 -0.0100 -0.5376  0.0121
 1112YOPC   PO415824   9.792  12.167   5.904  0.1301  0.2016  0.0834
 1112YOPC   GL115825   9.988  11.973   6.214  0.2443 -0.0867  0.0398
 1112YOPC   GL215826   9.952  11.650   6.399  0.0096 -0.0432  0.5024
 1112YOPC   C1A15827  10.238  11.972   6.616  0.1175  0.2071 -0.3443
 1112YOPC   D2A15828  10.339  11.972   7.105  0.1105 -0.3936 -0.0961
 1112YOPC   C3A15829  10.694  12.111   7.356 -0.1250  0.0038  0.4232
 1112YOPC   C4A15830  11.002  11.908   7.694  0.0170 -0.1678 -0.1177
 1112YOPC   C1B15831   9.996  11.306   6.667 -0.0656 -0.2044  0.1510
 1112YOPC   C2B15832   9.974  10.984   7.056  0.1110 -0.1175  0.2318
 1112YOPC   D3B15833  10.392  11.002   7.463 -0.1033  0.3630 -0.1314
 1112YOPC   C4B15834  10.732  10.652   7.756 -0.2493  0.2387  0.2144
 1113YOPC   NC315835  15.851  12.031   5.100  0.0176 -0.0574  0.0811
 1113YOPC   PO415836  15.961  12.119   5.479  0.1919 -0.2189 -0.0786
 1113YOPC   GL115837  15.685  12.270   5.799 -0.2614 -0.0326 -0.3034
 1113YOPC   GL215838  15.446  12.567   5.890  0.0590 -0.3542 -0.5198
 1113YOPC   C1A15839  15.521  11.821   6.000  0.1386 -0.2975  0.0921
 1113YOPC   D2A15840  15.264  11.373   6.082  0.0458  0.0494  0.0523
 1113YOPC   C3A15841  15.083  11.391   6.557  0.3194 -0.0317  0.0065
 1113YOPC   C4A15842  14.925  11.507   6.944 -0.1714 -0.1277  0.3388
 1113YOPC   C1B15843  15.317  12.320   6.224  0.1905  0.1805  0.0950
 1113YOPC   C2B15844  15.141  11.980   6.333 -0.1165  0.2946 -0.0204
 1113YOPC   D3B15845  15.135  11.947   6.724 -0.0357 -0.0825  0.2457
 1113YOPC   C4B15846  15.223  11.887   7.211  0.4654  0.2269 -0.1898
 1114YOPC   NC315847  17.848   7.694   6.092 -0.1993 -0.1149 -0.2369
 1114YOPC   PO415848  17.486   7.695   5.935  0.1877 -0.0787 -0.0057
 1114YOPC   GL115849  17.422   7.696   6.379 -0.2430 -0.0434 -0.0291
 1114YOPC   GL215850  17.116   7.609   6.487 -0.5540  0.1852  0.2880
 1114YOPC   C1A15851  17.476   7.567   6.804  0.0508  0.1124 -0.4264
 1114YOPC   D2A15852  17.402   7.698   7.241  0.1205  0.0959  0.0678
 1114YOPC   C3A15853  17.698   7.635   7.585  0.0627 -0.2050 -0.0070
 1114YOPC   C4A15854  18.038   7.906   7.816 -0.0388 -0.1505 -0.1446
 1114YOPC   C1B15855  16.706   7.729   6.467  0.2253 -0.2141  0.0536
 1114YOPC   C2B15856  16.439   7.489   6.741 -0.0389  0.0660  0.1099
 1114YOPC   D3B15857  16.431   7.614   7.115  0.0412  0.0182 -0.3510
 1114YOPC   C4B15858  16.282   7.410   7.456  0.1157 -0.1222  0.4716
 1115ERGO   ROH15859  15.589  17.984   6.479  0.1161  0.2772 -0.0747
 1115ERGO    R115860  15.488  17.954   6.742 -0.0044  0.2174 -0.1275
 1115ERGO    R215861  15.639  18.010   6.966 -0.0769  0.0750 -0.0456
 1115ERGO    R315862  15.429  18.170   7.028 -0.0410  0.1323 -0.0693
 1115ERGO    R415863  15.563  18.122   7.284 -0.2126 -0.1005 -0.0143
 1115ERGO    R515864  15.352  18.089   7.240 -0.2055  0.0245 -0.1654
 1115ERGO    C115865  15.321  18.338   7.528 -0.2580 -0.1490 -0.0184
 1115ERGO    C215866  15.383  18.465   7.851  0.0027 -0.0225 -0.0375
 1116ERGO   ROH15867   0.163   4.102   6.478  0.2893  0.1206 -0.0516
 1116ERGO    R115868   0.069   4.100   6.745  0.1107  0.1961 -0.1129
 1116ERGO    R215869   0.139   3.904   6.927 -0.1141  0.1738 -0.0453
 1116ERGO    R315870   0.215   4.117   7.077 -0.0992  0.1483 -0.0168
 1116ERGO    R415871   0.183   3.898   7.269  0.2115  0.0407 -0.0860
 1116ERGO    R515872   0.090   4.095   7.280  0.1038 -0.0197  0.0928
 1116ERGO    C115873   0.280   4.095   7.610  0.4151 -0.0609 -0.0829
 1116ERGO    C215874   0.311   4.148   7.938 -0.4857 -0.0796  0.0073
 1117ERGO   ROH15875   2.956   2.977   6.502  0.1715 -0.1783 -0.0397
 1117ERGO    R115876   3.042   2.969   6.771  0.0701 -0.0780 -0.0023
 1117ERGO    R215877   2.883   3.054   6.981 -0.0556 -0.1051 -0.0788
 1117ERGO    R315878   2.934   2.806   7.078  0.0238 -0.0615 -0.0112
 1117ERGO    R415879   2.815   2.951   7.304  0.0721 -0.0159 -0.0235
 1117ERGO    R515880   3.005   2.844   7.304  0.0891  0.0232 -0.0490
 1117ERGO    C115881   2.824   2.658   7.583  0.2211  0.0770  0.0721
 1117ERGO    C215882   2.699   2.674   7.928  0.1211  0.3172 -0.0556
 1118ERGO   ROH15883  15.922   1.363   6.032  0.2274  0.0840 -0.0431
 1118ERGO    R115884  15.969   1.307   6.305  0.0670  0.1198 -0.0071
 1118ERGO    R215885  16.124   1.470   6.466  0.0081  0.1183  0.0521
 1118ERGO    R315886  15.903   1.470   6.624 -0.0793  0.1835 -0.0695
 1118ERGO    R415887  16.127   1.485   6.811 -0.1737  0.0315  0.0583
 1118ERGO    R515888  15.965   1.339   6.814 -0.2450  0.1066 -0.0664
 1118ERGO    C115889  15.921   1.494   7.160 -0.3615  0.0422 -0.0522
 1118ERGO    C215890  16.101   1.423   7.402  0.2242 -0.0466  0.2851
 1119ERGO   ROH15891   8.178  12.842   6.089  0.3063  0.0836  0.1022
 1119ERGO    R115892   8.287  12.806   6.348  0.1589  0.0487  0.1601
 1119ERGO    R215893   8.297  13.010   6.535  0.0216  0.0141  0.2061
 1119ERGO    R315894   8.166  12.829   6.691 -0.0463 -0.0336  0.0951
 1119ERGO    R415895   8.181  13.072   6.855  0.0088 -0.1246  0.2290
 1119ERGO    R515896   8.246  12.872   6.912 -0.0546 -0.1765  0.1274
 1119ERGO    C115897   7.990  12.939   7.187 -0.0624 -0.2501  0.1381
 1119ERGO    C215898   7.752  13.026   7.430 -0.1029 -0.0740  0.0731
 1120ERGO   ROH15899  13.117  14.521   6.174  0.0500  0.0086 -0.1353
 1120ERGO    R115900  13.172  14.394   6.421  0.0732 -0.0240 -0.1572
 1120ERGO    R215901  13.428  14.363   6.519  0.0673  0.1666 -0.0782
 1120ERGO    R315902  13.324  14.487   6.738 -0.1171  0.0081 -0.0735
 1120ERGO    R415903  13.556  14.339   6.839 -0.0153  0.1873 -0.0433
 1120ERGO    R515904  13.352  14.328   6.915 -0.0315 -0.0206 -0.1124
 1120ERGO    C115905  13.532  14.441   7.231 -0.2364  0.0507 -0.0187
 1120ERGO    C215906  13.785  14.376   7.498 -0.0030  0.0222  0.0718
 1121ERGO   ROH15907   2.983  16.957   6.161 -0.3585  0.0415 -0.0901
 1121ERGO    R115908   2.999  16.880   6.433 -0.3351 -0.0567 -0.1200
 1121ERGO    R215909   3.091  17.050   6.631 -0.1275 -0.1968 -0.0996
 1121ERGO    R315910   2.853  16.989   6.748 -0.1406 -0.0321 -0.0354
 1121ERGO    R415911   3.020  17.087   6.967 -0.0065 -0.1382 -0.0793
 1121ERGO    R515912   2.912  16.898   6.961 -0.1406 -0.0697 -0.0475
 1121ERGO    C115913   2.756  17.052   7.273  0.0516  0.0509 -0.0072
 1121ERGO    C215914   2.545  16.957   7.556  0.3197  0.0812 -0.3263
 1122ERGO   ROH15915   8.846  17.427   5.706 -0.2700  0.0878  0.0811
 1122ERGO    R115916   8.849  17.321   5.968 -0.0898 -0.0047  0.0425
 1122ERGO    R215917   9.073  17.330   6.129 -0.0421  0.1207 -0.0379
 1122ERGO    R315918   8.903  17.450   6.305 -0.0762 -0.0840  0.0724
 1122ERGO    R415919   9.157  17.424   6.451  0.0435  0.1512 -0.0682
 1122ERGO    R515920   8.960  17.353   6.517  0.1437 -0.0666  0.0280
 1122ERGO    C115921   9.046  17.590   6.804  0.0615 -0.0231  0.0177
 1122ERGO    C215922   9.165  17.723   7.041  0.2933 -0.0219  0.0659
 1123ERGO   ROH15923  16.448   2.823   9.393  0.1376  0.1417 -0.0036
 1123ERGO    R115924  16.412   2.707   9.137  0.0393  0.0856  0.0344
 1123ERGO    R215925  16.443   2.850   8.903 -0.0411  0.0346 -0.0135
 1123ERGO    R315926  16.616   2.650   8.841 -0.0693  0.0150 -0.0258
 1123ERGO    R415927  16.492   2.723   8.586 -0.2203 -0.1172  0.0185
 1123ERGO    R515928  16.502   2.523   8.673 -0.1586 -0.0712  0.1033
 1123ERGO    C115929  16.683   2.460   8.343 -0.3513 -0.2240  0.0257
 1123ERGO    C215930  16.697   2.603   8.077  0.1245 -0.1935 -0.0846
 1124ERGO   ROH15931   1.458   6.441   6.516  0.1141 -0.0113  0.0879
 1124ERGO    R115932   1.477   6.320   6.772  0.0324 -0.0791  0.0638
 1124ERGO    R215933   1.700   6.346   6.932 -0.0209 -0.1075  0.1537
 1124ERGO    R315934   1.519   6.433   7.115 -0.0944 -0.1654  0.1064
 1124ERGO    R415935   1.721   6.288   7.272 -0.1177 -0.1238  0.1564
 1124ERGO    R515936   1.505   6.254   7.274 -0.1037 -0.1734  0.0891
 1124ERGO    C115937   1.564   6.336   7.642 -0.2431 -0.1877  0.1135
 1124ERGO    C215938   1.708   6.335   7.909 -0.2190  0.1779  0.0282
 1125ERGO   ROH15939   5.293  11.591  10.063  0.2310  0.1035  0.0887
 1125ERGO    R115940   5.392  11.614   9.799  0.1339  0.1448  0.0553
 1125ERGO    R215941   5.429  11.395   9.635  0.3481  0.1370  0.1077
 1125ERGO    R315942   5.272  11.536   9.464  0.1312 -0.0942  0.1111
 1125ERGO    R415943   5.465  11.397   9.291  0.2586  0.1092  0.0979
 1125ERGO    R515944   5.423  11.612   9.294 -0.0057  0.0570  0.0579
 1125ERGO    C115945   5.339  11.531   8.930  0.0028 -0.1240  0.0952
 1125ERGO    C215946   5.524  11.537   8.714  0.4489 -0.1698  0.2849
 1126ERGO   ROH15947   4.567  16.569   6.197 -0.0167 -0.0199 -0.1145
 1126ERGO    R115948   4.528  16.687   6.451 -0.2313 -0.0082 -0.1519
 1126ERGO    R215949   4.337  16.598   6.629 -0.0435 -0.3299 -0.1097
 1126ERGO    R315950   4.549  16.581   6.799  0.0094  0.1474 -0.1155
 1126ERGO    R415951   4.313  16.544   6.970  0.0793 -0.5810 -0.1380
 1126ERGO    R515952   4.473  16.689   6.999 -0.2994 -0.1533 -0.0572
 1126ERGO    C115953   4.499  16.497   7.328  0.2004 -0.2789 -0.1601
 1126ERGO    C215954   4.538  16.346   7.655 -0.2604 -0.1228 -0.1744
 1127ERGO   ROH15955  10.124   0.570   6.417 -0.0828  0.0696  0.0830
 1127ERGO    R115956  10.204   0.641   6.679 -0.0714  0.0081  0.0966
 1127ERGO    R215957  10.040   0.609   6.898 -0.0823  0.0055  0.0899
 1127ERGO    R315958  10.252   0.469   6.996 -0.1131 -0.0568  0.0675
 1127ERGO    R415959  10.177   0.652   7.213  0.0783  0.0917  0.0090
 1127ERGO    R515960  10.375   0.630   7.124  0.0283 -0.0570 -0.0666
 1127ERGO    C115961  10.456   0.546   7.487  0.1431  0.0835 -0.0591
 1127ERGO    C215962  10.263   0.634   7.865 -0.0339 -0.0139  0.2320
 1128ERGO   ROH15963  12.368   6.763   6.476  0.1447  0.0332  0.0260
 1128ERGO    R115964  12.182   6.640   6.650  0.2688 -0.1002  0.0627
 1128ERGO    R215965  12.228   6.613   6.921  0.1738  0.3036  0.1178
 1128ERGO    R315966  11.987   6.738   6.942 -0.0784 -0.1044 -0.1602
 1128ERGO    R415967  12.041   6.630   7.211  0.1407  0.5504  0.0869
 1128ERGO    R515968  11.861   6.597   7.090  0.1914 -0.0539  0.1354
 1128ERGO    C115969  11.706   6.757   7.400 -0.1154  0.3111 -0.1920
 1128ERGO    C215970  11.566   6.881   7.609 -0.0374  0.2092 -0.1288
 1129ERGO   ROH15971  14.724  11.244   6.215  0.1417  0.3072  0.1223
 1129ERGO    R115972  14.516  11.244   6.408  0.1008  0.0609  0.0827
 1129ERGO    R215973  14.558  11.177   6.672  0.1209  0.0682  0.0831
 1129ERGO    R315974  14.444  11.419   6.719 -0.1449 -0.0555  0.0931
 1129ERGO    R415975  14.491  11.307   6.985  0.0707  0.0290  0.0886
 1129ERGO    R515976  14.302  11.383   6.908 -0.0429 -0.1970  0.1423
 1129ERGO    C115977  14.344  11.610   7.211 -0.2081 -0.1100  0.1012
 1129ERGO    C215978  14.212  11.811   7.333 -0.4055  0.0065  0.5550
 1130ERGO   ROH15979  18.088   8.344   6.497 -0.1285 -0.0117 -0.1013
 1130ERGO    R115980  18.030   8.278   6.766 -0.0684  0.1647 -0.0439
 1130ERGO    R215981  18.199   8.123   6.921 -0.2336 -0.0957 -0.1174
 1130ERGO    R315982  18.184   8.335   7.091  0.2549 -0.0142 -0.1605
 1130ERGO    R415983  18.304   8.120   7.251 -0.0597 -0.2070 -0.1728
 1130ERGO    R515984  18.128   8.237   7.303  0.1817  0.1427 -0.1054
 1130ERGO    C115985  18.351   8.317   7.602  0.5001 -0.1954 -0.2454
 1130ERGO    C215986  18.326   8.332   7.903  0.3617  0.0725  0.1091
 1131ERGO   ROH15987   5.349  15.091   6.114 -0.2825 -0.2664  0.0892
 1131ERGO    R115988   5.497  14.963   6.318  0.1122 -0.1752 -0.1268
 1131ERGO    R215989   5.736  15.063   6.414  0.0044  0.2020 -0.2065
 1131ERGO    R315990   5.610  15.045   6.654  0.1874 -0.2533 -0.1361
 1131ERGO    R415991   5.896  15.032   6.719  0.2443  0.2382 -0.3276
 1131ERGO    R515992   5.742  14.889   6.779  0.5600 -0.1089 -0.3507
 1131ERGO    C115993   5.871  14.997   7.122  0.5558 -0.1682 -0.3320
 1131ERGO    C215994   5.838  15.223   7.324 -0.0640  0.0986  0.0767
 1132ERGO   ROH15995   7.353  13.650   6.228  0.3175 -0.1033 -0.1367
 1132ERGO    R115996   7.566  13.594   6.406  0.2426 -0.0735 -0.0367
 1132ERGO    R215997   7.670  13.784   6.578  0.1455 -0.0549  0.0015
 1132ERGO    R315998   7.617  13.595   6.766  0.0790 -0.0507 -0.0128
 1132ERGO    R415999   7.760  13.805   6.911  0.0489 -0.0564  0.0280
 1132ERGO    R516000   7.811  13.594   6.906  0.0385 -0.0601  0.0445
 1132ERGO    C116001   7.762  13.641   7.281 -0.0699 -0.0532  0.0300
 1132ERGO    C216002   7.775  13.473   7.714  0.1191  0.3322 -0.0586
 1133ERGO   ROH16003   0.031   9.176   6.697 -0.0075 -0.2948 -0.0047
 1133ERGO    R116004  -0.061   9.325   6.920 -0.1108 -0.2493 -0.0773
 1133ERGO    R216005  -0.276   9.245   7.074 -0.0129 -0.3598  0.0018
 1133ERGO    R316006  -0.098   9.270   7.278 -0.0033 -0.0752 -0.0383
 1133ERGO    R416007  -0.355   9.223   7.409  0.0571 -0.2362  0.0272
 1133ERGO    R516008  -0.219   9.388   7.448 -0.0875 -0.0847 -0.0902
 1133ERGO    C116009  -0.235   9.234   7.796  0.1069  0.1031  0.0044
 1133ERGO    C216010  -0.228   9.176   8.171  0.0402  0.0249  0.0591
 1134ERGO   ROH16011   7.445   1.366   6.138  0.3987  0.0164 -0.0548
 1134ERGO    R116012   7.354   1.350   6.405  0.1582  0.1957 -0.1216
 1134ERGO    R216013   7.440   1.153   6.580 -0.2033  0.1461  0.0109
 1134ERGO    R316014   7.503   1.366   6.737 -0.0928  0.1235 -0.0028
 1134ERGO    R416015   7.410   1.160   6.924 -0.2938  0.2185  0.0018
 1134ERGO    R516016   7.336   1.365   6.909 -0.1413  0.2699 -0.0486
 1134ERGO    C116017   7.452   1.364   7.272 -0.2427  0.2393 -0.0164
 1134ERGO    C216018   7.684   1.271   7.497 -0.0288  0.1804  0.0598
 1135ERGO   ROH16019   3.981   8.358   6.385  0.0509  0.1436  0.1481
 1135ERGO    R116020   4.020   8.393   6.663  0.0712  0.1394  0.1461
 1135ERGO    R216021   3.836   8.519   6.825  0.0799  0.1325  0.1633
 1135ERGO    R316022   3.853   8.289   6.969  0.0962  0.1296  0.1561
 1135ERGO    R416023   3.830   8.502   7.170 -0.0078  0.1128  0.1609
 1135ERGO    R516024   3.985   8.348   7.159  0.0309  0.1507  0.1944
 1135ERGO    C116025   3.843   8.275   7.506 -0.0436  0.0986  0.1528
 1135ERGO    C216026   3.856   8.213   7.865 -0.1072  0.2357  0.0234
 1136ERGO   ROH16027  13.605   0.043   6.209  0.0117  0.0176 -0.1827
 1136ERGO    R116028  13.560   0.049   6.489 -0.0011 -0.1521 -0.1804
 1136ERGO    R216029  13.664  -0.142   6.660  0.1997 -0.1182 -0.2632
 1136ERGO    R316030  13.764   0.076   6.789 -0.0343 -0.0642 -0.1652
 1136ERGO    R416031  13.728  -0.126   6.999  0.1487 -0.1877 -0.2496
 1136ERGO    R516032  13.650   0.078   7.000 -0.0601 -0.2650 -0.1750
 1136ERGO    C116033  13.861   0.087   7.318 -0.1007 -0.1772 -0.1498
 1136ERGO    C216034  13.896   0.064   7.628  0.2079 -0.0353  0.1344
 1137ERGO   ROH16035   5.067   8.162  10.216 -0.2867  0.1661  0.0484
 1137ERGO    R116036   4.998   8.037   9.972 -0.5065  0.1256  0.1290
 1137ERGO    R216037   4.797   8.132   9.808 -0.2224  0.4915 -0.0238
 1137ERGO    R316038   4.993   8.128   9.620 -0.1464 -0.1502  0.0473
 1137ERGO    R416039   4.743   8.106   9.467 -0.1877  0.6545 -0.0421
 1137ERGO    R516040   4.915   7.972   9.456 -0.6011  0.0839  0.0266
 1137ERGO    C116041   4.896   8.088   9.093 -0.0960  0.1469  0.0141
 1137ERGO    C216042   4.939   7.997   8.664 -0.0364 -0.1918  0.2889
 1138ERGO   ROH16043   9.576   9.590   6.273 -0.1044 -0.0297  0.0233
 1138ERGO    R116044   9.468   9.427   6.478 -0.0412 -0.0996  0.0021
 1138ERGO    R216045   9.613   9.354   6.701 -0.0279 -0.0325  0.0173
 1138ERGO    R316046   9.401   9.460   6.834 -0.1025 -0.1537 -0.0045
 1138ERGO    R416047   9.508   9.257   7.016  0.1181  0.0422  0.0895
 1138ERGO    R516048   9.302   9.274   6.947  0.0886 -0.1845  0.1158
 1138ERGO    C116049   9.247   9.301   7.324  0.1330 -0.0281  0.1111
 1138ERGO    C216050   9.062   9.317   7.569  0.3587 -0.2806  0.0869
 1139ERGO   ROH16051  10.171  18.338   6.332 -0.1395 -0.0270  0.0015
 1139ERGO    R116052  10.148  18.155   6.546  0.0257  0.0639  0.0984
 1139ERGO    R216053  10.092  18.234   6.804 -0.1303  0.1448  0.0409
 1139ERGO    R316054   9.890  18.054   6.782  0.0852 -0.1093  0.0905
 1139ERGO    R416055   9.959  18.054   7.068 -0.1168  0.2839  0.1447
 1139ERGO    R516056   9.949  17.880   6.936  0.1721  0.1227  0.3261
 1139ERGO    C116057   9.692  17.779   7.200  0.0933  0.1268  0.2516
 1139ERGO    C216058   9.378  17.775   7.453  0.1307  0.0648  0.0295
 1140ERGO   ROH16059  17.655   5.343   6.567  0.0386 -0.0216  0.2123
 1140ERGO    R116060  17.490   5.510   6.725 -0.0001 -0.0219  0.1728
 1140ERGO    R216061  17.353   5.417   6.947  0.0594  0.0098  0.2243
 1140ERGO    R316062  17.481   5.622   7.072  0.0048  0.0996  0.1339
 1140ERGO    R416063  17.267   5.544   7.257 -0.0091  0.1630  0.1437
 1140ERGO    R516064  17.306   5.744   7.180 -0.0322  0.1283  0.0416
 1140ERGO    C116065  17.338   5.809   7.555 -0.1002  0.3365  0.0119
 1140ERGO    C216066  17.070   6.009   7.768  0.0482  0.0922  0.0984
 1141ERGO   ROH16067   5.772  17.752   6.215 -0.1901  0.0065 -0.0918
 1141ERGO    R116068   5.641  17.703   6.461 -0.1747 -0.0882 -0.1019
 1141ERGO    R216069   5.764  17.576   6.673 -0.1351 -0.0964 -0.1305
 1141ERGO    R316070   5.688  17.798   6.809 -0.2039 -0.1500 -0.0805
 1141ERGO    R416071   5.811  17.625   7.012  0.0895 -0.0525 -0.1663
 1141ERGO    R516072   5.613  17.715   7.021  0.0228 -0.2054 -0.0175
 1141ERGO    C116073   5.767  17.862   7.337  0.1555 -0.0776 -0.1405
 1141ERGO    C216074   6.007  17.908   7.717  0.0294 -0.2192 -0.0261
 1142ERGO   ROH16075   7.808  14.235   6.239 -0.2810  0.1707  0.1280
 1142ERGO    R116076   7.729  14.358   6.481 -0.2233  0.1051  0.1807
 1142ERGO    R216077   7.694  14.216   6.716 -0.0273  0.0626  0.1868
 1142ERGO    R316078   7.869  14.399   6.815 -0.0733  0.1472  0.1136
 1142ERGO    R416079   7.655  14.385   7.014  0.0736 -0.0468  0.2626
 1142ERGO    R516080   7.730  14.565   6.917 -0.1097  0.0300  0.2583
 1142ERGO    C116081   7.796  14.655   7.282  0.0892 -0.0312  0.2382
 1142ERGO    C216082   7.697  14.927   7.470  0.1204  0.0204 -0.2790
 1143ERGO   ROH16083   1.365  17.841   6.165 -0.1671 -0.0444 -0.0821
 1143ERGO    R116084   1.496  17.681   6.358 -0.0348  0.0163 -0.1208
 1143ERGO    R216085   1.528  17.762   6.621  0.0305  0.0421 -0.1388
 1143ERGO    R316086   1.408  17.523   6.674  0.1430 -0.0020 -0.0781
 1143ERGO    R416087   1.454  17.644   6.937 -0.0866  0.1822 -0.1125
 1143ERGO    R516088   1.517  17.445   6.873  0.0752  0.1788  0.0356
 1143ERGO    C116089   1.299  17.351   7.171 -0.0492  0.2230 -0.0402
 1143ERGO    C216090   1.140  17.081   7.330 -0.3648  0.1990 -0.0355
 1144ERGO   ROH16091   1.252  16.010   6.083 -0.2036 -0.0013  0.0024
 1144ERGO    R116092   1.233  15.928   6.353 -0.1439 -0.0930 -0.0203
 1144ERGO    R216093   1.447  15.819   6.491 -0.0177  0.1581 -0.0072
 1144ERGO    R316094   1.391  16.018   6.668 -0.3189  0.0471  0.0286
 1144ERGO    R416095   1.541  15.821   6.824  0.1412  0.3237 -0.0518
 1144ERGO    R516096   1.347  15.904   6.874 -0.0022 -0.0527  0.0456
 1144ERGO    C116097   1.544  16.008   7.183 -0.0491  0.3162 -0.0442
 1144ERGO    C216098   1.691  16.159   7.477  0.0167 -0.2925  0.7389
 1145ERGO   ROH16099   0.994  11.778   6.194  0.0335  0.2146  0.1573
 1145ERGO    R116100   1.000  11.773   6.477  0.1498  0.0543  0.1529
 1145ERGO    R216101   0.968  11.540   6.623  0.0269  0.0001  0.0350
 1145ERGO    R316102   1.204  11.616   6.734  0.1355 -0.2501 -0.0154
 1145ERGO    R416103   1.073  11.456   6.941 -0.0517 -0.0175  0.0574
 1145ERGO    R516104   1.151  11.658   6.964  0.2029 -0.0996 -0.0236
 1145ERGO    C116105   1.356  11.478   7.231  0.0045 -0.2626  0.0231
 1145ERGO    C216106   1.535  11.358   7.430  0.2797 -0.1207 -0.1280
 1146ERGO   ROH16107   0.166   7.038   6.445  0.1157 -0.2928 -0.0599
 1146ERGO    R116108   0.341   7.050   6.667  0.0800  0.0603 -0.0464
 1146ERGO    R216109   0.322   7.247   6.860 -0.4199 -0.0452  0.0219
 1146ERGO    R316110   0.309   7.034   7.029  0.0950 -0.1479 -0.0525
 1146ERGO    R416111   0.350   7.266   7.204 -0.5915 -0.0700  0.0381
 1146ERGO    R516112   0.470   7.084   7.200 -0.0870  0.2415  0.0186
 1146ERGO    C116113   0.354   7.078   7.563 -0.2080 -0.1809 -0.0223
 1146ERGO    C216114   0.426   7.095   7.856 -0.1064 -0.0524 -0.2522
 1147ERGO   ROH16115   0.952   2.229   6.502 -0.0959 -0.0684 -0.0105
 1147ERGO    R116116   0.825   2.261   6.753 -0.0775 -0.3528  0.0402
 1147ERGO    R216117   0.880   2.100   6.970  0.3938 -0.2241  0.0330
 1147ERGO    R316118   0.927   2.337   7.094 -0.1063 -0.0923 -0.0073
 1147ERGO    R416119   0.882   2.145   7.312  0.3017 -0.1577  0.0242
 1147ERGO    R516120   0.779   2.335   7.282 -0.1060 -0.3749 -0.0073
 1147ERGO    C116121   0.927   2.394   7.628 -0.2214  0.0047 -0.0188
 1147ERGO    C216122   1.082   2.541   7.941  0.0177  0.0130  0.2280
 1148ERGO   ROH16123   9.829   5.890   8.008  0.0858 -0.2199  0.0683
 1148ERGO    R116124   9.955   6.078   7.839 -0.0154 -0.2909 -0.0887
 1148ERGO    R216125  10.094   6.297   7.936 -0.2193 -0.0722 -0.2693
 1148ERGO    R316126  10.295   6.197   7.783 -0.0930 -0.0759 -0.1036
 1148ERGO    R416127  10.336   6.487   7.779 -0.1409 -0.0772 -0.1553
 1148ERGO    R516128  10.319   6.356   7.605  0.0046 -0.1239 -0.1295
 1148ERGO    C116129  10.666   6.504   7.543  0.0235 -0.0835  0.0665
 1148ERGO    C216130  10.721   6.694   7.281 -0.0538  0.0577  0.1931
 1149ERGO   ROH16131   2.637   3.821   6.362  0.0475 -0.0188  0.0205
 1149ERGO    R116132   2.408   3.804   6.529  0.0440  0.0496  0.0227
 1149ERGO    R216133   2.406   3.657   6.763 -0.0193 -0.0084 -0.0151
 1149ERGO    R316134   2.324   3.893   6.871  0.0969  0.0042  0.0479
 1149ERGO    R416135   2.201   3.686   7.039 -0.0433  0.0175 -0.0352
 1149ERGO    R516136   2.098   3.851   6.940  0.0624  0.1080  0.0018
 1149ERGO    C116137   2.004   3.924   7.302  0.0518  0.0445  0.0123
 1149ERGO    C216138   2.021   4.153   7.575  0.0436 -0.0979 -0.0907
 1150ERGO   ROH16139   8.912   6.048   9.780  0.2792  0.1233  0.0613
 1150ERGO    R116140   8.969   6.057   9.503  0.2810  0.1449  0.0618
 1150ERGO    R216141   8.811   5.931   9.314  0.4120 -0.0423  0.0686
 1150ERGO    R316142   8.802   6.179   9.203  0.1655 -0.0609  0.0422
 1150ERGO    R416143   8.782   5.995   8.975  0.3264 -0.0946  0.0659
 1150ERGO    R516144   8.926   6.157   8.999  0.1696  0.0432  0.0379
 1150ERGO    C116145   8.757   6.265   8.674  0.0452 -0.1426  0.0396
 1150ERGO    C216146   8.638   6.134   8.422  0.3347 -0.1350 -0.2091
 1151ERGO   ROH16147   4.826   2.857   6.090 -0.0062  0.3058 -0.0523
 1151ERGO    R116148   4.808   3.014   6.324 -0.0120  0.1238  0.0729
 1151ERGO    R216149   4.833   2.908   6.578  0.2036 -0.0421 -0.0102
 1151ERGO    R316150   5.024   3.099   6.604  0.0676  0.0906  0.0197
 1151ERGO    R416151   4.914   3.066   6.874  0.0710  0.0034  0.0017
 1151ERGO    R516152   4.933   3.253   6.763 -0.0492  0.0190  0.0170
 1151ERGO    C116153   5.141   3.338   7.071 -0.1339  0.1545  0.0367
 1151ERGO    C216154   5.271   3.433   7.416  0.0525  0.0575  0.4136
 1152ERGO   ROH16155   0.970  14.913   6.550  0.0501  0.1591  0.1000
 1152ERGO    R116156   0.736  14.776   6.632  0.1276  0.0253  0.1022
 1152ERGO    R216157   0.743  14.537   6.769  0.2682  0.0979  0.2282
 1152ERGO    R316158   0.587  14.670   6.947  0.1186  0.0768  0.1146
 1152ERGO    R416159   0.588  14.392   7.042  0.2013  0.1101  0.1969
 1152ERGO    R516160   0.412  14.515   7.000  0.1652  0.0142  0.0767
 1152ERGO    C116161   0.351  14.434   7.368  0.0219  0.0974  0.0720
 1152ERGO    C216162   0.387  14.233   7.646  0.0619  0.2341 -0.0979
 1153ERGO   ROH16163   3.693  11.442   6.346 -0.1607  0.0891 -0.0199
 1153ERGO    R116164   3.755  11.535   6.605 -0.0138 -0.0122 -0.0176
 1153ERGO    R216165   3.563  11.576   6.799  0.0495  0.2496 -0.0061
 1153ERGO    R316166   3.723  11.412   6.946 -0.1715  0.0126 -0.0230
 1153ERGO    R416167   3.534  11.525   7.140 -0.0697  0.1891 -0.0245
 1153ERGO    R516168   3.752  11.528   7.154 -0.0657 -0.0784  0.0143
 1153ERGO    C116169   3.667  11.342   7.476 -0.3466 -0.0688 -0.0511
 1153ERGO    C216170   3.455  11.151   7.713  0.0283 -0.0643  0.2038
 1154ERGO   ROH16171  13.420   8.529   7.521  0.0866  0.2735  0.1539
 1154ERGO    R116172  13.325   8.689   7.307  0.0242  0.1328  0.0743
 1154ERGO    R216173  13.238   8.949   7.343 -0.1619  0.0907 -0.0387
 1154ERGO    R316174  13.421   9.002   7.149 -0.1529  0.1418 -0.0155
 1154ERGO    R416175  13.294   9.261   7.205 -0.1186  0.1340  0.0767
 1154ERGO    R516176  13.314   9.165   7.010 -0.1275  0.2061  0.0435
 1154ERGO    C116177  13.498   9.493   6.942 -0.0850  0.2072  0.1658
 1154ERGO    C216178  13.621   9.600   6.607 -0.1379 -0.0632 -0.1204
 1155ERGO   ROH16179  14.607  14.488   6.500 -0.2417  0.1205  0.1229
 1155ERGO    R116180  14.525  14.362   6.740 -0.0919 -0.0274  0.0972
 1155ERGO    R216181  14.637  14.125   6.829  0.1781  0.0763  0.0379
 1155ERGO    R316182  14.681  14.268   7.056  0.0256  0.0736  0.0706
 1155ERGO    R416183  14.664  13.988   7.145  0.1564  0.0494  0.0285
 1155ERGO    R516184  14.548  14.157   7.222  0.0349 -0.0246  0.0145
 1155ERGO    C116185  14.722  14.043   7.542  0.0005  0.0313  0.0537
 1155ERGO    C216186  14.713  13.809   7.797  0.0854 -0.0035 -0.1501
 1156ERGO   ROH16187   5.248  13.473   6.155  0.3760 -0.2028 -0.1444
 1156ERGO    R116188   5.251  13.411   6.431  0.1568  0.0131 -0.0901
 1156ERGO    R216189   5.459  13.273   6.551 -0.0720 -0.1529  0.1246
 1156ERGO    R316190   5.462  13.488   6.718  0.1082 -0.0196 -0.0449
 1156ERGO    R416191   5.515  13.258   6.892 -0.1405  0.0614  0.1472
 1156ERGO    R516192   5.360  13.408   6.919 -0.0024  0.2367  0.0052
 1156ERGO    C116193   5.551  13.450   7.247 -0.0113  0.3114  0.0012
 1156ERGO    C216194   5.474  13.778   7.571 -0.0811 -0.2667 -0.1258
 1157ERGO   ROH16195  10.173  15.401   5.970  0.1022 -0.1172  0.2555
 1157ERGO    R116196   9.987  15.513   6.152  0.0862 -0.0480  0.1967
 1157ERGO    R216197   9.753  15.385   6.223  0.0240  0.0290  0.1387
 1157ERGO    R316198   9.846  15.424   6.475 -0.0324  0.0139  0.1620
 1157ERGO    R416199   9.555  15.400   6.506 -0.0107 -0.2585  0.1328
 1157ERGO    R516200   9.680  15.563   6.579 -0.1639 -0.1751  0.2063
 1157ERGO    C116201   9.527  15.445   6.908 -0.0839 -0.4402  0.1514
 1157ERGO    C216202   9.413  15.267   7.083  0.4915  0.3038  0.0414
 1158ERGO   ROH16203  10.689  16.870   6.409 -0.1177 -0.0882  0.0616
 1158ERGO    R116204  10.557  16.935   6.651 -0.0385 -0.0302  0.0908
 1158ERGO    R216205  10.324  16.809   6.732 -0.1355  0.1388  0.0926
 1158ERGO    R316206  10.467  16.761   6.958 -0.1428 -0.0239  0.0627
 1158ERGO    R416207  10.192  16.804   7.051 -0.1240 -0.0240  0.0947
 1158ERGO    R516208  10.371  16.907   7.121 -0.1055 -0.1043  0.1521
 1158ERGO    C116209  10.250  16.755   7.449 -0.1242 -0.2717  0.0677
 1158ERGO    C216210  10.158  16.593   7.728  0.1982 -0.3175 -0.1245
 1159ERGO   ROH16211   2.436   7.167   6.280  0.1434 -0.0456 -0.1260
 1159ERGO    R116212   2.462   7.155   6.562  0.1491  0.1037 -0.1193
 1159ERGO    R216213   2.392   6.930   6.708  0.0923  0.2049  0.0074
 1159ERGO    R316214   2.646   6.952   6.801  0.1009  0.1856 -0.0109
 1159ERGO    R416215   2.498   6.828   7.020  0.0926  0.2369  0.0180
 1159ERGO    R516216   2.621   7.007   7.033  0.1183  0.2246 -0.0163
 1159ERGO    C116217   2.798   6.788   7.290  0.1008  0.2374  0.0070
 1159ERGO    C216218   2.909   6.854   7.701 -0.1414  0.1006  0.2371
 1160ERGO   ROH16219   0.974   9.425   6.399 -0.0975 -0.2644 -0.0905
 1160ERGO    R116220   1.047   9.461   6.670 -0.0898 -0.2735 -0.0921
 1160ERGO    R216221   1.213   9.285   6.805  0.0976 -0.1546 -0.1719
 1160ERGO    R316222   1.357   9.509   6.856 -0.1051 -0.0325 -0.1233
 1160ERGO    R416223   1.381   9.349   7.099  0.2886 -0.2159 -0.2651
 1160ERGO    R516224   1.315   9.556   7.087  0.0427 -0.2701 -0.0409
 1160ERGO    C116225   1.614   9.598   7.320  0.2095 -0.1369 -0.2736
 1160ERGO    C216226   1.799   9.802   7.530 -0.0577  0.2652 -0.0270
 1161ERGO   ROH16227   2.066  12.368   6.089  0.0906 -0.0267 -0.0186
 1161ERGO    R116228   1.930  12.398   6.336  0.0522  0.0432 -0.0495
 1161ERGO    R216229   1.874  12.185   6.502  0.0915  0.1041  0.0316
 1161ERGO    R316230   2.003  12.337   6.687  0.0219  0.2173 -0.0099
 1161ERGO    R416231   1.810  12.180   6.842  0.2370 -0.0059  0.0589
 1161ERGO    R516232   1.833  12.397   6.845  0.0197  0.0263  0.0705
 1161ERGO    C116233   1.895  12.319   7.213  0.2563  0.0364  0.0357
 1161ERGO    C216234   1.981  12.239   7.505 -0.3301  0.2921 -0.3888
 1162ERGO   ROH16235   7.499  17.947   6.192  0.1044  0.0858  0.0749
 1162ERGO    R116236   7.364  18.082   6.401  0.0940  0.0992  0.0580
 1162ERGO    R216237   7.401  18.018   6.667  0.1062  0.1413  0.0595
 1162ERGO    R316238   7.458  18.282   6.690  0.0728  0.1524  0.0306
 1162ERGO    R416239   7.357  18.206   6.954  0.3577  0.0860  0.1374
 1162ERGO    R516240   7.284  18.369   6.830  0.1892  0.0916  0.2264
 1162ERGO    C116241   7.386  18.564   7.142  0.4727  0.0644  0.1556
 1162ERGO    C216242   7.139  18.693   7.373  0.1459 -0.1152  0.1779
 1163ERGO   ROH16243  12.092   9.693   6.713  0.0032 -0.0003  0.0118
 1163ERGO    R116244  12.317   9.810   6.837 -0.0709  0.1723 -0.0140
 1163ERGO    R216245  12.295  10.010   7.027 -0.2177 -0.0207  0.1798
 1163ERGO    R316246  12.446   9.841   7.176  0.0826  0.0277 -0.0582
 1163ERGO    R416247  12.520  10.109   7.270 -0.4016  0.0389  0.3285
 1163ERGO    R516248  12.656   9.954   7.200 -0.1145  0.3762  0.1063
 1163ERGO    C116249  12.793  10.007   7.552 -0.2270  0.1189  0.1917
 1163ERGO    C216250  13.001   9.940   7.811 -0.1799 -0.3096 -0.2779
 1164ERGO   ROH16251  14.144  11.487   8.558 -0.0876  0.0735  0.0008
 1164ERGO    R116252  14.237  11.677   8.370 -0.0126 -0.0629 -0.1012
 1164ERGO    R216253  14.229  11.633   8.098 -0.1675 -0.1446 -0.0851
 1164ERGO    R316254  14.096  11.870   8.097  0.0252 -0.0345 -0.1005
 1164ERGO    R416255  14.184  11.833   7.819 -0.0311 -0.1365 -0.1021
 1164ERGO    R516256  14.220  12.008   7.945  0.1226 -0.1519 -0.1265
 1164ERGO    C116257  14.033  12.172   7.656  0.2290 -0.0284 -0.1264
 1164ERGO    C216258  13.795  12.369   7.588 -0.1291  0.1588 -0.4133
 1165ERGO   ROH16259  17.119   9.976   6.475  0.0134 -0.1056 -0.0962
 1165ERGO    R116260  17.023   9.834   6.701 -0.0068 -0.0503 -0.0702
 1165ERGO    R216261  17.153   9.836   6.945 -0.0199 -0.0043 -0.0659
 1165ERGO    R316262  16.911   9.917   7.037 -0.0197  0.0289 -0.0931
 1165ERGO    R416263  17.033   9.775   7.263 -0.0029  0.1302 -0.0325
 1165ERGO    R516264  16.837   9.736   7.176 -0.0071  0.0845 -0.0098
 1165ERGO    C116265  16.735   9.815   7.535  0.0071  0.2399 -0.0387
 1165ERGO    C216266  16.669   9.587   7.822  0.0087 -0.3563  0.0892
 1166ERGO   ROH16267  12.138  15.205   6.370 -0.1162 -0.0989  0.0090
 1166ERGO    R116268  12.044  15.107   6.619 -0.0381 -0.1923  0.0019
 1166ERGO    R216269  12.179  14.914   6.763  0.1522 -0.0468  0.0177
 1166ERGO    R316270  12.165  15.099   6.962 -0.0623 -0.0571  0.0154
 1166ERGO    R416271  12.185  14.840   7.101  0.1651 -0.0488  0.0172
 1166ERGO    R516272  12.032  14.993   7.131  0.0067 -0.1925 -0.0090
 1166ERGO    C116273  12.175  14.971   7.484 -0.0289 -0.0597  0.0147
 1166ERGO    C216274  12.361  14.961   7.748  0.0258 -0.3585 -0.2319
 1167ERGO   ROH16275   7.314  15.914   9.708 -0.1094  0.0178 -0.1203
 1167ERGO    R116276   7.379  15.843   9.442  0.0621  0.1321 -0.1112
 1167ERGO    R216277   7.260  15.631   9.311  0.3352  0.0189 -0.1922
 1167ERGO    R316278   7.204  15.820   9.124  0.1943 -0.0051 -0.1746
 1167ERGO    R416279   7.242  15.574   8.971  0.3889  0.0455 -0.1991
 1167ERGO    R516280   7.344  15.764   8.938  0.2415  0.1254 -0.1762
 1167ERGO    C116281   7.180  15.718   8.597  0.2879  0.0384 -0.1864
 1167ERGO    C216282   6.944  15.779   8.278 -0.0155 -0.0834 -0.3877
 1168ERGO   ROH16283  12.521   9.316   9.579  0.0415  0.0987  0.2038
 1168ERGO    R116284  12.625   9.196   9.345  0.1036  0.0018  0.2791
 1168ERGO    R216285  12.643   9.331   9.104 -0.3507 -0.2606  0.0787
 1168ERGO    R316286  12.904   9.257   9.119 -0.1804  0.2816 -0.0040
 1168ERGO    R416287  12.844   9.262   8.832 -0.4195 -0.2901  0.0359
 1168ERGO    R516288  12.930   9.096   8.944  0.0043  0.0524  0.2339
 1168ERGO    C116289  13.206   9.152   8.687 -0.2995  0.2019 -0.0667
 1168ERGO    C216290  13.281   9.172   8.352  0.1763  0.0507 -0.0124
 1169ERGO   ROH16291  15.582   2.146   5.871 -0.1045  0.0248 -0.0157
 1169ERGO    R116292  15.488   2.234   6.123 -0.0767  0.0182 -0.0033
 1169ERGO    R216293  15.255   2.137   6.237 -0.0025 -0.0677  0.0705
 1169ERGO    R316294  15.419   2.083   6.447  0.0748  0.0342  0.0380
 1169ERGO    R416295  15.164   2.164   6.569 -0.0220 -0.3089  0.0867
 1169ERGO    R516296  15.361   2.248   6.611 -0.1123 -0.0947  0.1093
 1169ERGO    C116297  15.265   2.129   6.960  0.0390 -0.3536  0.0657
 1169ERGO    C216298  15.152   1.945   7.300 -0.0236 -0.0604  0.0240
 1170ERGO   ROH16299   2.652  11.359   6.648 -0.0562 -0.2307  0.1238
 1170ERGO    R116300   2.542  11.355   6.908 -0.0775 -0.1524  0.1156
 1170ERGO    R216301   2.275  11.405   6.958 -0.0702 -0.0933  0.0825
 1170ERGO    R316302   2.287  11.165   7.085 -0.1259 -0.0666  0.1400
 1170ERGO    R416303   2.041  11.291   7.185 -0.1592 -0.0316  0.0232
 1170ERGO    R516304   2.204  11.211   7.306 -0.2045 -0.0125  0.1014
 1170ERGO    C116305   1.915  11.000   7.437 -0.2633  0.0295  0.0427
 1170ERGO    C216306   1.636  10.763   7.599 -0.1592 -0.2051  0.0685
 1171ERGO   ROH16307  12.414   7.795   9.735 -0.2988  0.2440 -0.0156
 1171ERGO    R116308  12.547   7.744   9.490 -0.1927  0.0949  0.0710
 1171ERGO    R216309  12.414   7.660   9.263 -0.1226  0.1323  0.0121
 1171ERGO    R316310  12.537   7.875   9.151  0.0896  0.0250  0.0337
 1171ERGO    R416311  12.438   7.720   8.923 -0.2119  0.2346  0.0238
 1171ERGO    R516312  12.642   7.788   8.955 -0.1120 -0.0293 -0.0495
 1171ERGO    C116313  12.566   7.957   8.621 -0.0647  0.1934  0.0508
 1171ERGO    C216314  12.468   8.075   8.404  0.3803 -0.0052 -0.2190
 1172ERGO   ROH16315   2.606   5.782   6.361 -0.0635 -0.0375  0.0014
 1172ERGO    R116316   2.697   5.863   6.617  0.0691 -0.1425 -0.0115
 1172ERGO    R216317   2.531   5.983   6.803  0.2240  0.0057  0.0311
 1172ERGO    R316318   2.619   5.782   6.963  0.0634 -0.0907 -0.0002
 1172ERGO    R416319   2.511   5.982   7.148  0.1775 -0.0502  0.0283
 1172ERGO    R516320   2.709   5.893   7.154  0.1173 -0.1916  0.0351
 1172ERGO    C116321   2.581   5.791   7.499 -0.0003 -0.1732 -0.0027
 1172ERGO    C216322   2.563   5.594   7.864  0.2853 -0.0886 -0.0924
 1173ERGO   ROH16323  10.901   9.116   6.427 -0.0561  0.1235  0.1836
 1173ERGO    R116324  10.964   9.020   6.686 -0.0530  0.1351  0.1871
 1173ERGO    R216325  10.842   9.117   6.914 -0.1543  0.0449  0.1722
 1173ERGO    R316326  10.786   8.855   6.957 -0.0136  0.0081  0.1363
 1173ERGO    R416327  10.880   8.954   7.217 -0.0401  0.0163  0.1429
 1173ERGO    R516328  10.957   8.782   7.108  0.0396  0.0730  0.1080
 1173ERGO    C116329  10.850   8.613   7.433  0.1584 -0.0349  0.0922
 1173ERGO    C216330  11.008   8.504   7.709 -0.1309  0.2744  0.0005
 1174ERGO   ROH16331  16.412  13.398   6.352 -0.1314  0.1170 -0.0477
 1174ERGO    R116332  16.487  13.230   6.567 -0.0410  0.1149 -0.0791
 1174ERGO    R216333  16.459  13.305   6.831  0.2006  0.1702 -0.0626
 1174ERGO    R316334  16.321  13.071   6.849  0.1028  0.2387  0.0761
 1174ERGO    R416335  16.423  13.119   7.121  0.2213  0.2970  0.0208
 1174ERGO    R516336  16.450  12.938   7.001  0.0974  0.2400  0.0800
 1174ERGO    C116337  16.274  12.792   7.306  0.1420  0.4351  0.1995
 1174ERGO    C216338  16.013  12.655   7.496 -0.0268  0.1989 -0.0374
 1175ERGO   ROH16339  14.221  13.121   8.098  0.0612 -0.1344 -0.0448
 1175ERGO    R116340  14.067  13.022   7.881  0.0818 -0.2661  0.0002
 1175ERGO    R216341  13.879  12.823   7.912 -0.0714 -0.1006  0.1468
 1175ERGO    R316342  13.714  13.004   7.794  0.1033 -0.1121 -0.1250
 1175ERGO    R416343  13.569  12.749   7.777 -0.1153 -0.0192  0.2017
 1175ERGO    R516344  13.615  12.885   7.612  0.0290 -0.2788  0.0200
 1175ERGO    C116345  13.234  12.877   7.588  0.0231  0.0174 -0.0216
 1175ERGO    C216346  12.908  12.709   7.599 -0.2479 -0.0918 -0.1204
 1176ERGO   ROH16347  15.551  13.897   6.197 -0.0219 -0.0573 -0.1956
 1176ERGO    R116348  15.424  13.836   6.443 -0.0417  0.1715 -0.1474
 1176ERGO    R216349  15.494  13.618   6.597 -0.3619  0.0501 -0.1662
 1176ERGO    R316350  15.524  13.806   6.792  0.0340  0.0128 -0.1818
 1176ERGO    R416351  15.527  13.550   6.935 -0.3470  0.0022 -0.1772
 1176ERGO    R516352  15.398  13.720   6.976 -0.0452  0.2300 -0.1311
 1176ERGO    C116353  15.573  13.687   7.313  0.0332 -0.0608 -0.1982
 1176ERGO    C216354  15.827  13.586   7.641  0.0896  0.2002 -0.3106
 1177ERGO   ROH16355  17.103  10.896   6.569  0.2266  0.3062 -0.1985
 1177ERGO    R116356  17.072  10.869   6.849  0.0942  0.3483 -0.2093
 1177ERGO    R216357  17.254  10.732   7.006 -0.1163  0.1481 -0.1414
 1177ERGO    R316358  17.259  10.965   7.146  0.0961  0.1474 -0.1422
 1177ERGO    R416359  17.373  10.767   7.329 -0.3881 -0.0364 -0.0171
 1177ERGO    R516360  17.207  10.901   7.370 -0.2341  0.2221 -0.1903
 1177ERGO    C116361  17.446  11.006   7.648 -0.3470 -0.1444  0.0546
 1177ERGO    C216362  17.596  11.316   7.855  0.0330  0.1454 -0.2240
 1178ERGO   ROH16363  13.378  10.935   6.280 -0.1013 -0.1724  0.1058
 1178ERGO    R116364  13.538  10.877   6.506 -0.0619 -0.0862  0.1009
 1178ERGO    R216365  13.654  11.074   6.660 -0.1549 -0.0228  0.0920
 1178ERGO    R316366  13.526  10.947   6.863 -0.0826 -0.0833  0.0997
 1178ERGO    R416367  13.731  11.111   6.995  0.0571 -0.2289  0.0690
 1178ERGO    R516368  13.700  10.897   7.021 -0.0072 -0.2319 -0.0282
 1178ERGO    C116369  13.655  11.014   7.381  0.2482 -0.4057  0.0628
 1178ERGO    C216370  13.552  11.247   7.641  0.1881  0.1197 -0.0985
 1179ERGO   ROH16371   8.314   0.660   6.296  0.1854  0.0570 -0.0295
 1179ERGO    R116372   8.488   0.781   6.484  0.1229 -0.0330  0.0854
 1179ERGO    R216373   8.437   1.029   6.595  0.1784 -0.0127  0.0420
 1179ERGO    R316374   8.467   0.894   6.829 -0.0447 -0.0159  0.0738
 1179ERGO    R416375   8.496   1.176   6.903  0.4493 -0.0184 -0.0033
 1179ERGO    R516376   8.636   1.016   6.947  0.1850 -0.2654  0.0292
 1179ERGO    C116377   8.558   1.134   7.301  0.3977 -0.0248  0.0002
 1179ERGO    C216378   8.707   1.375   7.581 -0.0885 -0.0860  0.3368
 1180ERGO   ROH16379   7.176  10.367   6.332 -0.2622  0.0083  0.1728
 1180ERGO    R116380   7.269  10.495   6.567 -0.0757  0.0221  0.0936
 1180ERGO    R216381   7.150  10.722   6.669  0.1206  0.1401  0.0744
 1180ERGO    R316382   7.136  10.573   6.896  0.1137  0.2196  0.1243
 1180ERGO    R416383   7.130  10.852   6.989  0.1101  0.2493  0.0291
 1180ERGO    R516384   7.267  10.696   7.055  0.1066  0.2737  0.0865
 1180ERGO    C116385   7.105  10.787   7.388  0.0976  0.3874  0.0496
 1180ERGO    C216386   7.106  11.005   7.581  0.3424 -0.2981  0.1575
 1181ERGO   ROH16387   9.496  12.460   6.245 -0.1058 -0.0415 -0.0485
 1181ERGO    R116388   9.469  12.288   6.468 -0.0431  0.0643  0.0415
 1181ERGO    R216389   9.528  12.018   6.456  0.0240  0.0732  0.1732
 1181ERGO    R316390   9.688  12.077   6.668  0.0274  0.2206  0.1308
 1181ERGO    R416391   9.619  11.794   6.703  0.1859  0.1916  0.2224
 1181ERGO    R516392   9.594  11.954   6.850  0.1236  0.2204  0.1816
 1181ERGO    C116393   9.823  11.719   7.046  0.2835  0.3990  0.2114
 1181ERGO    C216394  10.137  11.466   7.201  0.1653 -0.2703 -0.2439
 1182ERGO   ROH16395   6.214  10.542   7.508  0.1030  0.0656  0.0039
 1182ERGO    R116396   6.094  10.605   7.756  0.0435  0.1459 -0.0447
 1182ERGO    R216397   5.929  10.824   7.790 -0.0678  0.0863 -0.1859
 1182ERGO    R316398   5.755  10.638   7.885  0.0121  0.0533 -0.1035
 1182ERGO    R416399   5.611  10.892   7.907 -0.1475 -0.0153 -0.3410
 1182ERGO    R516400   5.644  10.747   8.067 -0.1126  0.1237 -0.2214
 1182ERGO    C116401   5.262  10.756   8.064 -0.1189 -0.1054 -0.3538
 1182ERGO    C216402   4.875  10.618   7.881  0.2572  0.1685 -0.1058
 1183ERGO   ROH16403   4.382  11.136   5.966 -0.0351 -0.3260 -0.1563
 1183ERGO    R116404   4.584  11.139   6.165 -0.1361 -0.0724 -0.0548
 1183ERGO    R216405   4.564  10.993   6.399 -0.0451 -0.1445 -0.0943
 1183ERGO    R316406   4.806  10.896   6.320  0.1405  0.2147  0.0108
 1183ERGO    R416407   4.794  10.843   6.608 -0.1888 -0.3621 -0.0890
 1183ERGO    R516408   4.952  10.949   6.502 -0.1334 -0.0099  0.3110
 1183ERGO    C116409   5.155  10.665   6.657 -0.0981 -0.1516  0.0128
 1183ERGO    C216410   5.420  10.316   6.649  0.1055  0.1865 -0.0941
 1184ERGO   ROH16411  14.370  13.443   6.195  0.1434  0.0689 -0.0864
 1184ERGO    R116412  14.482  13.217   6.323  0.1621  0.1514  0.0415
 1184ERGO    R216413  14.621  13.234   6.561 -0.3138  0.2299  0.3190
 1184ERGO    R316414  14.441  13.047   6.643 -0.2581 -0.0171 -0.0922
 1184ERGO    R416415  14.692  12.977   6.781 -0.4867  0.4445  0.6354
 1184ERGO    R516416  14.570  12.845   6.657  0.0478  0.1853  0.3402
 1184ERGO    C116417  14.565  12.652   6.986 -0.5352  0.3376  0.4336
 1184ERGO    C216418  14.702  12.720   7.268  0.0513  0.2328 -0.2630
 1185ERGO   ROH16419  12.596   2.316   5.946  0.2952  0.3035 -0.0592
 1185ERGO    R116420  12.763   2.353   6.172  0.3105  0.0653 -0.0279
 1185ERGO    R216421  12.662   2.406   6.424  0.3377  0.2144 -0.0423
 1185ERGO    R316422  12.811   2.190   6.494  0.0132 -0.0070 -0.0185
 1185ERGO    R416423  12.839   2.373   6.720  0.2674 -0.0432 -0.0275
 1185ERGO    R516424  13.001   2.281   6.607  0.1410 -0.2879 -0.0054
 1185ERGO    C116425  13.081   2.151   6.957 -0.0782 -0.4011  0.0034
 1185ERGO    C216426  13.161   2.201   7.236  0.1881  0.2216  0.3344
 1186ERGO   ROH16427   3.307   9.680   6.642  0.0291  0.1572 -0.0741
 1186ERGO    R116428   3.320   9.703   6.924 -0.1239  0.2064 -0.0709
 1186ERGO    R216429   3.558   9.696   7.064 -0.2160 -0.0092  0.0792
 1186ERGO    R316430   3.469   9.933   7.164 -0.0371  0.1076 -0.0296
 1186ERGO    R416431   3.688   9.854   7.342 -0.0921  0.0271  0.0020
 1186ERGO    R516432   3.485   9.906   7.401 -0.0528  0.2082 -0.0169
 1186ERGO    C116433   3.680  10.168   7.598  0.1480  0.1579 -0.1451
 1186ERGO    C216434   4.010  10.324   7.529  0.0594 -0.2480 -0.1943
 1187ERGO   ROH16435  12.874  16.201   5.896 -0.2679  0.0112  0.0528
 1187ERGO    R116436  12.985  16.174   6.155 -0.1424 -0.0563 -0.0066
 1187ERGO    R216437  13.195  16.329   6.244 -0.0536 -0.1244 -0.0894
 1187ERGO    R316438  13.025  16.385   6.449  0.0633 -0.1089  0.0039
 1187ERGO    R416439  13.248  16.571   6.485  0.0530 -0.0655 -0.1716
 1187ERGO    R516440  13.169  16.433   6.634  0.1674 -0.0458 -0.0942
 1187ERGO    C116441  13.120  16.764   6.818  0.2249 -0.0167 -0.1319
 1187ERGO    C216442  13.156  16.979   7.099 -0.0496 -0.1575  0.0298
 1188ERGO   ROH16443   5.146   1.159   5.972 -0.0888  0.2125 -0.1028
 1188ERGO    R116444   5.138   1.042   6.230 -0.1330  0.2123 -0.1037
 1188ERGO    R216445   5.365   0.948   6.357 -0.2041 -0.1487 -0.2291
 1188ERGO    R316446   5.282   1.113   6.556  0.1581 -0.0206 -0.1775
 1188ERGO    R416447   5.402   0.884   6.694  0.0622 -0.1112 -0.2496
 1188ERGO    R516448   5.203   0.964   6.727  0.1742  0.0977 -0.0678
 1188ERGO    C116449   5.347   1.001   7.078  0.5573  0.0309 -0.2132
 1188ERGO    C216450   5.322   0.886   7.307 -0.0544  0.1471  0.0082
 1189ERGO   ROH16451  18.106  17.670   6.394  0.0505 -0.3705  0.1459
 1189ERGO    R116452  18.234  17.606   6.638  0.1350 -0.0796  0.1821
 1189ERGO    R216453  18.247  17.782   6.851 -0.1246  0.0366  0.1050
 1189ERGO    R316454  18.138  17.574   6.987  0.1650 -0.0626  0.1921
 1189ERGO    R416455  18.200  17.774   7.193 -0.2199  0.1687  0.0955
 1189ERGO    R516456  18.263  17.565   7.192  0.1192  0.2625  0.2398
 1189ERGO    C116457  18.071  17.574   7.521 -0.0036  0.1524  0.1717
 1189ERGO    C216458  17.896  17.537   7.762 -0.3535  0.0981  0.1023
 1190ERGO   ROH16459  18.222  16.104   9.928  0.2276  0.1104  0.0315
 1190ERGO    R116460  18.161  16.145   9.655  0.1442  0.0428  0.0384
 1190ERGO    R216461  18.172  16.395   9.536  0.1036  0.0186 -0.0287
 1190ERGO    R316462  18.336  16.268   9.360  0.0553 -0.0242 -0.0411
 1190ERGO    R416463  18.153  16.424   9.192 -0.1597 -0.2857 -0.0437
 1190ERGO    R516464  18.193  16.210   9.176 -0.0372 -0.2704  0.1084
 1190ERGO    C116465  18.296  16.321   8.827 -0.3585 -0.5034 -0.0642
 1190ERGO    C216466  18.161  16.199   8.554 -0.0556  0.0279 -0.4013
 1191ERGO   ROH16467  17.953   3.004   6.286 -0.2021  0.0921  0.0543
 1191ERGO    R116468  18.086   2.947   6.529 -0.1930  0.1355  0.0594
 1191ERGO    R216469  17.954   2.849   6.751 -0.1449 -0.0492  0.0077
 1191ERGO    R316470  18.144   2.654   6.737  0.0309  0.1211 -0.0203
 1191ERGO    R416471  18.071   2.666   7.021 -0.0092 -0.0104 -0.0241
 1191ERGO    R516472  18.272   2.681   6.938 -0.0121  0.1881 -0.0014
 1191ERGO    C116473  18.317   2.378   7.164  0.2352  0.1721 -0.0688
 1191ERGO    C216474  18.462   2.221   7.449 -0.4355  0.1077 -0.0916
 1192ERGO   ROH16475   2.503   1.281   6.010  0.0515  0.2271  0.1132
 1192ERGO    R116476   2.521   1.102   6.229  0.0087  0.1517  0.0560
 1192ERGO    R216477   2.720   1.121   6.420  0.0026  0.0524  0.0714
 1192ERGO    R316478   2.509   1.128   6.592 -0.0033  0.0341  0.0647
 1192ERGO    R416479   2.745   1.111   6.765  0.0037  0.1577  0.0744
 1192ERGO    R516480   2.571   0.980   6.769  0.0434  0.1024  0.1080
 1192ERGO    C116481   2.561   1.112   7.126 -0.0012  0.2020  0.0698
 1192ERGO    C216482   2.440   0.938   7.443 -0.0873 -0.3845 -0.0254
 1193ERGO   ROH16483  17.645  11.230  10.101 -0.0812  0.0718  0.0165
 1193ERGO    R116484  17.592  11.322   9.838 -0.0240  0.0430 -0.0058
 1193ERGO    R216485  17.783  11.321   9.638  0.0086 -0.0160  0.0242
 1193ERGO    R316486  17.593  11.181   9.503  0.0079 -0.0052  0.0149
 1193ERGO    R416487  17.718  11.352   9.300 -0.2296  0.2671  0.0929
 1193ERGO    R516488  17.505  11.338   9.345 -0.1929  0.0929  0.2196
 1193ERGO    C116489  17.502  11.239   8.977 -0.3688  0.4420  0.1242
 1193ERGO    C216490  17.467  11.144   8.661  0.3850  0.3324  0.2112
 1194ERGO   ROH16491  17.217  14.425   6.466 -0.3289  0.2725 -0.2050
 1194ERGO    R116492  17.204  14.547   6.721  0.0195  0.1891 -0.1421
 1194ERGO    R216493  16.988  14.514   6.891 -0.0075  0.5810 -0.0925
 1194ERGO    R316494  17.179  14.435   7.066 -0.1146  0.0763 -0.1871
 1194ERGO    R416495  16.942  14.481   7.231  0.0370  0.5617 -0.0880
 1194ERGO    R516496  17.139  14.567   7.262  0.2555  0.1046 -0.1234
 1194ERGO    C116497  17.095  14.387   7.595 -0.0378  0.0768 -0.1742
 1194ERGO    C216498  16.986  14.029   7.804 -0.4158 -0.0797  0.2460
 1195ERGO   ROH16499  16.076   6.827   6.382 -0.0924  0.2140 -0.0518
 1195ERGO    R116500  16.216   6.984   6.571  0.1471  0.0317 -0.0732
 1195ERGO    R216501  16.121   7.029   6.826  0.2453  0.1590 -0.0622
 1195ERGO    R316502  16.364   6.933   6.900  0.1341 -0.1620 -0.0947
 1195ERGO    R416503  16.229   6.996   7.153  0.3918  0.4378 -0.0782
 1195ERGO    R516504  16.425   7.066   7.090  0.4860  0.0140 -0.3160
 1195ERGO    C116505  16.520   6.885   7.412  0.3728  0.2989 -0.1180
 1195ERGO    C216506  16.612   6.546   7.578  0.1433  0.2403 -0.1516
 1196ERGO   ROH16507  12.756   2.477   9.891 -0.3229 -0.0959  0.0879
 1196ERGO    R116508  12.653   2.402   9.639 -0.1650 -0.0521  0.0079
 1196ERGO    R216509  12.562   2.586   9.454 -0.2032 -0.0257  0.0467
 1196ERGO    R316510  12.738   2.460   9.290 -0.0466  0.1581  0.0715
 1196ERGO    R416511  12.537   2.575   9.109 -0.2274 -0.1896  0.0538
 1196ERGO    R516512  12.601   2.366   9.117  0.0638 -0.0975  0.1222
 1196ERGO    C116513  12.688   2.450   8.755 -0.0944 -0.1125  0.0812
 1196ERGO    C216514  12.615   2.570   8.517 -0.1374 -0.1400 -0.0415
 1197ERGO   ROH16515   8.590  11.724   6.407  0.3358  0.0093  0.0307
 1197ERGO    R116516   8.557  11.920   6.609  0.1953  0.0218 -0.0036
 1197ERGO    R216517   8.400  11.879   6.833  0.0724  0.0198 -0.0892
 1197ERGO    R316518   8.628  11.949   6.964 -0.0111  0.0607  0.0354
 1197ERGO    R416519   8.411  12.005   7.154 -0.1070 -0.2059  0.0080
 1197ERGO    R516520   8.566  12.144   7.090 -0.1676 -0.0651  0.1587
 1197ERGO    C116521   8.631  12.143   7.466 -0.2901 -0.2990  0.1815
 1197ERGO    C216522   8.672  12.022   7.844 -0.2788 -0.1617 -0.2187
 1198ERGO   ROH16523   3.488   1.565   6.169 -0.2497 -0.0104 -0.1714
 1198ERGO    R116524   3.494   1.668   6.432  0.2893  0.1144 -0.2242
 1198ERGO    R216525   3.398   1.526   6.650 -0.1381  0.5765 -0.1110
 1198ERGO    R316526   3.647   1.573   6.749  0.1276 -0.3087 -0.2610
 1198ERGO    R416527   3.477   1.542   6.986 -0.0153  0.7550 -0.1449
 1198ERGO    R516528   3.609   1.710   6.942  0.7158  0.1787 -0.4445
 1198ERGO    C116529   3.756   1.596   7.275  0.3056  0.0280 -0.3054
 1198ERGO    C216530   3.827   1.384   7.551  0.1730  0.2474 -0.0488
 1199ERGO   ROH16531   0.214   3.563   6.383 -0.1176  0.2017  0.0467
 1199ERGO    R116532   0.109   3.361   6.551 -0.2369 -0.0394 -0.3064
 1199ERGO    R216533   0.041   3.408   6.814  0.1914 -0.5552 -0.0855
 1199ERGO    R316534  -0.199   3.306   6.737 -0.0943  0.0432 -0.0419
 1199ERGO    R416535  -0.198   3.278   7.029  0.1417 -0.4653 -0.0854
 1199ERGO    R516536  -0.235   3.120   6.883 -0.3113 -0.1501 -0.3319
 1199ERGO    C116537  -0.562   3.107   7.081 -0.1554  0.1489 -0.0443
 1199ERGO    C216538  -0.924   2.962   7.121 -0.1950  0.0511  0.0239
 1200ERGO   ROH16539  12.175   8.180   6.022  0.2002  0.2235 -0.0936
 1200ERGO    R116540  12.043   8.197   6.272  0.0834 -0.0327 -0.1353
 1200ERGO    R216541  12.122   8.048   6.491  0.1615 -0.0469 -0.1740
 1200ERGO    R316542  12.133   8.291   6.612 -0.1517 -0.0859 -0.0566
 1200ERGO    R416543  12.185   8.098   6.827  0.0221 -0.1281 -0.1344
 1200ERGO    R516544  12.033   8.255   6.827 -0.1633 -0.3031 -0.0959
 1200ERGO    C116545  12.232   8.356   7.136 -0.3531 -0.2121 -0.0011
 1200ERGO    C216546  12.197   8.518   7.317  0.1882 -0.0349  0.1545
 1201ERGO   ROH16547  11.855  11.623   7.744  0.1537  0.1108  0.0228
 1201ERGO    R116548  11.837  11.648   8.026  0.1931  0.0704  0.0284
 1201ERGO    R216549  11.965  11.849   8.166  0.0048  0.2014  0.0110
 1201ERGO    R316550  11.715  11.896   8.262 -0.0265 -0.0805  0.0766
 1201ERGO    R416551  11.893  12.052   8.436 -0.1619  0.2437 -0.0633
 1201ERGO    R516552  11.744  11.905   8.500  0.0510  0.0747  0.0635
 1201ERGO    C116553  11.616  12.214   8.684 -0.2882  0.0038 -0.0449
 1201ERGO    C216554  11.374  12.312   8.805  0.1413  0.0345  0.2416
 1202ERGO   ROH16555  11.875  13.998   6.396 -0.3391  0.0181  0.0278
 1202ERGO    R116556  12.041  13.943   6.619 -0.1087 -0.0109 -0.1450
 1202ERGO    R216557  11.950  13.963   6.880  0.1980  0.1049 -0.0380
 1202ERGO    R316558  12.042  13.707   6.896  0.0805  0.0600 -0.0854
 1202ERGO    R416559  12.042  13.804   7.173  0.1488  0.0093 -0.0750
 1202ERGO    R516560  12.210  13.715   7.067  0.0959 -0.0504 -0.0998
 1202ERGO    C116561  12.181  13.471   7.359  0.0099 -0.0886 -0.1409
 1202ERGO    C216562  12.117  13.308   7.647 -0.1897  0.3809 -0.0595
 1203ERGO   ROH16563   3.008   0.657   6.315  0.2853 -0.1535 -0.0494
 1203ERGO    R116564   2.858   0.697   6.551  0.1834 -0.0723 -0.1275
 1203ERGO    R216565   2.863   0.520   6.763 -0.1134 -0.1364 -0.1713
 1203ERGO    R316566   2.929   0.742   6.905  0.0184 -0.2369 -0.0719
 1203ERGO    R416567   2.918   0.527   7.104  0.1386 -0.3673 -0.2028
 1203ERGO    R516568   2.812   0.717   7.112  0.1665 -0.3577  0.0003
 1203ERGO    C116569   3.012   0.740   7.436  0.4090 -0.5961 -0.1277
 1203ERGO    C216570   3.211   0.905   7.638  0.0032  0.1371  0.0395
 1204ERGO   ROH16571   5.332  17.969   6.100  0.0413 -0.1477  0.0216
 1204ERGO    R116572   5.268  18.050   6.364  0.5359 -0.0490  0.1204
 1204ERGO    R216573   5.071  17.927   6.514  0.0638  0.6665  0.1303
 1204ERGO    R316574   5.272  17.899   6.695  0.0881 -0.3327  0.0069
 1204ERGO    R416575   5.025  17.883   6.853  0.0460  0.7132  0.1343
 1204ERGO    R516576   5.193  18.017   6.889  0.7154 -0.0365  0.1097
 1204ERGO    C116577   5.187  17.831   7.222  0.0586 -0.1975  0.0207
 1204ERGO    C216578   5.285  17.668   7.446 -0.0773 -0.0595 -0.2196
 1205ERGO   ROH16579   2.410  16.178   6.011  0.1576 -0.3087 -0.0261
 1205ERGO    R116580   2.402  16.018   6.244  0.2058 -0.2214  0.0366
 1205ERGO    R216581   2.623  15.978   6.405  0.1776  0.0508  0.1535
 1205ERGO    R316582   2.457  16.068   6.601  0.0054 -0.0202  0.0408
 1205ERGO    R416583   2.691  15.966   6.744 -0.0212  0.1510  0.1977
 1205ERGO    R516584   2.483  15.910   6.779 -0.0051  0.0289  0.0825
 1205ERGO    C116585   2.574  16.043   7.125 -0.2986  0.1427  0.1177
 1205ERGO    C216586   2.706  15.937   7.457  0.1002  0.2023  0.2614
 1206ERGO   ROH16587  14.087   7.866   6.358 -0.0610 -0.0285  0.1684
 1206ERGO    R116588  14.267   7.945   6.562 -0.0314 -0.0852  0.1642
 1206ERGO    R216589  14.191   8.106   6.774  0.0395 -0.0110  0.1309
 1206ERGO    R316590  14.293   7.903   6.923 -0.0708 -0.0360  0.1738
 1206ERGO    R416591  14.417   8.145   7.032  0.3058 -0.0969 -0.0842
 1206ERGO    R516592  14.520   7.966   6.962  0.0427 -0.2682 -0.0615
 1206ERGO    C116593  14.644   7.977   7.323  0.3574 -0.1704 -0.1692
 1206ERGO    C216594  14.933   7.930   7.599  0.0724  0.1321  0.0851
 1207ERGO   ROH16595  16.395   2.784   5.773 -0.0066  0.1699  0.0915
 1207ERGO    R116596  16.277   2.815   6.028 -0.0033  0.1757  0.0939
 1207ERGO    R216597  16.412   2.757   6.262 -0.0456  0.0415  0.0942
 1207ERGO    R316598  16.342   3.012   6.327  0.0969  0.0676  0.1416
 1207ERGO    R416599  16.359   2.872   6.584 -0.1352 -0.0204  0.1004
 1207ERGO    R516600  16.189   2.987   6.510 -0.0131  0.1187  0.0516
 1207ERGO    C116601  16.263   3.177   6.832 -0.0534 -0.0319  0.1485
 1207ERGO    C216602  16.285   3.209   7.125 -0.0350 -0.1272 -0.3313
 1208ERGO   ROH16603   8.198  16.510   5.696  0.1812 -0.4394 -0.1653
 1208ERGO    R116604   8.259  16.592   5.959  0.1535 -0.1627 -0.2418
 1208ERGO    R216605   8.242  16.422   6.176 -0.0925  0.1230 -0.0281
 1208ERGO    R316606   8.499  16.498   6.216 -0.0341 -0.0682 -0.0288
 1208ERGO    R416607   8.410  16.398   6.477 -0.1571  0.1363  0.0093
 1208ERGO    R516608   8.500  16.592   6.437  0.0094  0.0434 -0.0762
 1208ERGO    C116609   8.750  16.456   6.690 -0.1399 -0.0353  0.0304
 1208ERGO    C216610   8.757  16.431   6.976  0.1831  0.0390  0.1127
 1209ERGO   ROH16611   7.416   3.453   6.513 -0.0220  0.0832 -0.1780
 1209ERGO    R116612   7.515   3.346   6.755  0.0104  0.1668 -0.1546
 1209ERGO    R216613   7.588   3.505   6.969 -0.1969  0.2283 -0.1297
 1209ERGO    R316614   7.414   3.345   7.105 -0.0876  0.0609 -0.1825
 1209ERGO    R416615   7.594   3.450   7.310 -0.1139  0.0551 -0.1574
 1209ERGO    R516616   7.548   3.240   7.273 -0.0029  0.0477 -0.2574
 1209ERGO    C116617   7.435   3.268   7.636  0.0371 -0.2029 -0.2231
 1209ERGO    C216618   7.462   2.998   7.954 -0.3507  0.2612  0.0608
 1210ERGO   ROH16619   9.052  14.321   6.731 -0.1004  0.1705 -0.0209
 1210ERGO    R116620   9.055  14.437   6.989 -0.3335  0.3102 -0.0787
 1210ERGO    R216621   8.825  14.520   7.117 -0.5183 -0.1516 -0.0952
 1210ERGO    R316622   8.916  14.358   7.316 -0.1165  0.1477 -0.0232
 1210ERGO    R416623   8.706  14.520   7.442 -0.3891 -0.1752 -0.0470
 1210ERGO    R516624   8.911  14.497   7.511 -0.3054  0.2708 -0.1113
 1210ERGO    C116625   8.722  14.369   7.817  0.0633  0.0920  0.0487
 1210ERGO    C216626   8.496  14.420   8.053 -0.4152  0.0445  0.0140
 1211ERGO   ROH16627   4.102   5.422   6.306 -0.1228 -0.1074  0.2419
 1211ERGO    R116628   3.996   5.405   6.568 -0.1503  0.0158  0.2404
 1211ERGO    R216629   4.152   5.435   6.794 -0.1188 -0.1508  0.2465
 1211ERGO    R316630   3.967   5.625   6.856  0.0869  0.0581  0.2329
 1211ERGO    R416631   4.138   5.607   7.093 -0.0884 -0.3025  0.3350
 1211ERGO    R516632   3.921   5.589   7.088 -0.1114 -0.0155  0.1823
 1211ERGO    C116633   3.957   5.884   7.326  0.1224 -0.1947  0.3738
 1211ERGO    C216634   3.967   6.100   7.613  0.0547 -0.0758 -0.2873
 1212ERGO   ROH16635   6.251  17.638   6.280  0.0167 -0.0082  0.0166
 1212ERGO    R116636   6.154  17.472   6.488  0.0838 -0.1768 -0.0849
 1212ERGO    R216637   6.312  17.286   6.616  0.2103 -0.0655 -0.0775
 1212ERGO    R316638   6.229  17.416   6.840 -0.0227 -0.2222 -0.0694
 1212ERGO    R416639   6.390  17.191   6.939  0.4821  0.1204 -0.0844
 1212ERGO    R516640   6.185  17.240   6.997  0.3817 -0.3099 -0.0464
 1212ERGO    C116641   6.358  17.257   7.337  0.4216  0.0815 -0.0808
 1212ERGO    C216642   6.525  17.096   7.618 -0.0585 -0.0020  0.4331
 1213ERGO   ROH16643   3.909  17.672   6.224 -0.2816  0.3001  0.2112
 1213ERGO    R116644   3.970  17.518   6.454 -0.0858  0.2530  0.1299
 1213ERGO    R216645   4.114  17.619   6.667 -0.1606  0.3046  0.1539
 1213ERGO    R316646   3.898  17.537   6.811 -0.0535  0.0085  0.1514
 1213ERGO    R416647   4.112  17.568   7.009 -0.0502  0.1513  0.1326
 1213ERGO    R516648   3.990  17.390   6.977  0.1330  0.0302  0.0729
 1213ERGO    C116649   3.909  17.460   7.343  0.1147 -0.2158  0.1179
 1213ERGO    C216650   3.689  17.546   7.516  0.0778 -0.1671  0.0594
 1214ERGO   ROH16651  14.919   9.775   6.108 -0.0723  0.2367 -0.1156
 1214ERGO    R116652  15.103   9.821   6.318 -0.0110  0.3263 -0.1891
 1214ERGO    R216653  15.061  10.012   6.513 -0.1668  0.1139 -0.0185
 1214ERGO    R316654  15.099   9.802   6.682  0.2308  0.0319 -0.1952
 1214ERGO    R416655  15.190  10.037   6.833 -0.5012  0.1625  0.1173
 1214ERGO    R516656  15.303   9.854   6.796  0.0189  0.4703  0.0250
 1214ERGO    C116657  15.300   9.855   7.177 -0.3227  0.1138  0.0305
 1214ERGO    C216658  15.323   9.866   7.492 -0.2363  0.0063 -0.0851
 1215ERGO   ROH16659   3.661  15.034   6.170 -0.1075 -0.2550  0.0393
 1215ERGO    R116660   3.580  15.090   6.435 -0.0293 -0.3385  0.0806
 1215ERGO    R216661   3.373  15.263   6.495  0.0887 -0.2403  0.2005
 1215ERGO    R316662   3.278  15.050   6.633 -0.0222 -0.2506  0.1107
 1215ERGO    R416663   3.192  15.283   6.788 -0.0389 -0.2634  0.1248
 1215ERGO    R516664   3.303  15.111   6.863 -0.1101 -0.3064  0.1374
 1215ERGO    C116665   2.997  15.094   7.089 -0.2173 -0.2864 -0.0035
 1215ERGO    C216666   2.721  15.176   7.299 -0.0623 -0.1279  0.1870
 1216ERGO   ROH16667  12.516   1.322   6.229 -0.1647 -0.1099 -0.0818
 1216ERGO    R116668  12.570   1.131   6.430 -0.2103 -0.0996 -0.0596
 1216ERGO    R216669  12.662   1.200   6.681 -0.0897 -0.1001 -0.1020
 1216ERGO    R316670  12.447   1.057   6.765 -0.1468  0.0407 -0.0049
 1216ERGO    R416671  12.638   1.039   6.986 -0.1580  0.1162  0.0087
 1216ERGO    R516672  12.541   0.873   6.885 -0.2219  0.0850  0.1224
 1216ERGO    C116673  12.422   0.812   7.242 -0.2515  0.3743  0.1643
 1216ERGO    C216674  12.299   0.736   7.578 -0.1710  0.0589 -0.1327
 1217ERGO   ROH16675   7.222  15.100   6.304  0.2031  0.1388  0.0503
 1217ERGO    R116676   7.023  15.095   6.505  0.2369  0.2062  0.0847
 1217ERGO    R216677   6.901  14.861   6.587  0.0652  0.2668 -0.0040
 1217ERGO    R316678   6.982  14.944   6.833  0.1760  0.0854  0.0230
 1217ERGO    R416679   6.757  14.763   6.886  0.0946  0.1677 -0.0212
 1217ERGO    R516680   6.779  14.968   6.958  0.2193  0.1187  0.0913
 1217ERGO    C116681   6.750  14.783   7.291  0.2159 -0.0603 -0.0059
 1217ERGO    C216682   6.669  14.638   7.699  0.2706  0.1323  0.3631
 1218ERGO   ROH16683  10.409  16.056   5.723 -0.1282  0.1646 -0.1053
 1218ERGO    R116684  10.363  16.094   6.000 -0.1586  0.2062 -0.1164
 1218ERGO    R216685  10.122  16.030   6.121 -0.1177  0.0735 -0.1041
 1218ERGO    R316686  10.282  15.885   6.286 -0.0194  0.2249 -0.0629
 1218ERGO    R416687  10.023  15.894   6.423 -0.1199 -0.1819 -0.2174
 1218ERGO    R516688  10.216  15.951   6.506 -0.2465  0.0500 -0.0759
 1218ERGO    C116689  10.115  15.678   6.753 -0.0287 -0.1886 -0.2447
 1218ERGO    C216690  10.002  15.310   7.054 -0.0202 -0.0123 -0.0085
 1219ERGO   ROH16691   6.085  12.352   6.272  0.1639  0.3780  0.3185
 1219ERGO    R116692   6.045  12.370   6.551 -0.1788  0.2386  0.2847
 1219ERGO    R216693   5.793  12.372   6.665 -0.3281 -0.2410  0.0169
 1219ERGO    R316694   5.892  12.164   6.810 -0.1053 -0.1074  0.0570
 1219ERGO    R416695   5.655  12.252   6.959 -0.1835 -0.3340  0.0452
 1219ERGO    R516696   5.857  12.228   7.038 -0.1616 -0.1055  0.0412
 1219ERGO    C116697   5.668  11.987   7.265  0.1099 -0.2627  0.0993
 1219ERGO    C216698   5.521  11.711   7.500  0.0194  0.3340  0.1654
 1220ERGO   ROH16699  14.440   3.397   5.886 -0.2115 -0.0850  0.1694
 1220ERGO    R116700  14.536   3.503   6.131 -0.1671  0.0181  0.1088
 1220ERGO    R216701  14.367   3.589   6.332 -0.1329  0.0493  0.1300
 1220ERGO    R316702  14.513   3.416   6.483 -0.0530  0.1284  0.1429
 1220ERGO    R416703  14.375   3.585   6.678 -0.2176 -0.0024  0.1311
 1220ERGO    R516704  14.589   3.547   6.668 -0.1923  0.1484  0.1825
 1220ERGO    C116705  14.516   3.421   7.021 -0.1919  0.0418  0.1437
 1220ERGO    C216706  14.602   3.206   7.273 -0.4108 -0.0564  0.1980
 1221ERGO   ROH16707   4.659   6.974   6.498 -0.0562  0.2757 -0.0196
 1221ERGO    R116708   4.848   7.013   6.705 -0.0541  0.1063  0.0121
 1221ERGO    R216709   4.825   7.214   6.893  0.0984  0.1347  0.0060
 1221ERGO    R316710   4.847   7.008   7.069 -0.1222  0.1140  0.0113
 1221ERGO    R416711   4.895   7.247   7.230  0.2029  0.0607 -0.0084
 1221ERGO    R516712   5.025   7.073   7.216 -0.0143 -0.0993 -0.0243
 1221ERGO    C116713   4.957   7.073   7.591  0.0567 -0.0019 -0.0118
 1221ERGO    C216714   4.770   7.137   7.835  0.2718 -0.1052  0.2541
 1222ERGO   ROH16715  15.981  15.461   6.107 -0.0713  0.0382  0.0949
 1222ERGO    R116716  15.868  15.431   6.365 -0.0894  0.0066  0.0827
 1222ERGO    R216717  16.003  15.502   6.595 -0.0971 -0.0440  0.1003
 1222ERGO    R316718  15.780  15.650   6.643 -0.0866 -0.0310  0.1139
 1222ERGO    R416719  15.905  15.616   6.906  0.0106  0.0913  0.0862
 1222ERGO    R516720  15.699  15.569   6.853 -0.0083  0.0586  0.1809
 1222ERGO    C116721  15.638  15.822   7.132  0.0831  0.1821  0.0907
 1222ERGO    C216722  15.335  15.979   7.357 -0.2160  0.0709  0.0243
 1223ERGO   ROH16723   3.052   4.742   6.422 -0.0118  0.1254  0.0035
 1223ERGO    R116724   2.963   4.857   6.665  0.0634 -0.0830  0.1334
 1223ERGO    R216725   2.700   4.843   6.748  0.0286  0.0848  0.0620
 1223ERGO    R316726   2.811   4.739   6.974 -0.1183 -0.3173 -0.0419
 1223ERGO    R416727   2.528   4.773   7.040 -0.0421  0.1907  0.0462
 1223ERGO    R516728   2.698   4.850   7.153  0.1415 -0.2310  0.0715
 1223ERGO    C116729   2.533   4.636   7.422 -0.2211 -0.1250 -0.0606
 1223ERGO    C216730   2.528   4.514   7.723 -0.0825  0.0553  0.1891
 1224ERGO   ROH16731  11.213  14.993   6.169 -0.1106 -0.1067  0.0539
 1224ERGO    R116732  11.296  14.872   6.411 -0.1310  0.0194  0.1220
 1224ERGO    R216733  11.539  14.928   6.531 -0.1856  0.1406  0.1491
 1224ERGO    R316734  11.383  14.983   6.746 -0.2418  0.1779  0.1025
 1224ERGO    R416735  11.643  14.914   6.860 -0.2208  0.2903  0.1699
 1224ERGO    R516736  11.451  14.825   6.912 -0.2145  0.2489  0.1724
 1224ERGO    C116737  11.557  14.957   7.254 -0.2941  0.4125  0.1383
 1224ERGO    C216738  11.631  15.050   7.532  0.1577 -0.6057  0.0024
 1225ERGO   ROH16739   1.764   2.020   6.214 -0.0875 -0.0990 -0.1213
 1225ERGO    R116740   1.820   1.853   6.435 -0.0030 -0.0869 -0.1336
 1225ERGO    R216741   2.027   1.903   6.611 -0.0642  0.0371 -0.0973
 1225ERGO    R316742   1.830   1.887   6.798 -0.0814 -0.1243 -0.1276
 1225ERGO    R416743   2.078   1.852   6.949 -0.0502  0.3750 -0.0441
 1225ERGO    R516744   1.906   1.718   6.950  0.1511  0.1048  0.0190
 1225ERGO    C116745   1.923   1.806   7.321 -0.0580  0.4201 -0.0416
 1225ERGO    C216746   1.924   1.913   7.777 -0.2017  0.0215  0.0772
 1226ERGO   ROH16747  17.742   7.332   6.454 -0.2743 -0.0997 -0.0020
 1226ERGO    R116748  17.892   7.230   6.672 -0.2375  0.0333  0.0360
 1226ERGO    R216749  17.898   7.354   6.919 -0.3340  0.0909  0.0122
 1226ERGO    R316750  17.822   7.108   7.007 -0.2029  0.0650  0.0542
 1226ERGO    R416751  17.798   7.281   7.242  0.0379  0.0139  0.1140
 1226ERGO    R516752  17.910   7.094   7.229  0.0488  0.0328 -0.0457
 1226ERGO    C116753  17.669   7.009   7.513  0.3775 -0.0551  0.2127
 1226ERGO    C216754  17.451   6.876   7.581 -0.3537  0.1040  0.1982
 1227ERGO   ROH16755  17.590   0.582   6.210 -0.1995  0.0237  0.0866
 1227ERGO    R116756  17.617   0.578   6.491 -0.1746 -0.0502  0.0821
 1227ERGO    R216757  17.705   0.797   6.636 -0.0332 -0.1372  0.1200
 1227ERGO    R316758  17.473   0.758   6.773 -0.0372 -0.0264  0.1380
 1227ERGO    R416759  17.614   0.966   6.923 -0.1064  0.1991 -0.0945
 1227ERGO    R516760  17.536   0.779   7.003 -0.0687  0.2739  0.1242
 1227ERGO    C116761  17.345   1.028   7.220 -0.1529  0.4989 -0.2026
 1227ERGO    C216762  17.246   0.991   7.451 -0.0762 -0.0469 -0.2290
 1228ERGO   ROH16763   7.185   9.401   6.639 -0.2199  0.0188 -0.0380
 1228ERGO    R116764   7.192   9.671   6.727 -0.2875 -0.0161  0.0759
 1228ERGO    R216765   7.100   9.749   6.976 -0.0176 -0.1936  0.2338
 1228ERGO    R316766   7.349   9.857   6.997 -0.0577 -0.0359 -0.0408
 1228ERGO    R416767   7.171  10.053   7.123 -0.0461 -0.1651  0.1899
 1228ERGO    R516768   7.315  10.091   6.963 -0.2513 -0.0514  0.0247
 1228ERGO    C116769   7.446  10.332   7.229 -0.1005 -0.0007 -0.0935
 1228ERGO    C216770   7.733  10.522   7.389 -0.0105  0.1499 -0.1738
 1229ERGO   ROH16771  14.652   7.600   6.384 -0.0598  0.2278 -0.1079
 1229ERGO    R116772  14.716   7.736   6.624 -0.2087 -0.1604  0.1630
 1229ERGO    R216773  14.804   7.606   6.851  0.2765 -0.4889 -0.1925
 1229ERGO    R316774  15.010   7.782   6.833 -0.1469  0.0596  0.0301
 1229ERGO    R416775  14.995   7.715   7.118  0.1696 -0.5635 -0.0846
 1229ERGO    R516776  14.993   7.915   7.031 -0.3605 -0.3737  0.3164
 1229ERGO    C116777  15.300   7.944   7.255 -0.2902 -0.0920  0.1872
 1229ERGO    C216778  15.332   7.682   7.579 -0.0361  0.1912 -0.2215
 1230ERGO   ROH16779   5.101   8.664   6.372 -0.1612 -0.0144 -0.1619
 1230ERGO    R116780   5.075   8.751   6.640 -0.0538  0.0209 -0.1641
 1230ERGO    R216781   4.903   8.954   6.714 -0.0143  0.0315 -0.1261
 1230ERGO    R316782   4.809   8.767   6.888  0.0450  0.0631 -0.0575
 1230ERGO    R416783   4.705   9.023   6.989 -0.1469  0.0656 -0.2271
 1230ERGO    R516784   4.820   8.875   7.102 -0.0873  0.1910 -0.1083
 1230ERGO    C116785   4.503   8.888   7.313 -0.1684  0.1151 -0.2215
 1230ERGO    C216786   4.226   8.793   7.417 -0.2957 -0.1526  0.2397
 1231ERGO   ROH16787   2.075   0.123   6.343  0.2491 -0.1603 -0.0434
 1231ERGO    R116788   2.063   0.157   6.624  0.1378 -0.3498 -0.0238
 1231ERGO    R216789   1.921   0.362   6.743  0.5859 -0.0532  0.0243
 1231ERGO    R316790   1.804   0.158   6.880 -0.0625  0.1321 -0.2165
 1231ERGO    R416791   1.851   0.366   7.082  0.5368 -0.2104  0.0175
 1231ERGO    R516792   1.915   0.157   7.092 -0.0892 -0.4342 -0.1898
 1231ERGO    C116793   1.700   0.177   7.407 -0.1005 -0.1278 -0.2126
 1231ERGO    C216794   1.756  -0.041   7.695  0.3209  0.0990  0.4638
 1232ERGO   ROH16795   0.625  14.904  10.255 -0.2973  0.2749  0.1736
 1232ERGO    R116796   0.490  14.957  10.013 -0.0549  0.3593  0.0525
 1232ERGO    R216797   0.561  15.163   9.844  0.4111  0.1403 -0.0387
 1232ERGO    R316798   0.574  14.964   9.659  0.1928 -0.0061  0.0992
 1232ERGO    R416799   0.498  15.202   9.506  0.5927  0.0013 -0.0903
 1232ERGO    R516800   0.394  15.011   9.508  0.3152  0.1517  0.0027
 1232ERGO    C116801   0.473  15.039   9.136  0.4935 -0.2170  0.0090
 1232ERGO    C216802   0.412  15.064   8.687  0.0500 -0.3842  0.1960
 1233ERGO   ROH16803   5.909   4.144   5.900 -0.0277  0.1407  0.0700
 1233ERGO    R116804   6.097   4.166   6.110 -0.0379 -0.1100  0.1083
 1233ERGO    R216805   6.077   4.359   6.308  0.1851 -0.0742  0.0911
 1233ERGO    R316806   6.091   4.144   6.473 -0.1424 -0.0879  0.1101
 1233ERGO    R416807   6.091   4.374   6.653  0.4316 -0.0378  0.0817
 1233ERGO    R516808   6.237   4.213   6.649  0.1175 -0.3419  0.0099
 1233ERGO    C116809   6.113   4.181   7.009  0.2678 -0.0294  0.0940
 1233ERGO    C216810   5.753   4.166   7.296 -0.0660 -0.2667  0.0406
 1234ERGO   ROH16811  17.254  15.987   6.422  0.0872  0.1228 -0.1483
 1234ERGO    R116812  17.181  16.085   6.677  0.2374  0.0740 -0.0852
 1234ERGO    R216813  16.941  16.022   6.799  0.1879  0.2673 -0.0741
 1234ERGO    R316814  17.103  15.943   7.003  0.1448 -0.0078 -0.1427
 1234ERGO    R416815  16.837  15.963   7.123  0.2047  0.3393 -0.0564
 1234ERGO    R516816  17.019  16.060   7.194  0.3659  0.0693 -0.0895
 1234ERGO    C116817  16.928  15.856   7.503  0.1740  0.1229 -0.1106
 1234ERGO    C216818  16.768  15.544   7.597 -0.2357  0.0136 -0.2783
 1235ERGO   ROH16819  14.211   1.714   9.509  0.0362  0.3725 -0.1968
 1235ERGO    R116820  14.386   1.656   9.294  0.0772 -0.0667 -0.0556
 1235ERGO    R216821  14.392   1.409   9.170 -0.5067 -0.0725 -0.1031
 1235ERGO    R316822  14.352   1.557   8.946  0.1022  0.1104 -0.1084
 1235ERGO    R416823  14.400   1.286   8.847 -0.5152 -0.0005 -0.1310
 1235ERGO    R516824  14.505   1.466   8.786  0.0289 -0.2484  0.0191
 1235ERGO    C116825  14.367   1.353   8.449  0.0516  0.2132 -0.1523
 1235ERGO    C216826  14.204   1.455   8.139 -0.3889  0.3436 -0.2434
 1236ERGO   ROH16827   4.989   3.939   5.906  0.0349  0.0503  0.1031
 1236ERGO    R116828   5.106   4.045   6.141  0.1615 -0.0448  0.0846
 1236ERGO    R216829   4.967   4.207   6.316  0.3637  0.1942  0.0323
 1236ERGO    R316830   5.046   4.022   6.500  0.0986  0.1294  0.0855
 1236ERGO    R416831   5.079   4.281   6.634  0.1831  0.0977  0.1203
 1236ERGO    R516832   5.231   4.126   6.611  0.0906 -0.0081  0.2272
 1236ERGO    C116833   5.220   4.151   6.992 -0.1709 -0.0195  0.2215
 1236ERGO    C216834   5.302   3.966   7.272 -0.3062 -0.2888 -0.2888
 1237ERGO   ROH16835  14.979  15.355   6.313  0.0068 -0.0004 -0.1126
 1237ERGO    R116836  14.799  15.349   6.531  0.0121 -0.1248 -0.1099
 1237ERGO    R216837  14.818  15.164   6.735  0.1719 -0.0847 -0.0803
 1237ERGO    R316838  14.819  15.386   6.892 -0.0120 -0.0577 -0.1171
 1237ERGO    R416839  14.718  15.171   7.066  0.1648 -0.0999 -0.0826
 1237ERGO    R516840  14.622  15.363   7.027  0.0098 -0.1901 -0.1147
 1237ERGO    C116841  14.660  15.383   7.406 -0.0120 -0.0835 -0.1185
 1237ERGO    C216842  14.640  15.466   7.692  0.0784  0.1644  0.1906
 1238ERGO   ROH16843  18.091  13.934   6.565 -0.2744 -0.0368 -0.1813
 1238ERGO    R116844  17.983  13.963   6.824 -0.1595  0.0111 -0.1394
 1238ERGO    R216845  17.904  13.748   6.978  0.0388  0.0342 -0.0119
 1238ERGO    R316846  18.072  13.857   7.161  0.0673  0.2024 -0.1342
 1238ERGO    R416847  17.856  13.735   7.320  0.4013 -0.2187  0.0361
 1238ERGO    R516848  17.926  13.942   7.331  0.0982 -0.1061  0.0615
 1238ERGO    C116849  17.986  13.831   7.691  0.6389 -0.2079 -0.0508
 1238ERGO    C216850  17.863  13.865   7.937  0.0476  0.4124 -0.1576
 1239ERGO   ROH16851  13.010   5.677   6.478  0.2386 -0.1413 -0.0909
 1239ERGO    R116852  13.097   5.607   6.739  0.1028 -0.1129 -0.0371
 1239ERGO    R216853  13.334   5.474   6.786  0.1206 -0.0337  0.1078
 1239ERGO    R316854  13.382   5.684   6.951 -0.0521 -0.0172  0.1384
 1239ERGO    R416855  13.582   5.483   7.026 -0.0344  0.0499  0.2666
 1239ERGO    R516856  13.442   5.583   7.160 -0.1514  0.0048  0.1770
 1239ERGO    C116857  13.771   5.686   7.322 -0.2869  0.1140  0.3878
 1239ERGO    C216858  13.997   5.619   7.614 -0.2624  0.1076  0.0166
 1240ERGO   ROH16859   2.406  17.872   6.605  0.0632 -0.1735 -0.0225
 1240ERGO    R116860   2.564  17.913   6.837  0.1171 -0.0291 -0.0839
 1240ERGO    R216861   2.724  18.135   6.870  0.0341  0.0519 -0.2076
 1240ERGO    R316862   2.585  18.162   7.102  0.0918  0.0691 -0.1743
 1240ERGO    R416863   2.847  18.281   7.158  0.0318  0.2521 -0.3059
 1240ERGO    R516864   2.748  18.125   7.273  0.1645  0.2441 -0.2070
 1240ERGO    C116865   2.787  18.391   7.544  0.0845  0.3848 -0.3319
 1240ERGO    C216866   3.005  18.450   7.800 -0.0181  0.2799 -0.0799
 1241ERGO   ROH16867  17.307  11.814   6.510 -0.2219 -0.1913 -0.0974
 1241ERGO    R116868  17.178  11.911   6.742 -0.1422 -0.2773 -0.0195
 1241ERGO    R216869  17.250  11.833   6.997  0.2785  0.0069 -0.0572
 1241ERGO    R316870  17.273  12.100   7.039 -0.1545  0.0829 -0.2340
 1241ERGO    R416871  17.157  11.996   7.287  0.4146 -0.0494  0.0220
 1241ERGO    R516872  17.077  12.158   7.165 -0.0922 -0.2385  0.0483
 1241ERGO    C116873  17.125  12.343   7.495  0.0874 -0.0108 -0.0979
 1241ERGO    C216874  16.986  12.211   7.832 -0.2192 -0.3329  0.2065
 1242ERGO   ROH16875   9.216   2.638   6.323  0.0618 -0.0696  0.0264
 1242ERGO    R116876   9.338   2.800   6.521 -0.0766  0.0498  0.0156
 1242ERGO    R216877   9.610   2.800   6.566 -0.1167 -0.0061  0.2786
 1242ERGO    R316878   9.583   3.068   6.529  0.0047 -0.0249  0.0344
 1242ERGO    R416879   9.830   3.039   6.685 -0.1179  0.0154  0.2375
 1242ERGO    R516880   9.659   3.165   6.735 -0.1101  0.1204  0.0098
 1242ERGO    C116881   9.933   3.429   6.719 -0.0045  0.0101 -0.0157
 1242ERGO    C216882  10.247   3.501   6.627  0.0159 -0.0871  0.0151
 1243ERGO   ROH16883  15.099   6.500   6.336  0.0817 -0.1268  0.0177
 1243ERGO    R116884  15.139   6.485   6.616 -0.0474 -0.1483  0.0350
 1243ERGO    R216885  15.227   6.701   6.765 -0.0077 -0.1945  0.0720
 1243ERGO    R316886  15.004   6.649   6.911 -0.0955 -0.0848 -0.0205
 1243ERGO    R416887  15.206   6.730   7.108 -0.1415 -0.1371  0.0596
 1243ERGO    R516888  15.087   6.547   7.111 -0.2197 -0.0928  0.0317
 1243ERGO    C116889  14.984   6.699   7.446 -0.3018 -0.0007 -0.0343
 1243ERGO    C216890  14.760   6.595   7.718  0.2607 -0.1092  0.2036
 1244ERGO   ROH16891   9.683   5.063   6.123  0.1349 -0.1557  0.0655
 1244ERGO    R116892   9.728   4.942   6.375  0.0855 -0.0381  0.1323
 1244ERGO    R216893   9.730   5.086   6.610 -0.1341  0.0486  0.0884
 1244ERGO    R316894   9.544   4.903   6.686 -0.0533 -0.0504  0.0480
 1244ERGO    R416895   9.644   5.016   6.938 -0.0806 -0.0990  0.0714
 1244ERGO    R516896   9.635   4.804   6.885 -0.0010 -0.0811  0.0048
 1244ERGO    C116897   9.419   4.804   7.199  0.0261 -0.2781  0.0236
 1244ERGO    C216898   9.379   4.537   7.504  0.2251 -0.1453 -0.1873
 1245ERGO   ROH16899  11.425   4.682   6.567 -0.0420 -0.3452 -0.0540
 1245ERGO    R116900  11.574   4.826   6.760  0.1770 -0.1285 -0.3742
 1245ERGO    R216901  11.560   4.770   7.030  0.0265  0.5404 -0.2248
 1245ERGO    R316902  11.830   4.750   7.006  0.0052  0.0076 -0.1487
 1245ERGO    R416903  11.779   4.731   7.294 -0.0896  0.7299 -0.0981
 1245ERGO    R516904  11.916   4.869   7.196  0.1802  0.2827 -0.3916
 1245ERGO    C116905  12.160   4.689   7.426 -0.1770  0.3402  0.0471
 1245ERGO    C216906  12.361   4.477   7.567 -0.1975 -0.0012  0.1223
 1246ERGO   ROH16907   9.227   0.071   6.515  0.0235  0.2139 -0.0802
 1246ERGO    R116908   9.023  -0.013   6.691  0.0394  0.1439 -0.0942
 1246ERGO    R216909   9.072  -0.078   6.956  0.0562  0.0827 -0.1097
 1246ERGO    R316910   8.877   0.105   7.003  0.0368  0.0482 -0.0594
 1246ERGO    R416911   8.938  -0.009   7.266 -0.1850 -0.2482 -0.1345
 1246ERGO    R516912   8.742   0.005   7.173 -0.1091 -0.1276 -0.2759
 1246ERGO    C116913   8.677   0.204   7.492 -0.3436 -0.4732 -0.1017
 1246ERGO    C216914   8.364   0.270   7.904  0.0751  0.0351  0.1789
 1247ERGO   ROH16915   3.778   0.067   6.151 -0.1949 -0.1565 -0.0295
 1247ERGO    R116916   3.805  -0.023   6.418 -0.2326 -0.4029 -0.1067
 1247ERGO    R216917   3.748   0.137   6.636  0.1340 -0.4602  0.0365
 1247ERGO    R316918   3.586  -0.071   6.704 -0.1955 -0.2409 -0.0494
 1247ERGO    R416919   3.685   0.034   6.959  0.2671 -0.7079 -0.0139
 1247ERGO    R516920   3.697  -0.172   6.891 -0.1902 -0.6652 -0.2687
 1247ERGO    C116921   3.497  -0.221   7.213  0.0352 -0.6463 -0.1239
 1247ERGO    C216922   3.347  -0.166   7.453  0.3386 -0.3172  0.2837
 1248ERGO   ROH16923  12.500   0.091   6.057  0.1557  0.0180 -0.0319
 1248ERGO    R116924  12.457  -0.047   6.301  0.0264  0.1247  0.0067
 1248ERGO    R216925  12.647  -0.213   6.414 -0.1134  0.0071  0.0719
 1248ERGO    R316926  12.610  -0.054   6.631 -0.0058  0.1032  0.0208
 1248ERGO    R416927  12.770  -0.280   6.730 -0.1456  0.0357  0.0907
 1248ERGO    R516928  12.582  -0.208   6.813 -0.0974  0.1825  0.0735
 1248ERGO    C116929  12.807  -0.169   7.118 -0.0633  0.1427  0.0538
 1248ERGO    C216930  13.140  -0.284   7.391  0.2241  0.0300 -0.1215
 1249ERGO   ROH16931   3.633   6.913   6.522  0.2682  0.1580 -0.0491
 1249ERGO    R116932   3.592   6.953   6.799  0.1200  0.0971 -0.0605
 1249ERGO    R216933   3.800   7.006   6.975  0.0400 -0.0273  0.0793
 1249ERGO    R316934   3.647   7.222   7.038  0.0816  0.0118  0.0437
 1249ERGO    R416935   3.834   7.195   7.262  0.0608  0.0043  0.0553
 1249ERGO    R516936   3.617   7.206   7.275  0.0649  0.0508  0.0423
 1249ERGO    C116937   3.710   7.507   7.489  0.1120  0.0595  0.0079
 1249ERGO    C216938   3.860   7.666   7.654  0.1374  0.0683 -0.0604
 1250ERGO   ROH16939   7.448  18.260   9.595  0.0865  0.0659 -0.0307
 1250ERGO    R116940   7.479  18.335   9.323  0.0853  0.1861  0.0013
 1250ERGO    R216941   7.302  18.255   9.126  0.1768  0.1337 -0.0616
 1250ERGO    R316942   7.286  18.522   9.078 -0.0005  0.1414  0.0342
 1250ERGO    R416943   7.243  18.396   8.817  0.3271  0.2075 -0.0572
 1250ERGO    R516944   7.390  18.550   8.864  0.1624  0.3119  0.1325
 1250ERGO    C116945   7.192  18.729   8.591  0.2481  0.2578  0.0353
 1250ERGO    C216946   7.181  18.699   8.230  0.2130  0.1808  0.0316
 1251ERGO   ROH16947   1.362   8.526   6.728  0.1950  0.1073 -0.0451
 1251ERGO    R116948   1.399   8.666   6.971  0.0531  0.2388 -0.0970
 1251ERGO    R216949   1.245   8.884   7.043 -0.2089  0.0809 -0.1544
 1251ERGO    R316950   1.201   8.738   7.268 -0.0045  0.0983 -0.1021
 1251ERGO    R416951   1.155   9.015   7.349  0.0383  0.0927 -0.0851
 1251ERGO    R516952   1.289   8.873   7.445  0.1306  0.1174 -0.1870
 1251ERGO    C116953   1.061   8.954   7.739  0.3742  0.1158  0.0043
 1251ERGO    C216954   0.758   8.969   8.073 -0.0697 -0.2280  0.3087
 1252ERGO   ROH16955  11.750  10.587   6.404  0.2278  0.0361  0.1830
 1252ERGO    R116956  11.625  10.631   6.654 -0.0703 -0.0497  0.0547
 1252ERGO    R216957  11.448  10.450   6.766  0.0106 -0.2274 -0.0819
 1252ERGO    R316958  11.617  10.466   6.979 -0.2058  0.0028  0.0763
 1252ERGO    R416959  11.399  10.292   7.070 -0.1094 -0.1800 -0.0774
 1252ERGO    R516960  11.471  10.472   7.169 -0.3839 -0.0829 -0.0617
 1252ERGO    C116961  11.528  10.215   7.446 -0.3826  0.0636  0.0737
 1252ERGO    C216962  11.588  10.214   7.811 -0.6617 -0.3853 -0.0339
 1253ERGO   ROH16963  13.366   4.159   5.942 -0.0018  0.0541 -0.0086
 1253ERGO    R116964  13.270   4.133   6.207  0.0427  0.0055  0.0031
 1253ERGO    R216965  13.376   3.952   6.387  0.0321 -0.0715 -0.0668
 1253ERGO    R316966  13.405   4.173   6.543  0.1181 -0.1211 -0.0119
 1253ERGO    R416967  13.334   3.960   6.730  0.0923 -0.1520 -0.0575
 1253ERGO    R516968  13.235   4.152   6.709  0.1408 -0.1193  0.0112
 1253ERGO    C116969  13.338   4.172   7.076  0.2080 -0.2455 -0.0005
 1253ERGO    C216970  13.067   4.332   7.401 -0.2431 -0.1471 -0.0431
 1254ERGO   ROH16971   8.690   7.668   6.180 -0.1158  0.2964  0.1759
 1254ERGO    R116972   8.765   7.641   6.451  0.1069  0.1819  0.1032
 1254ERGO    R216973   8.673   7.434   6.611 -0.0536  0.3269  0.1806
 1254ERGO    R316974   8.939   7.393   6.653 -0.0694 -0.0848 -0.0593
 1254ERGO    R416975   8.810   7.290   6.894 -0.0567 -0.1614 -0.0544
 1254ERGO    R516976   8.970   7.436   6.886  0.1523 -0.3600 -0.0210
 1254ERGO    C116977   9.138   7.167   7.098 -0.0733 -0.8321 -0.4165
 1254ERGO    C216978   9.276   7.173   7.470 -0.2194 -0.1744 -0.2820
 1255ERGO   ROH16979  10.597  18.163   9.697 -0.1295 -0.0100 -0.0711
 1255ERGO    R116980  10.491  18.153   9.435 -0.2182 -0.0113 -0.0359
 1255ERGO    R216981  10.263  18.289   9.361 -0.1785  0.0828  0.0112
 1255ERGO    R316982  10.424  18.390   9.167 -0.1908 -0.0307 -0.0597
 1255ERGO    R416983  10.188  18.564   9.166 -0.0275  0.1959  0.1107
 1255ERGO    R516984  10.273  18.460   8.995 -0.2240  0.1487  0.0400
 1255ERGO    C116985  10.295  18.820   8.871  0.0488  0.1551  0.1019
 1255ERGO    C216986  10.173  19.192   8.903  0.0913  0.1875 -0.0998
 1256ERGO   ROH16987  18.172  12.958   6.766 -0.0418 -0.0772 -0.0607
 1256ERGO    R116988  18.290  12.938   7.023 -0.0158 -0.1189 -0.0761
 1256ERGO    R216989  18.537  12.822   7.065  0.0524  0.0075 -0.1413
 1256ERGO    R316990  18.592  13.059   7.185 -0.0761 -0.0124 -0.0396
 1256ERGO    R416991  18.668  12.856   7.383  0.0908 -0.0699 -0.1487
 1256ERGO    R516992  18.533  13.024   7.415 -0.0142 -0.1657 -0.0422
 1256ERGO    C116993  18.797  13.098   7.681 -0.0075 -0.1336 -0.0575
 1256ERGO    C216994  19.064  13.330   7.805 -0.0160 -0.1435  0.0834
 1257ERGO   ROH16995   2.434   8.155   6.519 -0.1774  0.2009  0.0132
 1257ERGO    R116996   2.439   8.210   6.796 -0.1099  0.0604  0.0395
 1257ERGO    R216997   2.234   8.138   6.966 -0.0819  0.0059  0.0454
 1257ERGO    R316998   2.434   8.015   7.104 -0.0718 -0.0925 -0.0541
 1257ERGO    R416999   2.244   8.102   7.310  0.1050  0.0773  0.0491
 1257ERGO    R517000   2.457   8.146   7.303  0.1344 -0.0592 -0.0946
 1257ERGO    C117001   2.437   7.966   7.639  0.2232  0.0266 -0.0420
 1257ERGO    C217002   2.357   7.955   7.966 -0.0778  0.1271 -0.1293
 1258ERGO   ROH17003   7.229   7.432   6.590 -0.0520 -0.3039  0.0724
 1258ERGO    R117004   7.285   7.457   6.866  0.0216 -0.3983  0.0661
 1258ERGO    R217005   7.134   7.615   7.035  0.3172 -0.1191  0.0772
 1258ERGO    R317006   7.113   7.385   7.178 -0.0818 -0.0850  0.0846
 1258ERGO    R417007   7.074   7.600   7.375  0.3066 -0.0043  0.0813
 1258ERGO    R517008   7.218   7.436   7.388  0.0230 -0.2631  0.0779
 1258ERGO    C117009   7.019   7.376   7.708 -0.0743  0.0945  0.0906
 1258ERGO    C217010   6.876   7.120   7.944 -0.1863 -0.0643  0.3042
 1259ERGO   ROH17011  11.659   2.484   6.196 -0.1408 -0.0612 -0.0553
 1259ERGO    R117012  11.596   2.402   6.460 -0.0685  0.0288 -0.0098
 1259ERGO    R217013  11.780   2.277   6.624 -0.0663 -0.0454 -0.0707
 1259ERGO    R317014  11.715   2.478   6.795  0.1302  0.0275 -0.0778
 1259ERGO    R417015  11.811   2.261   6.968 -0.1514 -0.0942 -0.0649
 1259ERGO    R517016  11.620   2.365   6.985 -0.0380  0.1269 -0.0994
 1259ERGO    C117017  11.767   2.439   7.329 -0.0166 -0.0541 -0.0681
 1259ERGO    C217018  11.716   2.610   7.609  0.0851  0.1609 -0.2138
 1260ERGO   ROH17019   0.663   3.812   7.857  0.1489  0.1173  0.1592
 1260ERGO    R117020   0.940   3.768   7.818  0.1189  0.0457  0.0219
 1260ERGO    R217021   1.048   3.713   7.569  0.0072  0.2026 -0.0633
 1260ERGO    R317022   1.208   3.925   7.629  0.1064  0.0974  0.0469
 1260ERGO    R417023   1.310   3.824   7.373  0.0049  0.2330 -0.0488
 1260ERGO    R517024   1.426   3.857   7.555  0.0618  0.0602 -0.0518
 1260ERGO    C117025   1.613   4.087   7.315  0.0966  0.1520  0.0630
 1260ERGO    C217026   1.903   4.313   7.014  0.0487 -0.1724 -0.0739
 1261ERGO   ROH17027  17.653  18.091   6.187  0.0130 -0.1319 -0.0092
 1261ERGO    R117028  17.443  18.193   6.346  0.0400  0.0960 -0.1171
 1261ERGO    R217029  17.316  18.043   6.541 -0.2509  0.2167 -0.2097
 1261ERGO    R317030  17.384  18.252   6.701 -0.0956  0.1176 -0.1423
 1261ERGO    R417031  17.246  18.063   6.878 -0.1070  0.0969 -0.1707
 1261ERGO    R517032  17.198  18.274   6.850 -0.0275  0.1322 -0.0576
 1261ERGO    C117033  17.268  18.271   7.225  0.1224 -0.0661 -0.0848
 1261ERGO    C217034  17.259  18.301   7.512 -0.1251  0.0445  0.2326
 1262ERGO   ROH17035   7.264   5.122   6.461 -0.0471  0.1981  0.1822
 1262ERGO    R117036   7.406   4.970   6.653 -0.2398 -0.0985  0.0950
 1262ERGO    R217037   7.531   5.085   6.870  0.2063 -0.3389 -0.0258
 1262ERGO    R317038   7.381   4.906   7.010 -0.1039  0.0281  0.1284
 1262ERGO    R417039   7.608   4.966   7.186  0.1649 -0.4219 -0.0462
 1262ERGO    R517040   7.541   4.768   7.122 -0.3243 -0.3034  0.0520
 1262ERGO    C117041   7.511   4.729   7.500 -0.1504 -0.1257  0.0867
 1262ERGO    C217042   7.641   4.715   7.881 -0.1033 -0.0579  0.3086
 1263ERGO   ROH17043   7.284  14.245   7.900  0.0407 -0.2861  0.3315
 1263ERGO    R117044   7.086  14.054   7.833 -0.0004 -0.1317 -0.0201
 1263ERGO    R217045   6.888  13.977   8.010  0.1236 -0.5919 -0.0569
 1263ERGO    R317046   6.723  14.047   7.806 -0.0199 -0.0588  0.2247
 1263ERGO    R417047   6.563  13.866   7.971  0.1089 -0.5138 -0.1513
 1263ERGO    R517048   6.600  13.848   7.757 -0.0310  0.0562 -0.2318
 1263ERGO    C117049   6.219  13.868   7.755 -0.0344  0.0321  0.0581
 1263ERGO    C217050   5.967  13.888   7.801 -0.4055  0.0020  0.0998
 1264ERGO   ROH17051  16.342  14.417   6.149 -0.1819 -0.0927 -0.0420
 1264ERGO    R117052  16.197  14.408   6.393 -0.0528 -0.0855  0.0361
 1264ERGO    R217053  16.281  14.539   6.621  0.0555 -0.0579 -0.0197
 1264ERGO    R317054  16.033  14.648   6.611  0.0395 -0.0828  0.1038
 1264ERGO    R417055  16.102  14.645   6.896  0.0385 -0.4066  0.1077
 1264ERGO    R517056  15.922  14.561   6.805  0.0510 -0.3288  0.0050
 1264ERGO    C117057  15.763  14.809   7.048  0.0139 -0.6329  0.2978
 1264ERGO    C217058  15.713  15.052   7.392  0.0916 -0.2754 -0.2546
 1265ERGO   ROH17059   4.040   4.695   6.274 -0.0530 -0.0440  0.0346
 1265ERGO    R117060   4.100   4.473   6.439  0.0310  0.0181  0.0889
 1265ERGO    R217061   4.257   4.493   6.665 -0.0426  0.1485  0.1297
 1265ERGO    R317062   4.042   4.378   6.786 -0.0098  0.0444  0.0893
 1265ERGO    R417063   4.248   4.392   6.995 -0.1235  0.3369  0.1866
 1265ERGO    R517064   4.138   4.214   6.932  0.0529  0.2081  0.2351
 1265ERGO    C117065   4.041   4.224   7.301 -0.1399  0.3490  0.1818
 1265ERGO    C217066   4.076   4.155   7.625  0.1480 -0.0488 -0.0029
 1266ERGO   ROH17067   0.737   3.298   6.076 -0.0108 -0.0089 -0.0498
 1266ERGO    R117068   0.610   3.240   6.322  0.0062  0.0208 -0.0342
 1266ERGO    R217069   0.746   3.132   6.538  0.0016 -0.0354 -0.0601
 1266ERGO    R317070   0.645   3.348   6.668  0.0928 -0.0084 -0.0334
 1266ERGO    R417071   0.672   3.142   6.875  0.0759 -0.0222 -0.0441
 1266ERGO    R517072   0.492   3.255   6.828  0.0987  0.0324 -0.0035
 1266ERGO    C117073   0.534   3.352   7.194  0.2048  0.0109 -0.0096
 1266ERGO    C217074   0.546   3.581   7.465  0.1346 -0.1549  0.3332
 1267ERGO   ROH17075   0.233  18.556   6.260  0.3359  0.1223  0.0670
 1267ERGO    R117076   0.230  18.727   6.485  0.1439  0.1086  0.0768
 1267ERGO    R217077  -0.004  18.821   6.598  0.0424  0.0057 -0.0419
 1267ERGO    R317078   0.100  18.715   6.825 -0.0343  0.0344  0.0069
 1267ERGO    R417079  -0.079  18.927   6.918 -0.0116  0.0887 -0.0820
 1267ERGO    R517080   0.131  18.903   6.970 -0.0308  0.0575 -0.0261
 1267ERGO    C117081  -0.025  18.890   7.318 -0.1152  0.1638 -0.0596
 1267ERGO    C217082  -0.334  18.875   7.471 -0.4317 -0.3648  0.0283
 1268ERGO   ROH17083   5.733   6.686   6.501 -0.0866 -0.2868 -0.2011
 1268ERGO    R117084   5.897   6.844   6.669 -0.2649 -0.3190  0.0076
 1268ERGO    R217085   5.895   6.819   6.945 -0.2633 -0.6637 -0.0149
 1268ERGO    R317086   6.162   6.784   6.911 -0.2222 -0.3448 -0.0478
 1268ERGO    R417087   6.132   6.859   7.193 -0.2458 -0.2128 -0.0957
 1268ERGO    R517088   6.262   6.955   7.046 -0.4011 -0.1378 -0.1775
 1268ERGO    C117089   6.522   6.849   7.305 -0.1969  0.3492 -0.1737
 1268ERGO    C217090   6.870   6.951   7.367 -0.1404 -0.1427  0.1168
 1269ERGO   ROH17091  11.021  13.433   6.134 -0.2330  0.0073  0.1438
 1269ERGO    R117092  11.052  13.357   6.405  0.0288  0.0240  0.1196
 1269ERGO    R217093  11.272  13.430   6.555  0.0461  0.2631 -0.0200
 1269ERGO    R317094  11.084  13.526   6.725  0.0447  0.0392  0.1106
 1269ERGO    R417095  11.300  13.432   6.900  0.2796  0.2903 -0.0366
 1269ERGO    R517096  11.090  13.376   6.912  0.3497  0.0405  0.1076
 1269ERGO    C117097  11.139  13.524   7.260  0.4143  0.0959  0.0762
 1269ERGO    C217098  11.284  13.648   7.476 -0.0526 -0.0471 -0.3088
 1270ERGO   ROH17099   6.879  13.580   9.915 -0.0082  0.0051  0.1120
 1270ERGO    R117100   6.801  13.735   9.691  0.1599  0.0936  0.1124
 1270ERGO    R217101   6.974  13.797   9.485  0.2094 -0.1644  0.0694
 1270ERGO    R317102   6.778  13.688   9.331  0.0236  0.0849  0.1224
 1270ERGO    R417103   6.914  13.879   9.154  0.2534 -0.1299  0.0701
 1270ERGO    R517104   6.700  13.870   9.196  0.2480  0.1739  0.1127
 1270ERGO    C117105   6.695  13.824   8.818  0.1046  0.1242  0.1204
 1270ERGO    C217106   6.716  13.816   8.452 -0.2796  0.2325  0.0952
 1271ERGO   ROH17107   5.826   2.649   5.901 -0.0993  0.1359 -0.1886
 1271ERGO    R117108   5.705   2.670   6.156 -0.0261  0.0319 -0.1430
 1271ERGO    R217109   5.698   2.460   6.335 -0.0972 -0.0910 -0.2774
 1271ERGO    R317110   5.811   2.642   6.503  0.0482 -0.2619 -0.1885
 1271ERGO    R417111   5.678   2.450   6.680 -0.2907 -0.1131 -0.2893
 1271ERGO    R517112   5.651   2.666   6.680 -0.0115 -0.0818 -0.2706
 1271ERGO    C117113   5.772   2.614   7.038 -0.2669 -0.2864 -0.2128
 1271ERGO    C217114   6.019   2.819   7.293  0.0178 -0.0149 -0.1518
 1272ERGO   ROH17115  14.202  16.717   6.360 -0.1831 -0.3242 -0.1311
 1272ERGO    R117116  14.279  16.546   6.572 -0.0470 -0.1566 -0.0411
 1272ERGO    R217117  14.505  16.590   6.725 -0.0301  0.0527 -0.1156
 1272ERGO    R317118  14.329  16.576   6.931  0.0207  0.0925 -0.0707
 1272ERGO    R417119  14.579  16.468   7.040 -0.0325 -0.1449 -0.1915
 1272ERGO    R517120  14.384  16.371   7.042 -0.1027  0.0026 -0.1787
 1272ERGO    C117121  14.456  16.383   7.417  0.0137 -0.2226 -0.1936
 1272ERGO    C217122  14.443  16.491   7.726  0.2743  0.2395  0.1676
 1273ERGO   ROH17123  16.582   0.671   6.139 -0.0618 -0.2529 -0.1325
 1273ERGO    R117124  16.601   0.553   6.396  0.0275 -0.2764 -0.1497
 1273ERGO    R217125  16.496   0.672   6.622  0.4259 -0.1140 -0.0406
 1273ERGO    R317126  16.370   0.433   6.650  0.1010  0.0653  0.0870
 1273ERGO    R417127  16.450   0.506   6.922  0.3038  0.0504  0.0331
 1273ERGO    R517128  16.494   0.319   6.820  0.0075 -0.0509  0.0794
 1273ERGO    C117129  16.305   0.185   7.123 -0.0721  0.3145  0.1958
 1273ERGO    C217130  16.315  -0.075   7.363 -0.0542  0.0934 -0.0400
 1274ERGO   ROH17131  13.340   2.937   5.971  0.0367 -0.1208 -0.0420
 1274ERGO    R117132  13.565   2.935   6.143  0.0113 -0.0999 -0.0102
 1274ERGO    R217133  13.543   2.965   6.417 -0.0267 -0.0486 -0.0239
 1274ERGO    R317134  13.683   2.732   6.421 -0.0343 -0.0534  0.0452
 1274ERGO    R417135  13.702   2.836   6.695  0.2712  0.2170 -0.0634
 1274ERGO    R517136  13.868   2.777   6.567  0.1323  0.0848 -0.1957
 1274ERGO    C117137  13.926   2.542   6.861  0.4375  0.3671 -0.0216
 1274ERGO    C217138  14.003   2.498   7.253  0.1006 -0.1562 -0.1115
 1275ERGO   ROH17139   7.627   2.364   6.366 -0.0343 -0.1721 -0.0184
 1275ERGO    R117140   7.627   2.277   6.636  0.0348 -0.0504  0.0224
 1275ERGO    R217141   7.847   2.303   6.801  0.0450  0.1200 -0.0122
 1275ERGO    R317142   7.669   2.429   6.963  0.0075  0.1189 -0.0529
 1275ERGO    R417143   7.820   2.251   7.141 -0.0595  0.1015 -0.0233
 1275ERGO    R517144   7.603   2.261   7.120 -0.0494  0.1166 -0.0832
 1275ERGO    C117145   7.637   2.340   7.492 -0.1556  0.0898 -0.0679
 1275ERGO    C217146   7.774   2.433   7.783 -0.1192 -0.0122  0.1582
 1276ERGO   ROH17147   8.769   5.496   6.428  0.3002 -0.0136  0.1252
 1276ERGO    R117148   8.778   5.354   6.673  0.1467 -0.0261  0.1238
 1276ERGO    R217149   8.570   5.358   6.855  0.0222 -0.0568 -0.0198
 1276ERGO    R317150   8.586   5.088   6.831  0.0649 -0.0549 -0.0202
 1276ERGO    R417151   8.493   5.132   7.105 -0.3878 -0.0768 -0.1569
 1276ERGO    R517152   8.665   5.013   7.044 -0.2799 -0.0710  0.1108
 1276ERGO    C117153   8.462   4.747   7.228 -0.5863 -0.0868 -0.2370
 1276ERGO    C217154   8.443   4.511   7.481 -0.0242  0.0295 -0.0755
 1277ERGO   ROH17155   9.628   7.216   6.017  0.2179 -0.0879 -0.1740
 1277ERGO    R117156   9.486   7.180   6.260  0.1422 -0.0457 -0.2113
 1277ERGO    R217157   9.434   6.930   6.365  0.1696 -0.0264 -0.1485
 1277ERGO    R317158   9.554   7.033   6.586  0.0667  0.0768 -0.1401
 1277ERGO    R417159   9.373   6.827   6.689  0.1500  0.0039 -0.1428
 1277ERGO    R517160   9.381   7.036   6.752  0.0285  0.0195 -0.1795
 1277ERGO    C117161   9.451   6.864   7.086  0.0421  0.1184 -0.1315
 1277ERGO    C217162   9.463   6.643   7.284  0.0561 -0.1012 -0.1070
 1278ERGO   ROH17163  16.205   7.802   7.834 -0.0046  0.1987 -0.0179
 1278ERGO    R117164  15.940   7.714   7.883  0.0149  0.1254 -0.0374
 1278ERGO    R217165  15.805   7.544   7.710  0.0820  0.0611 -0.0351
 1278ERGO    R317166  15.773   7.395   7.935  0.1077  0.0812 -0.0193
 1278ERGO    R417167  15.552   7.314   7.762  0.1121  0.0391  0.0103
 1278ERGO    R517168  15.536   7.384   7.967  0.1156  0.0565 -0.0018
 1278ERGO    C117169  15.375   7.041   8.002  0.1537  0.0451  0.0517
 1278ERGO    C217170  15.151   6.793   8.016  0.0156 -0.2331  0.0539
 1279ERGO   ROH17171   6.705   2.264   6.418 -0.0378  0.1951 -0.0626
 1279ERGO    R117172   6.636   2.199   6.684  0.1639  0.0560 -0.0409
 1279ERGO    R217173   6.705   2.358   6.898  0.0026  0.1449 -0.0466
 1279ERGO    R317174   6.439   2.349   6.951  0.0303 -0.2744  0.0494
 1279ERGO    R417175   6.564   2.425   7.207 -0.0110  0.1047 -0.0450
 1279ERGO    R517176   6.426   2.258   7.173  0.2583 -0.1532  0.1113
 1279ERGO    C117177   6.231   2.454   7.436  0.0072 -0.3122  0.0460
 1279ERGO    C217178   6.074   2.615   7.733 -0.1716  0.2501 -0.0200
 1280ERGO   ROH17179   8.282   7.788   6.241 -0.2006  0.1662 -0.0795
 1280ERGO    R117180   8.309   7.906   6.497 -0.1582  0.0715 -0.0400
 1280ERGO    R217181   8.317   7.758   6.729 -0.0699 -0.0181 -0.1006
 1280ERGO    R317182   8.549   7.893   6.770 -0.0856  0.0111 -0.1059
 1280ERGO    R417183   8.519   7.724   7.008 -0.0032 -0.0738 -0.1545
 1280ERGO    R517184   8.550   7.940   7.005 -0.0437 -0.0664 -0.0898
 1280ERGO    C117185   8.854   7.832   7.209  0.0209 -0.0787 -0.1908
 1280ERGO    C217186   9.120   7.610   7.362  0.1547 -0.2547  0.2125
 1281ERGO   ROH17187   9.352   1.478   6.172 -0.0174 -0.0107 -0.0449
 1281ERGO    R117188   9.421   1.668   6.371 -0.1380 -0.0109 -0.0040
 1281ERGO    R217189   9.234   1.776   6.544 -0.2154 -0.1177 -0.0295
 1281ERGO    R317190   9.407   1.687   6.734 -0.2166 -0.0653 -0.0019
 1281ERGO    R417191   9.260   1.906   6.863 -0.2577 -0.0495 -0.0526
 1281ERGO    R517192   9.477   1.886   6.849 -0.2480 -0.0289 -0.0359
 1281ERGO    C117193   9.437   1.898   7.228 -0.2835  0.0395 -0.0402
 1281ERGO    C217194   9.167   1.958   7.362  0.3392  0.4631 -0.0106
 1282ERGO   ROH17195   8.545  11.204   6.041  0.2135  0.1086  0.0734
 1282ERGO    R117196   8.499  11.074   6.288  0.0204  0.0320  0.0000
 1282ERGO    R217197   8.454  10.803   6.307  0.1430  0.0005 -0.1074
 1282ERGO    R317198   8.661  10.813   6.483 -0.0442  0.0768  0.1129
 1282ERGO    R417199   8.537  10.551   6.529  0.2253 -0.1242 -0.2774
 1282ERGO    R517200   8.577  10.704   6.680 -0.1116 -0.2239 -0.0788
 1282ERGO    C117201   8.779  10.414   6.824  0.0976 -0.1250 -0.1697
 1282ERGO    C217202   8.925  10.288   7.132  0.1435 -0.1429  0.0072
 1283ERGO   ROH17203  12.019  12.601   6.192  0.0466 -0.0182  0.0643
 1283ERGO    R117204  11.985  12.524   6.463 -0.0083  0.2162  0.1245
 1283ERGO    R217205  11.847  12.679   6.645 -0.3426  0.2123 -0.1294
 1283ERGO    R317206  11.705  12.450   6.683 -0.0414  0.0429  0.0306
 1283ERGO    R417207  11.717  12.575   6.948 -0.4423  0.4151 -0.0992
 1283ERGO    R517208  11.776  12.371   6.898 -0.0942  0.4204  0.2028
 1283ERGO    C117209  11.508  12.300   7.160 -0.2176  0.3742  0.0687
 1283ERGO    C217210  11.212  12.172   7.370 -0.3775  0.0512  0.0547
 1284ERGO   ROH17211   1.329   7.485   6.459 -0.1897  0.3073 -0.1584
 1284ERGO    R117212   1.307   7.436   6.737 -0.1347  0.1965 -0.1727
 1284ERGO    R217213   1.417   7.603   6.927 -0.0447  0.0908 -0.1262
 1284ERGO    R317214   1.164   7.605   7.025 -0.0215  0.1144 -0.0683
 1284ERGO    R417215   1.323   7.744   7.229  0.0886 -0.1805  0.0450
 1284ERGO    R517216   1.191   7.573   7.261  0.0127 -0.1483 -0.1070
 1284ERGO    C117217   1.030   7.827   7.497  0.1880 -0.3164  0.1991
 1284ERGO    C217218   1.056   7.970   7.915  0.0652 -0.0168 -0.2201
 1285ERGO   ROH17219   3.040  13.396   6.008  0.1417  0.2532  0.1595
 1285ERGO    R117220   2.966  13.297   6.262  0.1344  0.2258  0.1471
 1285ERGO    R217221   3.144  13.279   6.474  0.1211  0.2322  0.1602
 1285ERGO    R317222   2.954  13.425   6.603  0.0936  0.2004  0.1552
 1285ERGO    R417223   3.079  13.265   6.813 -0.1944 -0.1207  0.0921
 1285ERGO    R517224   2.867  13.277   6.768 -0.1497  0.0590 -0.0907
 1285ERGO    C117225   2.864  13.394   7.131 -0.4039 -0.3561  0.0478
 1285ERGO    C217226   2.850  13.455   7.463 -0.1537 -0.2352  0.1786
 1286ERGO   ROH17227   6.871  14.467   6.000  0.0091 -0.1614 -0.0636
 1286ERGO    R117228   6.727  14.410   6.237 -0.0576 -0.0132 -0.0684
 1286ERGO    R217229   6.814  14.224   6.423 -0.2712 -0.1245 -0.0860
 1286ERGO    R317230   6.788  14.433   6.595 -0.0341 -0.1092 -0.0642
 1286ERGO    R417231   6.699  14.199   6.747 -0.5511 -0.0074 -0.1723
 1286ERGO    R517232   6.588  14.384   6.718 -0.2169  0.2010 -0.2177
 1286ERGO    C117233   6.606  14.380   7.099 -0.4916  0.0752 -0.2021
 1286ERGO    C217234   6.439  14.164   7.367 -0.0474  0.2919 -0.3648
 1287ERGO   ROH17235  17.849   9.722  10.226 -0.3189 -0.0255 -0.0138
 1287ERGO    R117236  17.818   9.860   9.982 -0.2001 -0.1988 -0.1291
 1287ERGO    R217237  18.028   9.903   9.807 -0.1133 -0.3115 -0.0506
 1287ERGO    R317238  17.860   9.785   9.628 -0.0136 -0.4444 -0.0577
 1287ERGO    R417239  18.079   9.893   9.465 -0.1238 -0.2062 -0.0558
 1287ERGO    R517240  17.866   9.930   9.437 -0.1638 -0.4055 -0.0351
 1287ERGO    C117241  17.952   9.778   9.098 -0.0363 -0.2697 -0.0655
 1287ERGO    C217242  18.023   9.851   8.802  0.0708 -0.3101 -0.1099
 1288ERGO   ROH17243   1.562  14.024   6.394 -0.2224 -0.2257 -0.0631
 1288ERGO    R117244   1.523  14.046   6.673 -0.1600  0.0846 -0.0758
 1288ERGO    R217245   1.693  13.930   6.857 -0.3522 -0.0727  0.0026
 1288ERGO    R317246   1.707  14.183   6.956  0.1174 -0.0033 -0.2089
 1288ERGO    R417247   1.731  14.008   7.191 -0.6072  0.1238 -0.0109
 1288ERGO    R517248   1.588  14.171   7.164 -0.1967  0.4564 -0.3444
 1288ERGO    C117249   1.765  14.290   7.480 -0.3150  0.3032 -0.2173
 1288ERGO    C217250   1.865  14.610   7.678 -0.1107  0.1617 -0.2546
 1289ERGO   ROH17251   5.341   5.061   7.509 -0.0198 -0.1885 -0.1585
 1289ERGO    R117252   5.257   4.876   7.706 -0.0070 -0.0665 -0.0407
 1289ERGO    R217253   5.429   4.777   7.900 -0.0221  0.1234  0.0567
 1289ERGO    R317254   5.238   4.869   8.070 -0.0777  0.1855 -0.0346
 1289ERGO    R417255   5.378   4.661   8.221 -0.0719  0.2622  0.1014
 1289ERGO    R517256   5.164   4.674   8.187 -0.0770  0.2191  0.0402
 1289ERGO    C117257   5.170   4.680   8.568 -0.1530  0.4013  0.0418
 1289ERGO    C217258   5.207   4.749   8.851 -0.0898  0.0111 -0.0370
 1290ERGO   ROH17259  10.383  12.414   6.053 -0.1506 -0.1489 -0.0648
 1290ERGO    R117260  10.515  12.318   6.284  0.0232  0.0283 -0.0890
 1290ERGO    R217261  10.667  12.482   6.447 -0.1080  0.2199 -0.1563
 1290ERGO    R317262  10.504  12.385   6.642  0.0537  0.0663 -0.0952
 1290ERGO    R417263  10.687  12.566   6.782 -0.0452  0.2167 -0.1591
 1290ERGO    R517264  10.647  12.357   6.831  0.1552  0.1784 -0.1544
 1290ERGO    C117265  10.546  12.523   7.160  0.1432  0.0706 -0.1032
 1290ERGO    C217266  10.285  12.499   7.469 -0.2907 -0.3901 -0.1489
 1291ERGO   ROH17267   7.257   6.204   6.401  0.0330 -0.0670 -0.1199
 1291ERGO    R117268   7.266   6.072   6.651 -0.0261  0.0300 -0.0659
 1291ERGO    R217269   7.501   6.036   6.793 -0.0569  0.0768  0.0007
 1291ERGO    R317270   7.361   6.158   6.992 -0.0974  0.1605 -0.0786
 1291ERGO    R417271   7.593   6.041   7.126 -0.1926  0.1094  0.0384
 1291ERGO    R517272   7.385   6.011   7.180 -0.2233  0.1894 -0.0409
 1291ERGO    C117273   7.516   6.158   7.506 -0.3096  0.2070 -0.0142
 1291ERGO    C217274   7.612   6.422   7.832 -0.2349  0.6054 -0.1647
 1292ERGO   ROH17275  13.987   6.858   9.814 -0.1880 -0.0227 -0.0761
 1292ERGO    R117276  13.847   6.938   9.582 -0.2600 -0.2263 -0.1045
 1292ERGO    R217277  13.951   7.121   9.401 -0.5218 -0.0071 -0.0355
 1292ERGO    R317278  13.901   6.922   9.222 -0.1166 -0.0672 -0.0917
 1292ERGO    R417279  13.938   7.162   9.058 -0.4422  0.0271 -0.0353
 1292ERGO    R517280  13.768   7.027   9.053 -0.2206 -0.2586 -0.1318
 1292ERGO    C117281  13.884   7.000   8.691 -0.0155 -0.0094 -0.0879
 1292ERGO    C217282  13.803   7.001   8.386 -0.1046 -0.0219  0.0273
 1293ERGO   ROH17283  17.391   1.608   5.852  0.0348 -0.1259  0.1816
 1293ERGO    R117284  17.338   1.643   6.128 -0.1745  0.0093  0.1259
 1293ERGO    R217285  17.527   1.741   6.305 -0.1857 -0.2547  0.2817
 1293ERGO    R317286  17.332   1.921   6.363  0.0371  0.0681  0.0663
 1293ERGO    R417287  17.502   1.917   6.601 -0.2270 -0.2369  0.2683
 1293ERGO    R517288  17.286   1.887   6.595 -0.2838  0.1178  0.0191
 1293ERGO    C117289  17.303   2.188   6.828 -0.0419  0.0766  0.0582
 1293ERGO    C217290  17.416   2.608   6.859  0.4754  0.1942 -0.0814
 1294ERGO   ROH17291  16.850   8.917   6.242 -0.0212 -0.1029  0.0613
 1294ERGO    R117292  16.721   9.041   6.461 -0.0998 -0.0195 -0.0316
 1294ERGO    R217293  16.489   8.942   6.573 -0.0616 -0.0560  0.0112
 1294ERGO    R317294  16.634   8.951   6.803 -0.0878  0.1641  0.0214
 1294ERGO    R417295  16.363   8.879   6.889  0.0345 -0.3967 -0.0143
 1294ERGO    R517296  16.484   9.044   6.964 -0.2891 -0.1732  0.0403
 1294ERGO    C117297  16.426   8.851   7.288  0.0657 -0.3886 -0.0196
 1294ERGO    C217298  16.609   8.586   7.570 -0.1516  0.1970  0.3857
 1295ERGO   ROH17299  15.230  13.248  10.128  0.1333 -0.0811 -0.0842
 1295ERGO    R117300  15.052  13.367   9.943  0.0515 -0.0511  0.0119
 1295ERGO    R217301  15.120  13.591   9.795 -0.0015 -0.0436 -0.0068
 1295ERGO    R317302  15.049  13.433   9.585 -0.1176 -0.0246  0.0185
 1295ERGO    R417303  15.070  13.702   9.471 -0.2125 -0.0157  0.0344
 1295ERGO    R517304  14.899  13.568   9.457 -0.2079 -0.0266  0.1250
 1295ERGO    C117305  14.974  13.618   9.086 -0.4444  0.0183  0.0821
 1295ERGO    C217306  15.118  13.574   8.698 -0.0012 -0.2007 -0.3923
 1296ERGO   ROH17307   6.311   5.917   6.454  0.0936 -0.1212  0.0751
 1296ERGO    R117308   6.260   5.829   6.718 -0.0389 -0.0596  0.0693
 1296ERGO    R217309   6.445   5.685   6.865 -0.1223 -0.0332  0.1858
 1296ERGO    R317310   6.407   5.883   7.047 -0.1988  0.0023  0.1341
 1296ERGO    R417311   6.498   5.654   7.205  0.0804  0.1153  0.1710
 1296ERGO    R517312   6.317   5.771   7.239 -0.0116 -0.0194  0.2197
 1296ERGO    C117313   6.492   5.822   7.574  0.1267  0.2352  0.1139
 1296ERGO    C217314   6.431   5.714   8.002  0.0927 -0.2970 -0.2497
 1297ERGO   ROH17315  17.248   3.882   7.094 -0.1356 -0.1020 -0.0102
 1297ERGO    R117316  17.369   3.904   7.349 -0.1721 -0.1801  0.0141
 1297ERGO    R217317  17.636   3.847   7.393 -0.1206  0.0342 -0.0134
 1297ERGO    R317318  17.639   4.098   7.499 -0.3597 -0.0388  0.1750
 1297ERGO    R417319  17.856   3.955   7.636  0.0560  0.1726 -0.2306
 1297ERGO    R517320  17.691   4.063   7.731  0.0110 -0.1485  0.0827
 1297ERGO    C117321  17.987   4.253   7.878 -0.0658  0.1846 -0.1800
 1297ERGO    C217322  18.165   4.386   8.172 -0.2878 -0.0355  0.1822
 1298ERGO   ROH17323  16.827   4.864   9.872 -0.0960  0.0749  0.0650
 1298ERGO    R117324  16.901   4.959   9.616  0.0085  0.0100  0.0715
 1298ERGO    R217325  17.002   4.794   9.419 -0.1303 -0.0793  0.0771
 1298ERGO    R317326  16.800   4.900   9.272 -0.0230  0.1085  0.0635
 1298ERGO    R417327  17.028   4.895   9.089 -0.0223 -0.1301  0.0692
 1298ERGO    R517328  16.905   5.068   9.137  0.1455 -0.0042  0.0523
 1298ERGO    C117329  16.854   5.054   8.760  0.1416  0.0168  0.0518
 1298ERGO    C217330  16.979   5.215   8.358 -0.3020 -0.3689 -0.2427
 1299ERGO   ROH17331   0.205  10.869   6.389 -0.1117  0.1249 -0.1275
 1299ERGO    R117332  -0.006  10.919   6.570  0.0015  0.0634  0.0237
 1299ERGO    R217333  -0.226  10.752   6.593 -0.0635  0.1436 -0.0158
 1299ERGO    R317334  -0.156  10.750   6.856  0.0673 -0.1208 -0.0495
 1299ERGO    R417335  -0.437  10.668   6.853 -0.0283  0.1923  0.0289
 1299ERGO    R517336  -0.350  10.830   6.970  0.2105  0.0155  0.1045
 1299ERGO    C117337  -0.495  10.617   7.251  0.1147 -0.0276  0.0233
 1299ERGO    C217338  -0.745  10.544   7.390  0.1075  0.0596 -0.1446
 1300ERGO   ROH17339   0.562  11.715   6.289  0.0652 -0.1628 -0.0687
 1300ERGO    R117340   0.530  11.814   6.552  0.0421 -0.2209 -0.0492
 1300ERGO    R217341   0.562  11.656   6.776  0.1708 -0.2353 -0.0770
 1300ERGO    R317342   0.738  11.850   6.849  0.0637 -0.1380 -0.0738
 1300ERGO    R417343   0.710  11.682   7.087  0.0280 -0.0619 -0.0217
 1300ERGO    R517344   0.683  11.898   7.077 -0.0536 -0.0749 -0.1137
 1300ERGO    C117345   0.962  11.879   7.336 -0.1559  0.1302  0.0135
 1300ERGO    C217346   1.211  11.756   7.598 -0.1363 -0.0168  0.4968
 1301ERGO   ROH17347   0.400   1.433   5.994  0.1530  0.0075 -0.0684
 1301ERGO    R117348   0.457   1.268   6.217 -0.0388  0.0335  0.0031
 1301ERGO    R217349   0.673   1.313   6.384  0.0660 -0.1915 -0.0634
 1301ERGO    R317350   0.483   1.310   6.577  0.0945  0.1829 -0.0236
 1301ERGO    R417351   0.735   1.343   6.722  0.1665 -0.1052 -0.0893
 1301ERGO    R517352   0.584   1.191   6.759 -0.0466  0.1307  0.0184
 1301ERGO    C117353   0.593   1.358   7.101  0.2518  0.2965 -0.0669
 1301ERGO    C217354   0.590   1.666   7.354  0.3282 -0.3265  0.1254
 1302ERGO   ROH17355  16.616  10.024   6.575 -0.0584 -0.2118 -0.2629
 1302ERGO    R117356  16.444  10.044   6.799  0.0073 -0.1138 -0.2193
 1302ERGO    R217357  16.280  10.263   6.841  0.1683  0.0063 -0.1564
 1302ERGO    R317358  16.086  10.073   6.855  0.0393  0.1354 -0.1396
 1302ERGO    R417359  15.963  10.312   6.970  0.3282  0.1078  0.2095
 1302ERGO    R517360  15.975  10.116   7.062  0.2784  0.0165  0.0104
 1302ERGO    C117361  15.597  10.163   7.058  0.3002  0.2881  0.4382
 1302ERGO    C217362  15.359  10.372   7.194  0.1275 -0.2018 -0.1609
 1303ERGO   ROH17363  15.356   2.568   5.662 -0.2403 -0.1052 -0.0465
 1303ERGO    R117364  15.437   2.657   5.919 -0.0256 -0.1861 -0.0844
 1303ERGO    R217365  15.266   2.790   6.091  0.2321  0.1246 -0.0608
 1303ERGO    R317366  15.339   2.592   6.263 -0.0382  0.0343 -0.0452
 1303ERGO    R417367  15.286   2.824   6.434  0.3107  0.1359 -0.0662
 1303ERGO    R517368  15.468   2.704   6.431  0.1407 -0.1307 -0.0686
 1303ERGO    C117369  15.366   2.659   6.796  0.1026  0.0577 -0.0546
 1303ERGO    C217370  15.448   2.582   7.160 -0.0494  0.0798  0.0413
 1304ERGO   ROH17371  10.650  13.641   6.279 -0.1008 -0.1072  0.0070
 1304ERGO    R117372  10.708  13.714   6.546  0.0419  0.0083 -0.0545
 1304ERGO    R217373  10.514  13.724   6.744  0.1111  0.2787  0.0031
 1304ERGO    R317374  10.685  13.558   6.874  0.0223  0.2216  0.0482
 1304ERGO    R417375  10.518  13.672   7.085  0.0192  0.2985  0.0073
 1304ERGO    R517376  10.735  13.672   7.078  0.0223  0.2164  0.0522
 1304ERGO    C117377  10.680  13.486   7.407 -0.1176  0.2564  0.0521
 1304ERGO    C217378  10.812  13.389   7.690  0.0158  0.2997  0.0269
 1305W        W17379  10.066  12.992   1.136  0.2553 -0.2476  0.0837
 1306W        W17380   4.620  10.428  13.514  0.0729  0.1825  0.0399
 1307W        W17381  11.242   9.936   0.594  0.3628  0.1376  0.1577
 1308W        W17382  16.653   9.176   2.272 -0.0812 -0.2987 -0.0450
 1309W        W17383   5.280  10.862  11.351  0.1704  0.0568  0.1588
 1310W        W17384  17.040  15.787   2.846 -0.0796 -0.0317 -0.1232
 1311W        W17385   3.693   4.283  11.191 -0.2065  0.1369 -0.2975
 1312W        W17386  14.945   7.506  11.509 -0.1588  0.4125 -0.5948
 1313W        W17387   5.571  12.924  12.197 -0.1568 -0.1445  0.2634
 1314W        W17388   3.603  12.325   1.550  0.0541 -0.0384  0.0086
 1315W        W17389  16.040   8.451   4.249  0.0173  0.2845  0.0301
 1316W        W17390   1.202  17.119   3.292 -0.0574 -0.0613 -0.0206
 1317W        W17391   9.086   5.955   2.105 -0.4405 -0.2764 -0.0334
 1318W        W17392  12.987   3.608   2.786  0.3056 -0.1131 -0.3477
 1319W        W17393   5.512   6.125   5.220  0.0425  0.0545 -0.0410
 1320W        W17394   3.712  10.056  12.347  0.1283  0.0909  0.0736
 1321W        W17395  13.799  14.847   5.776 -0.2376 -0.3351 -0.1352
 1322W        W17396   4.430   3.716  13.982  0.1021  0.0386 -0.0691
 1323W        W17397  17.718   5.076   6.104 -0.0276  0.0525 -0.1439
 1324W        W17398   7.780  10.742   0.013  0.0715  0.2478  0.0131
 1325W        W17399  17.546  14.532  16.027 -0.3133  0.2047  0.3824
 1326W        W17400   0.707  16.173   5.204  0.3748 -0.1570 -0.0722
 1327W        W17401  14.959  15.727   2.665  0.4886 -0.3362  0.3719
 1328W        W17402   0.791  12.728   4.704 -0.1763  0.1534 -0.2439
 1329W        W17403  15.338  13.010  11.969 -0.0774 -0.2196  0.0122
 1330W        W17404  15.514  17.256   0.769 -0.2748 -0.2933  0.3611
 1331W        W17405   8.380   3.216  12.944  0.1108  0.1001  0.0384
 1332W        W17406  13.206  14.984  12.451  0.0632 -0.1773 -0.2629
 1333W        W17407  18.162  13.839   3.953 -0.1200 -0.2416  0.1496
 1334W        W17408  16.968   9.068   4.796  0.0921  0.1190  0.1010
 1335W        W17409  18.370   4.332   3.614 -0.0697  0.0418 -0.0489
 1336W        W17410  13.479   9.068   4.867 -0.1692 -0.0046 -0.0019
 1337W        W17411  11.893   4.219   3.494  0.2002 -0.2236 -0.0398
 1338W        W17412   2.728  18.014  11.595  0.4667  0.1067 -0.1176
 1339W        W17413  11.649   6.947  13.545  0.1567  0.1301  0.3358
 1340W        W17414   0.740   2.715   2.107  0.1455  0.1586  0.3539
 1341W        W17415   6.014  16.219  11.062 -0.0205 -0.1704 -0.2417
 1342W        W17416   4.356  16.369   5.507  0.1727  0.1538  0.2779
 1343W        W17417   5.194   5.216  12.978 -0.0895  0.2010 -0.2920
 1344W        W17418   0.217  12.288   0.140  0.1213 -0.0408  0.0119
 1345W        W17419   4.567  15.304  14.959 -0.4445  0.0857 -0.0842
 1346W        W17420  17.397   5.576   4.106  0.0221  0.1264  0.1737
 1347W        W17421   0.127   4.109  11.260 -0.2217  0.1693 -0.1384
 1348W        W17422  17.896   7.537   0.756 -0.2031  0.3033  0.1599
 1349W        W17423  16.643  10.859  15.575 -0.3906 -0.2230  0.0702
 1350W        W17424  10.969  16.914   4.716 -0.0406 -0.0347 -0.0682
 1351W        W17425  16.397  14.057  13.532 -0.0844  0.0247  0.0003
 1352W        W17426   6.018  11.345   1.454  0.2212  0.3059  0.1218
 1353W        W17427  18.102   7.707   3.460  0.0692  0.0343 -0.1055
 1354W        W17428   8.719   4.335   4.664  0.3657  0.1065 -0.2271
 1355W        W17429  17.090   7.211  14.614  0.2729 -0.3033  0.1704
 1356W        W17430  16.140   6.248   3.951  0.1585  0.4024 -0.3787
 1357W        W17431  15.240   7.351  11.951 -0.0978  0.2910 -0.1778
 1358W        W17432  13.624  16.894  13.874  0.1218  0.3657  0.0676
 1359W        W17433  18.098  15.147   1.331  0.0950 -0.3363  0.0007
 1360W        W17434   3.089   3.813  15.557  0.0125 -0.1047 -0.3514
 1361W        W17435   1.030   9.316   4.588  0.2849  0.0838  0.1599
 1362W        W17436  12.155   7.170   0.424  0.2693 -0.1152 -0.0850
 1363W        W17437  11.615  16.092  15.284 -0.1562  0.1356  0.0001
 1364W        W17438   7.004  16.287  10.965 -0.2233 -0.0171  0.0019
 1365W        W17439   6.599   8.179   1.641  0.2266 -0.0892  0.1118
 1366W        W17440  14.598  14.552  12.463 -0.2010  0.0296 -0.0741
 1367W        W17441  10.668  18.198  13.223 -0.0161  0.1324  0.1500
 1368W        W17442  17.134   4.364   4.943 -0.0227 -0.3830 -0.2297
 1369W        W17443   3.896   5.635   0.352 -0.3406 -0.3815  0.1347
 1370W        W17444   4.960   7.211   1.673  0.2459  0.0913 -0.3802
 1371W        W17445  13.123  16.974  11.582  0.0738 -0.1778 -0.0137
 1372W        W17446  14.478  10.931   1.924  0.0886  0.1782  0.0002
 1373W        W17447   0.928   6.969   3.488  0.0379 -0.0761 -0.0709
 1374W        W17448  10.573  14.104   1.646 -0.0128  0.0741  0.4513
 1375W        W17449  18.298   0.676   4.922  0.4124  0.1518 -0.0218
 1376W        W17450   8.071   3.252   1.829  0.1878 -0.0541 -0.1257
 1377W        W17451   7.515   9.114   3.919  0.3740  0.1511 -0.2900
 1378W        W17452   5.220  12.190  11.901  0.0268 -0.1398  0.0602
 1379W        W17453   6.951  16.990  13.261 -0.0519  0.0786  0.1981
 1380W        W17454   6.604   7.169   3.285  0.2921 -0.1907 -0.0775
 1381W        W17455   7.756  10.645  15.490  0.1261 -0.0286 -0.1055
 1382W        W17456   8.333  16.617   1.642 -0.2905  0.1127 -0.0084
 1383W        W17457  12.142  16.306   2.179  0.3441  0.0915  0.1450
 1384W        W17458   8.612   0.685   1.740  0.1549  0.7733 -0.1193
 1385W        W17459   6.868   6.147   5.669 -0.0688  0.3902 -0.0026
 1386W        W17460  14.191   2.509  12.786  0.0417  0.0693  0.3506
 1387W        W17461   3.562   6.736   1.419 -0.0214 -0.4207  0.0727
 1388W        W17462  14.808   3.889   3.249  0.0161 -0.1876  0.2108
 1389W        W17463  18.284   5.661   2.243 -0.1582  0.0468  0.0682
 1390W        W17464   9.951   7.360  13.194 -0.3628 -0.3145  0.1823
 1391W        W17465  12.895   5.529   4.396  0.0439 -0.0551  0.0978
 1392W        W17466  16.858  13.610  15.351  0.2640 -0.1508  0.0751
 1393W        W17467  10.873  17.083  12.465  0.0163  0.2150 -0.3030
 1394W        W17468   4.347  14.558   0.600  0.1649  0.0645  0.1518
 1395W        W17469  13.415  10.049   2.928  0.2855 -0.1690 -0.2888
 1396W        W17470   4.881  18.360  15.292  0.3461 -0.0235 -0.3899
 1397W        W17471   8.090  11.490   4.690  0.1520 -0.0767  0.2374
 1398W        W17472  16.842   9.195  12.562 -0.1381 -0.0499 -0.1592
 1399W        W17473   3.318   5.240   2.063 -0.1425 -0.2710  0.0910
 1400W        W17474   6.529  16.641  15.228 -0.4991  0.3410  0.0574
 1401W        W17475   8.780  13.171  13.408  0.0035  0.1836 -0.2397
 1402W        W17476  14.698  16.388   1.411 -0.3034  0.1505  0.0464
 1403W        W17477  17.623  17.369   0.183 -0.0883  0.1888 -0.2937
 1404W        W17478   5.028   2.766  13.764 -0.2632  0.1515  0.1822
 1405W        W17479  10.393   0.947   4.020 -0.0032  0.0752 -0.1598
 1406W        W17480   6.308  15.956  14.590  0.3275 -0.0756  0.1762
 1407W        W17481   5.857  15.635  11.908  0.0659 -0.2647 -0.2061
 1408W        W17482  18.201  13.547  15.806  0.1425 -0.2410 -0.2632
 1409W        W17483  15.945  15.992   1.289 -0.0584  0.1639 -0.0614
 1410W        W17484  11.837   6.574  14.357  0.2741  0.0973 -0.1502
 1411W        W17485  18.292   6.165   2.396  0.1337  0.2501  0.2087
 1412W        W17486  12.364  16.448  12.580 -0.3358  0.1676  0.2701
 1413W        W17487  10.553   1.280  13.223 -0.0645 -0.2372  0.0140
 1414W        W17488   9.947   3.175   4.929 -0.3438 -0.3317 -0.1492
 1415W        W17489   7.679  11.774   4.626  0.0030 -0.1508 -0.0035
 1416W        W17490  10.482  15.850  13.599 -0.0887 -0.0515  0.3241
 1417W        W17491   2.740   1.336  14.497  0.1900 -0.0742  0.2789
 1418W        W17492  10.506   9.445  11.140 -0.0152  0.0186 -0.0281
 1419W        W17493  15.878  11.127  15.900  0.0695 -0.0695 -0.1294
 1420W        W17494  18.313   3.949  13.254 -0.0774 -0.2400  0.3711
 1421W        W17495  14.746   3.082  15.768 -0.3395  0.1347 -0.1006
 1422W        W17496   6.063  10.378   0.548 -0.0635  0.1051  0.1494
 1423W        W17497   3.935   6.530  15.987  0.2634  0.0401  0.0475
 1424W        W17498   0.618   8.357   3.295  0.1608  0.1147  0.0563
 1425W        W17499  11.935  10.072  11.645 -0.2246 -0.1457  0.3358
 1426W        W17500  17.522   2.197   2.447  0.1034 -0.1800 -0.1380
 1427W        W17501   8.388  18.500  11.518 -0.0356  0.1044  0.3576
 1428W        W17502   8.300   3.698  12.545 -0.1464  0.1329 -0.1819
 1429W        W17503  11.602   1.171  12.410  0.0442  0.3405 -0.1137
 1430W        W17504   9.511   6.357   4.194 -0.0217 -0.5076 -0.1802
 1431W        W17505  10.784   5.099   4.707  0.1031  0.0829 -0.0646
 1432W        W17506   4.009  15.882  11.287  0.2399 -0.2267  0.0115
 1433W        W17507   8.759  16.837  14.689 -0.1396  0.0747 -0.2255
 1434W        W17508  13.668  12.258  12.031 -0.1040 -0.1435  0.0043
 1435W        W17509  14.960  14.391  13.261 -0.2634  0.0859  0.1114
 1436W        W17510   2.746   8.192  12.524  0.0821 -0.0741  0.0123
 1437W        W17511  16.031   3.971  15.904 -0.2083  0.0085  0.0361
 1438W        W17512   0.642  11.207   2.321 -0.0760  0.0199 -0.2595
 1439W        W17513  14.835   8.204  12.484  0.1386 -0.1527 -0.0146
 1440W        W17514  12.683  10.495  13.355  0.0932  0.0007  0.3689
 1441W        W17515  18.159  11.899   4.877  0.1914 -0.0915  0.0066
 1442W        W17516  17.380  15.142   4.124 -0.2015  0.0535 -0.1470
 1443W        W17517   8.642  14.686  15.010 -0.0736 -0.0880  0.2573
 1444W        W17518  14.312  13.103  14.609 -0.1782 -0.0750  0.1618
 1445W        W17519   4.076   8.460   3.397  0.1491 -0.0086  0.0327
 1446W        W17520  12.375   8.101   3.089 -0.1522  0.3273 -0.0305
 1447W        W17521  14.895  13.637   2.219  0.1175 -0.0758  0.1765
 1448W        W17522   3.668   9.233  12.817 -0.0335  0.2033 -0.2133
 1449W        W17523  13.614  12.785  14.243 -0.3205  0.0051  0.0840
 1450W        W17524  14.321   8.890   1.468  0.1372 -0.2003  0.2123
 1451W        W17525   8.953  18.159  15.177  0.1530 -0.1162 -0.0679
 1452W        W17526   6.017   1.984   3.004 -0.0285 -0.0499 -0.2925
 1453W        W17527  10.853  16.582  15.473  0.2030  0.0774  0.3215
 1454W        W17528  14.734   3.791   2.785 -0.5143  0.0037  0.2343
 1455W        W17529  17.170   8.797  11.469  0.0779  0.1061 -0.2298
 1456W        W17530  16.529   9.669  10.535 -0.0150 -0.0128  0.3511
 1457W        W17531  15.485  15.596   2.520  0.4259 -0.2027 -0.0385
 1458W        W17532   5.753   1.146  10.875  0.0642 -0.2002  0.1321
 1459W        W17533   5.290   3.566   0.199  0.5364  0.1162 -0.2541
 1460W        W17534   2.390  10.572  11.574  0.1221  0.1201 -0.0819
 1461W        W17535  17.422  12.295   0.798 -0.0895 -0.0926 -0.0686
 1462W        W17536  12.355  14.884   1.917  0.1660 -0.3915  0.1273
 1463W        W17537   5.307   8.550  14.698 -0.0461  0.0652 -0.0084
 1464W        W17538   1.914  13.487  15.694 -0.4805  0.4253  0.1344
 1465W        W17539   5.659   5.107  14.362  0.1495 -0.0123 -0.1397
 1466W        W17540  12.190   7.370  11.203  0.1248  0.0487  0.0423
 1467W        W17541   9.601   3.527   0.201  0.0212  0.2838 -0.1727
 1468W        W17542   8.907   4.566   1.521  0.1455  0.0254  0.3025
 1469W        W17543  13.485   3.061  12.523 -0.1689 -0.0145 -0.4135
 1470W        W17544   6.132   0.400  12.453  0.0540  0.2712 -0.1181
 1471W        W17545  16.860  16.554   1.492 -0.0654 -0.0617  0.3061
 1472W        W17546   3.708  15.502  15.956 -0.4533  0.0344 -0.1520
 1473W        W17547  14.726   6.436   0.569 -0.4155 -0.1508 -0.2293
 1474W        W17548  17.092  13.846   2.167 -0.0236 -0.1774  0.0034
 1475W        W17549  16.995   1.025   5.203  0.0023 -0.1041 -0.0552
 1476W        W17550   9.947   6.411   4.400  0.0675 -0.0440  0.0198
 1477W        W17551   9.768   8.183   4.494 -0.0307  0.0147  0.1668
 1478W        W17552  12.055   5.292   2.182  0.0877 -0.0041 -0.1713
 1479W        W17553   1.932  14.800   1.879 -0.3348  0.0672 -0.1963
 1480W        W17554  10.490   9.228   1.483 -0.3495 -0.2102  0.1306
 1481W        W17555   8.324   2.893  15.965 -0.4633  0.1211 -0.0485
 1482W        W17556  16.506   7.810  11.030  0.1838  0.1843 -0.0329
 1483W        W17557   1.205   3.722   0.192 -0.2031  0.0394  0.1043
 1484W        W17558  10.155  12.850   4.284  0.0405 -0.1588 -0.2241
 1485W        W17559  13.467   9.791   5.929  0.1378  0.1960  0.0349
 1486W        W17560   5.533  17.794  13.196  0.2018 -0.4667 -0.0053
 1487W        W17561   8.467   0.255  11.163 -0.1341 -0.3989  0.2274
 1488W        W17562  17.014   0.287  12.696  0.1355  0.0811 -0.0644
 1489W        W17563   7.627   7.288   5.651  0.0955 -0.0154 -0.0279
 1490W        W17564  10.109  15.714  14.080  0.0925  0.3916  0.0368
 1491W        W17565  12.136  13.593  12.105  0.0417  0.0216 -0.1713
 1492W        W17566   0.434   1.922  12.356  0.1379 -0.2099  0.3571
 1493W        W17567   8.389  11.169   4.988  0.1099 -0.1828  0.1444
 1494W        W17568  15.664  15.893   2.201  0.0763  0.1041  0.1445
 1495W        W17569  14.946   5.723   1.576 -0.0050  0.0823  0.0043
 1496W        W17570   8.338   2.693   5.415 -0.2369  0.1666 -0.0030
 1497W        W17571  18.289   8.865  12.894 -0.1417 -0.0580 -0.3646
 1498W        W17572   9.281   9.264   1.931 -0.1215 -0.0286 -0.2041
 1499W        W17573   2.012   0.011  16.004 -0.1949  0.0432  0.0489
 1500W        W17574  10.322  17.122   3.004 -0.0069 -0.2262  0.0287
 1501W        W17575  16.434  13.530   2.834  0.2830 -0.0066  0.1924
 1502W        W17576   0.179   9.213   4.039 -0.3533 -0.2421 -0.0587
 1503W        W17577  10.565   9.511  14.095  0.2695 -0.0564  0.1760
 1504W        W17578  14.554   9.687   0.327  0.2289  0.0560  0.1558
 1505W        W17579  11.043   7.529   0.240  0.1231  0.4226  0.2204
 1506W        W17580   3.796  11.863  15.129 -0.2721 -0.0137 -0.1417
 1507W        W17581   4.369   6.791   5.363 -0.0100  0.3091  0.0545
 1508W        W17582  11.784  17.320   1.905  0.2155 -0.0950  0.1051
 1509W        W17583  18.332   4.595  15.409  0.1461 -0.2610 -0.0229
 1510W        W17584  13.664   6.289   1.627 -0.2027  0.0692  0.0244
 1511W        W17585  13.604  10.202   1.115  0.1127 -0.1707 -0.3276
 1512W        W17586  14.935   1.699  13.011 -0.2575 -0.0638  0.0553
 1513W        W17587  17.411  16.818   0.596 -0.0133 -0.1786 -0.1197
 1514W        W17588  12.210  14.598  15.827 -0.1688  0.2291 -0.0417
 1515W        W17589  13.232  15.979  13.077  0.0915  0.0390 -0.2526
 1516W        W17590   5.538   1.837   4.819  0.2395 -0.2538 -0.0766
 1517W        W17591   8.429   8.405  13.854 -0.1020 -0.1815  0.2460
 1518W        W17592  12.421  16.140  14.654 -0.0443 -0.1129  0.3025
 1519W        W17593   8.486   7.410   1.494  0.0483  0.0841 -0.0964
 1520W        W17594  13.358   2.725   2.992 -0.2177  0.0210 -0.0173
 1521W        W17595   3.674  16.243  12.535 -0.1098 -0.2516  0.0750
 1522W        W17596   4.704   0.035   2.300  0.2878  0.1483  0.0225
 1523W        W17597  12.568  17.578  12.842 -0.1588  0.0841 -0.1706
 1524W        W17598  15.874  15.349   3.328 -0.0961  0.1493 -0.2763
 1525W        W17599   6.854  14.862   1.028 -0.2865  0.0796 -0.0971
 1526W        W17600  11.838   8.217  11.010  0.0481  0.0038  0.1505
 1527W        W17601   6.995  13.929   1.245 -0.2217  0.2692 -0.0252
 1528W        W17602   5.502   8.963  11.412  0.0550 -0.3003  0.0590
 1529W        W17603   8.183   4.210   3.745 -0.2177 -0.1381  0.0618
 1530W        W17604   9.813   1.941  11.780 -0.0897  0.1670 -0.0135
 1531W        W17605   7.858  17.349   1.353 -0.1233 -0.3630 -0.0205
 1532W        W17606   6.522  18.223  13.366  0.1086  0.3268  0.0773
 1533W        W17607  17.807   3.180  11.681 -0.3034  0.0427  0.4523
 1534W        W17608   7.587  18.008  12.585 -0.0643 -0.0213  0.2690
 1535W        W17609   7.504  12.057   0.395  0.2135 -0.1095  0.1651
 1536W        W17610   4.911   2.396   5.257 -0.2167 -0.1446 -0.3772
 1537W        W17611  13.609  17.738  15.569  0.0507 -0.0575  0.0974
 1538W        W17612   4.470   7.611   4.741 -0.0605 -0.0457  0.2680
 1539W        W17613   4.435   5.907  14.722  0.1342 -0.1575  0.3505
 1540W        W17614  13.769   5.585   0.963  0.0185 -0.0298  0.4688
 1541W        W17615   5.898  10.632  12.629 -0.0015  0.1829 -0.1702
 1542W        W17616   6.072   8.153   4.738 -0.0595  0.1952  0.2585
 1543W        W17617   6.195  17.269   4.755  0.0078 -0.0225  0.1671
 1544W        W17618   7.943  18.351  14.084  0.1713  0.0193 -0.0490
 1545W        W17619  17.830  14.227   4.997  0.3587 -0.1955 -0.0973
 1546W        W17620   6.626   5.689  15.030  0.0680 -0.1882  0.3485
 1547W        W17621  15.904   9.323  15.617  0.0969  0.5457 -0.4546
 1548W        W17622  18.330   9.134   0.934  0.2828  0.2243  0.2167
 1549W        W17623   4.287   9.801   0.630  0.0222  0.1966 -0.3193
 1550W        W17624  17.585   4.676   5.238 -0.1367 -0.2099 -0.1196
 1551W        W17625  15.922   3.455  13.509 -0.1144 -0.4412 -0.0747
 1552W        W17626   6.403   4.829   4.922  0.0202  0.0297  0.0019
 1553W        W17627  16.970  14.138  15.381  0.0512 -0.1073  0.1341
 1554W        W17628  10.719   5.148  14.151  0.1374 -0.1972 -0.1517
 1555W        W17629   0.564   9.677   2.684  0.3818 -0.0388 -0.2309
 1556W        W17630  18.105  11.735   0.516  0.0422 -0.2531 -0.1531
 1557W        W17631  14.409  15.427   4.481  0.2359 -0.0694 -0.0004
 1558W        W17632   4.698   9.193  14.556 -0.0477 -0.0605 -0.1159
 1559W        W17633  13.307  11.112   4.526  0.0727 -0.1221 -0.0350
 1560W        W17634  15.238   4.351   0.258 -0.1831 -0.1673  0.3139
 1561W        W17635  17.567   5.991  11.405 -0.1624 -0.3303 -0.0715
 1562W        W17636   9.866   3.011   1.326  0.1448 -0.2402 -0.1721
 1563W        W17637  11.129   0.227  11.807 -0.0119 -0.0300  0.1671
 1564W        W17638  12.456  12.032   4.358  0.1047  0.3021 -0.1408
 1565W        W17639   2.443  15.825   1.122  0.2477  0.1055 -0.1744
 1566W        W17640   9.749  16.206   4.750  0.1460  0.1937 -0.0157
 1567W        W17641  16.084  16.608   1.254  0.4061 -0.1736 -0.0716
 1568W        W17642  15.905  12.629   3.502 -0.0390 -0.2716  0.1485
 1569W        W17643  18.164  10.247   3.910 -0.1168  0.3328 -0.2775
 1570W        W17644   8.396   8.432   0.087 -0.0391 -0.1502 -0.1368
 1571W        W17645   8.121  16.003   5.804  0.5229  0.2376 -0.1695
 1572W        W17646   9.533  15.589   1.211  0.1914 -0.4220 -0.0099
 1573W        W17647   0.582   9.544   3.202  0.2861  0.1815 -0.0114
 1574W        W17648   1.933   3.066   0.048 -0.3068 -0.2778  0.0284
 1575W        W17649  10.808   6.615   6.028  0.1353  0.1375 -0.0157
 1576W        W17650  12.839  10.205   0.618 -0.0517 -0.2157  0.0916
 1577W        W17651  13.106   6.462   0.072  0.0551 -0.1554  0.0945
 1578W        W17652   5.001  15.041   0.085 -0.0150 -0.0648 -0.1441
 1579W        W17653  11.345   3.656  15.842 -0.0757  0.3359 -0.3144
 1580W        W17654   0.869   9.283   0.736  0.0232  0.5735 -0.3397
 1581W        W17655   0.067  13.461   4.500  0.1504  0.0307  0.0927
 1582W        W17656   7.859   0.861   4.516  0.0630 -0.0399 -0.0042
 1583W        W17657   9.517   3.620   0.647  0.3413  0.0570  0.0110
 1584W        W17658  14.284  16.477   1.025  0.1625 -0.2552  0.0684
 1585W        W17659  11.472  13.843   0.831 -0.1578  0.3027  0.0094
 1586W        W17660  15.707  11.032   4.783  0.0888 -0.0369 -0.1011
 1587W        W17661   1.837   5.872   2.282  0.3361 -0.1303 -0.1488
 1588W        W17662   7.353   0.253   4.121 -0.1987  0.1317 -0.1196
 1589W        W17663   6.076  10.493  12.186 -0.3647 -0.2688  0.2945
 1590W        W17664   8.250   9.751   2.439  0.0620  0.0212  0.0163
 1591W        W17665   6.579  17.049  12.035 -0.1187 -0.3562  0.2289
 1592W        W17666   3.253   9.726  14.500 -0.1824 -0.0271  0.1332
 1593W        W17667   7.974  13.195   4.633  0.3188  0.0424 -0.1909
 1594W        W17668  10.228   5.576  11.283  0.1383  0.0969  0.3879
 1595W        W17669  12.686   0.298  13.339  0.1020 -0.0410 -0.3564
 1596W        W17670  15.442  16.228   3.176 -0.0015  0.2279 -0.0457
 1597W        W17671  10.971   0.251   2.810  0.0796 -0.2159  0.2718
 1598W        W17672   7.845   5.020  13.122  0.2548  0.1141 -0.0509
 1599W        W17673   5.079   5.697   1.643  0.3015  0.2553 -0.1251
 1600W        W17674  12.976   0.788   0.094  0.0988  0.2119 -0.2542
 1601W        W17675   1.620  14.279   3.281 -0.1378  0.0254 -0.1851
 1602W        W17676   8.332  15.837   4.992 -0.0564 -0.0299 -0.3014
 1603W        W17677  18.233   3.371  12.693  0.0852 -0.0617  0.1660
 1604W        W17678  10.538   4.590  12.179  0.1237  0.2265 -0.0030
 1605W        W17679  10.105   7.473  12.696 -0.1112 -0.3954  0.0773
 1606W        W17680  13.037  17.422  14.195  0.0222  0.1551 -0.0931
 1607W        W17681   8.748   3.586  12.906  0.1077  0.0595  0.1469
 1608W        W17682   8.274   7.306  11.192 -0.1290 -0.2836  0.0061
 1609W        W17683   4.855   0.990   4.387  0.1132 -0.2373  0.1695
 1610W        W17684  15.847   8.372  15.552 -0.1276 -0.0706 -0.1950
 1611W        W17685   4.432  17.615   6.255  0.2405  0.1748  0.2416
 1612W        W17686   6.705  11.570   5.071  0.2719 -0.1789  0.0928
 1613W        W17687   7.096   4.676   3.671  0.1176 -0.1119  0.2059
 1614W        W17688   2.804  10.162   3.198 -0.2563 -0.0107 -0.2279
 1615W        W17689  10.918   9.568   0.253 -0.2639 -0.2401  0.0634
 1616W        W17690   9.177  11.887  14.939 -0.1289 -0.5238 -0.3266
 1617W        W17691   1.816   5.978   1.790  0.0788  0.5904  0.0405
 1618W        W17692  10.718  17.357  12.061 -0.1378 -0.2496 -0.0193
 1619W        W17693  12.045   7.210  12.329  0.1086 -0.0878 -0.0110
 1620W        W17694  10.213   5.279  13.438  0.1877  0.1360  0.0909
 1621W        W17695  14.863  17.217   4.474 -0.1591  0.2544 -0.0600
 1622W        W17696  12.187  11.692  15.494 -0.0214 -0.0700 -0.1601
 1623W        W17697   0.872   3.729  12.426 -0.0259 -0.0553  0.0142
 1624W        W17698  14.668   2.040   2.717 -0.2277 -0.4735  0.0331
 1625W        W17699   7.269   0.821   4.295 -0.0305  0.1631 -0.0305
 1626W        W17700  12.209   8.643   4.405  0.1930 -0.0083  0.1612
 1627W        W17701   1.207   8.449   2.666  0.0988  0.1650 -0.0917
 1628W        W17702  11.678  12.387   4.516  0.1047  0.2056  0.0258
 1629W        W17703   7.918  10.255  16.025  0.3585  0.0556  0.1767
 1630W        W17704   0.369  17.018  10.791  0.2127  0.2302 -0.2008
 1631W        W17705  10.892  18.022   4.604 -0.2760  0.0546 -0.0305
 1632W        W17706   1.895   7.023  14.658 -0.2667 -0.0436 -0.4907
 1633W        W17707  12.085   7.872  15.935  0.3611 -0.0890 -0.3177
 1634W        W17708   3.839  17.850   0.108  0.1943  0.0569  0.0578
 1635W        W17709   9.017   5.383   0.835 -0.1653 -0.2958  0.1589
 1636W        W17710  16.531   2.014   3.266  0.2571  0.1333  0.0164
 1637W        W17711   5.507  18.463   0.617  0.2844 -0.1906 -0.0113
 1638W        W17712  11.695  18.334   0.777  0.1774  0.0691 -0.0255
 1639W        W17713   4.551   7.363   0.786  0.2535 -0.1796 -0.2520
 1640W        W17714  11.271   5.550  12.272  0.1957  0.0474  0.2356
 1641W        W17715  17.568   4.611  10.487 -0.0801  0.0178  0.1293
 1642W        W17716  18.406   5.789  15.695  0.1375 -0.2868 -0.2377
 1643W        W17717  17.541   2.589   0.192 -0.1132 -0.2474 -0.1847
 1644W        W17718  18.015  17.813   1.885 -0.0139 -0.1223  0.1003
 1645W        W17719  15.595   4.616  15.977  0.1088  0.2705  0.2641
 1646W        W17720   7.812   3.996   0.730  0.1278  0.0984 -0.0002
 1647W        W17721   3.607   2.762   4.662  0.0326 -0.2531 -0.0465
 1648W        W17722  10.821   4.337   2.418  0.0363  0.0443 -0.4285
 1649W        W17723  12.200   7.815   1.010 -0.1906 -0.1800  0.3958
 1650W        W17724  11.754  12.372  12.672  0.0730 -0.0594 -0.4036
 1651W        W17725   4.059   0.346   4.523 -0.0002  0.1745  0.0679
 1652W        W17726  17.762   5.493   0.832 -0.3124  0.1689 -0.0163
 1653W        W17727   7.311   2.632   0.789  0.0972 -0.0130 -0.2481
 1654W        W17728  18.510   2.203   2.196 -0.1605  0.0029  0.2386
 1655W        W17729   3.307   6.650  14.554 -0.2198  0.1658  0.0970
 1656W        W17730  16.130   7.285  13.711  0.0059 -0.2652 -0.1192
 1657W        W17731   6.170  18.228   3.947  0.2182 -0.2254 -0.0065
 1658W        W17732   4.561   9.390  12.010 -0.0786 -0.0458 -0.0225
 1659W        W17733   3.019  11.154   0.486 -0.1270 -0.0843 -0.0188
 1660W        W17734  18.373  16.923   1.521  0.1633  0.1549 -0.3813
 1661W        W17735  10.152  17.567   5.172 -0.1710 -0.0832 -0.2151
 1662W        W17736   4.643   4.944   0.351 -0.0540  0.1381  0.0298
 1663W        W17737   5.949   0.645   5.055 -0.1775  0.1490  0.1557
 1664W        W17738  13.539   5.077   2.855  0.2929 -0.1278  0.1393
 1665W        W17739  13.300  13.025   3.124  0.2593 -0.0252 -0.0029
 1666W        W17740   5.677  18.319  15.735 -0.0696 -0.0248 -0.3137
 1667W        W17741  14.633  14.485  11.558  0.1678 -0.4278  0.0319
 1668W        W17742  16.602   4.472   6.270  0.1942  0.1019 -0.3321
 1669W        W17743   5.238  15.659   2.699 -0.1145 -0.2932  0.2481
 1670W        W17744   4.645   9.551   0.113  0.1223 -0.1405 -0.2984
 1671W        W17745   4.854   4.032   1.679  0.2037 -0.1658 -0.2126
 1672W        W17746   9.266  13.773   4.838 -0.1088 -0.3387  0.0694
 1673W        W17747  17.828   1.410   2.743 -0.4050  0.4318  0.0722
 1674W        W17748  14.080  15.611   3.106  0.2899  0.0860 -0.0147
 1675W        W17749  12.204   6.004   3.269 -0.0455  0.0182 -0.0294
 1676W        W17750  16.971  17.402   3.367  0.2155  0.1433 -0.0379
 1677W        W17751   4.666  16.745   0.217 -0.3761 -0.4541  0.0154
 1678W        W17752   3.160   6.724  11.693 -0.1303 -0.2277  0.0459
 1679W        W17753   1.590  16.887  15.861 -0.0325  0.0998  0.1083
 1680W        W17754  11.571  11.931  15.026  0.0896  0.1644 -0.1327
 1681W        W17755  13.816  13.142  14.554 -0.3843  0.0123  0.1395
 1682W        W17756   2.574   1.679  11.845  0.0665 -0.1003 -0.2020
 1683W        W17757  16.858   0.750  14.324 -0.2314  0.1024  0.2381
 1684W        W17758  16.305   8.911   5.262  0.2268  0.1032 -0.0805
 1685W        W17759   7.366  11.625   4.191 -0.0215  0.0538  0.3169
 1686W        W17760  13.477   5.943   2.861 -0.1596  0.0805  0.0051
 1687W        W17761   5.640   1.192   3.549  0.1392 -0.1283 -0.0224
 1688W        W17762   6.233  10.364   5.202  0.0911 -0.2137  0.1569
 1689W        W17763  16.090   5.387   0.304  0.2267 -0.1469  0.1075
 1690W        W17764   5.027  10.677  11.707  0.1433  0.4259  0.1183
 1691W        W17765  12.041  16.852   2.827 -0.3965 -0.2296 -0.1672
 1692W        W17766   8.204   8.519  15.043  0.1543 -0.2923 -0.1659
 1693W        W17767   2.949  15.584  14.792 -0.2250 -0.1207 -0.3726
 1694W        W17768  17.311   6.524   0.466  0.1106  0.0887 -0.0332
 1695W        W17769   3.804  17.781  12.975 -0.0112 -0.2000 -0.4173
 1696W        W17770   0.937  10.180   1.233 -0.0933 -0.0713  0.2830
 1697W        W17771  12.845  11.111  11.191 -0.0872  0.3037  0.3062
 1698W        W17772   3.855  18.067   2.473 -0.0743 -0.1136  0.2176
 1699W        W17773   8.769   0.377   1.193  0.1455  0.0546 -0.0376
 1700W        W17774  17.511  15.727   1.584 -0.0653  0.1124  0.1625
 1701W        W17775   2.349  17.652   0.193  0.1512 -0.2271 -0.2994
 1702W        W17776   9.703  16.561  15.895 -0.0377  0.1329  0.0346
 1703W        W17777   7.626   4.576   2.033 -0.0785  0.0773 -0.0135
 1704W        W17778   0.578  17.619  14.729  0.1225 -0.1487  0.0967
 1705W        W17779   4.251  10.770   1.878 -0.0750  0.1252  0.0313
 1706W        W17780  18.041   1.464   1.078  0.2285  0.2723 -0.0074
 1707W        W17781   5.711   8.681   0.757  0.0267  0.2760 -0.2795
 1708W        W17782  13.287  14.402  14.734 -0.3504 -0.1159  0.2438
 1709W        W17783  11.920   2.861  13.940 -0.1916  0.0973  0.2547
 1710W        W17784   7.081   2.356   4.764 -0.1487 -0.1761  0.0423
 1711W        W17785   2.365  12.693  13.205  0.0304 -0.1874  0.0855
 1712W        W17786  15.594  17.777   0.511  0.0593  0.3808  0.1309
 1713W        W17787   4.314   8.767   1.496  0.2196 -0.1563  0.0240
 1714W        W17788   5.827   3.317   2.511  0.2692 -0.0035  0.0717
 1715W        W17789   0.899  17.428   0.176  0.1287  0.2568  0.1775
 1716W        W17790   8.849   1.564   4.984  0.1948 -0.0347  0.0979
 1717W        W17791   7.366  15.539   1.558 -0.0433 -0.0618 -0.1189
 1718W        W17792   5.981   5.600   4.765  0.3149  0.0929  0.3073
 1719W        W17793   2.637   8.625   1.172 -0.3688 -0.5312  0.0839
 1720W        W17794  18.341  12.988  12.233  0.2628  0.1259  0.3995
 1721W        W17795  11.416   3.376   9.755  0.0568  0.0079  0.1014
 1722W        W17796  17.129  18.278  13.538 -0.0849 -0.0729 -0.1767
 1723W        W17797  14.966   5.068  15.468 -0.0346 -0.0392  0.0925
 1724W        W17798  12.486  13.832   4.593 -0.1261  0.5862 -0.1479
 1725W        W17799  13.526  17.843  13.669 -0.0484  0.0322  0.1210
 1726W        W17800  17.987  17.577  12.215  0.0944  0.1884 -0.0602
 1727W        W17801   4.698   7.635   1.783 -0.0851  0.1665 -0.2593
 1728W        W17802  15.850  13.534  14.792 -0.0308 -0.2536 -0.0509
 1729W        W17803  14.541   6.736  13.020  0.0408  0.0225 -0.2458
 1730W        W17804   3.730  14.099   2.228  0.2513 -0.0223 -0.1549
 1731W        W17805   2.776  14.470   5.406 -0.1531 -0.1431 -0.0278
 1732W        W17806   9.088   3.538  12.414 -0.0556  0.0680 -0.2255
 1733W        W17807   6.331   8.608  14.451  0.2767 -0.0824 -0.0907
 1734W        W17808  16.456  16.611   2.556  0.0307 -0.1387 -0.0553
 1735W        W17809   0.382   0.889  14.016  0.1450  0.0533  0.1881
 1736W        W17810  17.353   0.993   4.851  0.0991  0.0974  0.0452
 1737W        W17811  14.086   3.471  15.846 -0.0612 -0.0456 -0.0241
 1738W        W17812   4.332   0.365  12.592  0.3208 -0.1001  0.0206
 1739W        W17813   1.476   3.596   2.306  0.0420 -0.1581  0.1062
 1740W        W17814   9.471   9.661   1.645  0.4137 -0.5184 -0.1327
 1741W        W17815   2.224   6.950   4.802 -0.0801 -0.4156  0.2180
 1742W        W17816  17.830  12.344   1.062 -0.1372 -0.0867  0.5789
 1743W        W17817  16.856  15.111   1.164  0.1621 -0.2897 -0.4725
 1744W        W17818  11.013   1.930  13.095  0.1421  0.2199  0.0032
 1745W        W17819   1.560  11.775  11.789 -0.1782  0.0791 -0.1578
 1746W        W17820  15.380  15.076  14.319  0.2627  0.2129  0.3979
 1747W        W17821  14.242  13.443  11.702 -0.1835 -0.3024 -0.0910
 1748W        W17822   1.964   0.264   3.270  0.0825 -0.1863  0.3122
 1749W        W17823   4.025  11.292   0.241  0.1750 -0.0441 -0.0230
 1750W        W17824  11.233   1.445   4.117  0.1236  0.2291 -0.3169
 1751W        W17825   5.441  14.571   5.252  0.0893 -0.1524  0.0100
 1752W        W17826  15.630   7.687   2.644  0.4769  0.0170 -0.0698
 1753W        W17827   6.446   3.159  14.961  0.2498 -0.0824 -0.0026
 1754W        W17828   0.719  16.908  13.610 -0.0525  0.3185 -0.0017
 1755W        W17829   6.591  14.339   2.417 -0.0306  0.0711  0.3896
 1756W        W17830  15.649  10.140  12.663  0.0926  0.0960 -0.1262
 1757W        W17831  10.586   8.884   1.041  0.0894  0.0970  0.1140
 1758W        W17832   4.104  11.296   4.426 -0.0250 -0.2448 -0.0824
 1759W        W17833  13.473   9.439   4.565  0.0192  0.0555  0.0273
 1760W        W17834  11.716  11.649   2.918  0.0184  0.2824  0.0281
 1761W        W17835   0.729   7.029  14.820  0.2162  0.0754 -0.0641
 1762W        W17836  17.844   6.707  15.686 -0.3117  0.1425  0.2782
 1763W        W17837   9.139   0.769  12.773  0.0559  0.0563 -0.1459
 1764W        W17838  17.044  16.727   2.384  0.2830 -0.0842 -0.2399
 1765W        W17839   7.284   9.051   5.561 -0.2154  0.2633  0.1672
 1766W        W17840   1.177  15.486   4.623 -0.1397  0.2494 -0.1155
 1767W        W17841   8.777  17.090  13.820 -0.2888 -0.0663 -0.0744
 1768W        W17842  14.002   9.565  10.927  0.0621  0.2408  0.1629
 1769W        W17843   4.576  13.379   3.780 -0.3849  0.0684 -0.2048
 1770W        W17844   2.672  18.078  14.345 -0.0436 -0.1012  0.0477
 1771W        W17845  12.370  14.480  14.011  0.3022 -0.2140 -0.2716
 1772W        W17846  12.230   4.496  12.427 -0.0556 -0.0369  0.0998
 1773W        W17847  11.729   3.244  15.626 -0.0133  0.2467  0.2548
 1774W        W17848   5.951   0.198   2.075 -0.0065 -0.0042 -0.2085
 1775W        W17849  15.869   9.211   3.579  0.2544  0.0906 -0.2035
 1776W        W17850  10.160  14.474  11.641 -0.3616 -0.0586  0.1181
 1777W        W17851   3.534  14.894   2.513 -0.0897 -0.2193 -0.2849
 1778W        W17852   2.088   4.701  13.495  0.1932 -0.0424 -0.1686
 1779W        W17853  15.056   2.470   3.078  0.4116 -0.3047  0.2264
 1780W        W17854   2.226   7.275  11.576  0.0833  0.3470 -0.1877
 1781W        W17855  16.070   2.223   0.891 -0.0679 -0.2494 -0.0993
 1782W        W17856   0.279   5.640   0.993 -0.1376 -0.1387 -0.0756
 1783W        W17857  17.205   9.822  12.593 -0.4304  0.2974 -0.0809
 1784W        W17858   1.480  11.194   0.657  0.0590  0.0257 -0.0105
 1785W        W17859  10.532   8.263   0.277  0.0838  0.0959  0.0992
 1786W        W17860  10.102   4.249  13.188  0.3196 -0.2707 -0.0302
 1787W        W17861  17.401   0.315   5.852  0.0697  0.0756 -0.0436
 1788W        W17862  12.711  17.847  14.224  0.0371 -0.0605 -0.1100
 1789W        W17863   2.810  17.004  14.628  0.0410  0.0037 -0.2048
 1790W        W17864   8.202  11.850   4.353 -0.1922  0.0306 -0.2512
 1791W        W17865  13.640   1.438  11.508  0.1713 -0.1968 -0.2834
 1792W        W17866  18.036  10.809  15.867  0.1313  0.1052 -0.0610
 1793W        W17867   5.553   7.052   0.325  0.1140 -0.0668 -0.1078
 1794W        W17868   7.809   5.204   1.717  0.1950  0.4399 -0.0024
 1795W        W17869  11.769   9.697  12.452  0.1075  0.0068  0.1884
 1796W        W17870   2.145  17.957   5.246 -0.0253  0.1752  0.0282
 1797W        W17871  12.394  10.304   0.341  0.2176 -0.2644 -0.3523
 1798W        W17872  11.106  15.315   2.154  0.0324  0.1022 -0.0928
 1799W        W17873  14.243   2.162  14.719  0.2152  0.5172 -0.1442
 1800W        W17874   2.098  13.730  13.543  0.0546 -0.0450  0.2078
 1801W        W17875  16.708   4.865  14.628 -0.2735 -0.1833 -0.0797
 1802W        W17876   0.122  14.799  11.501  0.0026 -0.1500  0.0317
 1803W        W17877  12.819   1.455   2.426  0.1401  0.1110 -0.2334
 1804W        W17878   8.437  18.494   0.294  0.1817 -0.0518 -0.0724
 1805W        W17879   0.528  12.757  14.281 -0.1850  0.0662  0.0422
 1806W        W17880  17.983   4.425  14.093  0.2540 -0.1603  0.1639
 1807W        W17881   4.941  15.241   4.219  0.3009 -0.0137 -0.1895
 1808W        W17882   8.160  15.956   4.227  0.1015 -0.1525 -0.1146
 1809W        W17883   9.937  16.093  16.003 -0.1777 -0.1859 -0.1347
 1810W        W17884   6.771  12.612   4.963  0.0915 -0.2512  0.0786
 1811W        W17885   3.295  17.497   2.167 -0.0831 -0.1271  0.0145
 1812W        W17886   9.587  13.887  14.380  0.0977 -0.0995  0.0724
 1813W        W17887  11.891  11.313   3.216 -0.1267 -0.0922  0.0806
 1814W        W17888   6.093   6.412  11.647 -0.1006  0.2524  0.2199
 1815W        W17889  15.740  17.564   2.464 -0.1295 -0.1666 -0.2596
 1816W        W17890  12.837   5.504  13.720 -0.0044 -0.1170 -0.5289
 1817W        W17891  13.335  17.503  13.236  0.1040 -0.0787  0.1714
 1818W        W17892  13.226  10.482   1.000 -0.0021  0.2839 -0.0726
 1819W        W17893  10.262  15.289   2.002 -0.0074  0.2005  0.1428
 1820W        W17894  12.824   7.882   2.175  0.0290  0.2437 -0.1784
 1821W        W17895  14.124  12.824  11.247  0.3016 -0.0111  0.1276
 1822W        W17896   6.713  15.875  13.753 -0.1593  0.0084  0.0137
 1823W        W17897   8.681  12.422  10.741 -0.0967 -0.2285 -0.2579
 1824W        W17898  11.317   2.899   1.966  0.1410 -0.2861  0.1952
 1825W        W17899   2.459  12.546  11.930 -0.1256  0.2995 -0.0313
 1826W        W17900  14.829   4.017   0.392  0.2364  0.2663  0.1355
 1827W        W17901  15.429   0.907  15.341  0.5839 -0.0255 -0.0575
 1828W        W17902   3.933  11.799   4.097 -0.2066 -0.0262 -0.2726
 1829W        W17903  17.429  14.423  12.317  0.0724 -0.0254 -0.0177
 1830W        W17904   2.394  16.350  12.924 -0.2161  0.3297  0.0790
 1831W        W17905   2.522   2.229   2.135  0.0349 -0.0449  0.0701
 1832W        W17906  14.875  13.468  11.426  0.0554 -0.1817 -0.0896
 1833W        W17907   6.129  17.698   5.160  0.2144  0.1684  0.2945
 1834W        W17908   7.913   0.007  11.797  0.0197 -0.0793  0.1406
 1835W        W17909  14.094   5.232  14.541 -0.0983 -0.2401  0.0517
 1836W        W17910  18.514  15.518  13.974 -0.0194 -0.1291  0.1333
 1837W        W17911  15.549  15.067  12.291 -0.1989  0.0074 -0.1555
 1838W        W17912  16.492  14.851  14.281 -0.0812 -0.1504 -0.3679
 1839W        W17913   9.200   0.331  12.485 -0.3264  0.3516 -0.1189
 1840W        W17914   9.841  18.191   1.476  0.1492 -0.0607 -0.2021
 1841W        W17915  13.751  11.071   3.850 -0.1753  0.3057 -0.0161
 1842W        W17916   0.977   2.400   0.827 -0.2954 -0.0260  0.1025
 1843W        W17917   1.625   1.950   1.810 -0.1165  0.1727  0.1220
 1844W        W17918  10.915   6.669  15.186 -0.2614  0.0542 -0.0183
 1845W        W17919  18.126   3.313   1.653  0.0049  0.0246  0.0243
 1846W        W17920   6.557   0.729   3.512 -0.3189 -0.1620  0.1268
 1847W        W17921   1.113  14.278   5.453 -0.1741  0.2232  0.0853
 1848W        W17922  12.133   3.511   1.722  0.1306 -0.0217  0.0678
 1849W        W17923  11.475   5.119   2.233  0.2783 -0.3171  0.0977
 1850W        W17924  15.497  17.751   0.977  0.1247 -0.1371  0.1190
 1851W        W17925   7.055  11.283   1.374 -0.1248  0.1005 -0.0379
 1852W        W17926   5.988   8.993  15.312  0.0724 -0.0229  0.3637
 1853W        W17927  13.651  18.123   6.177 -0.0896  0.1334  0.2317
 1854W        W17928   1.600   1.105  15.029  0.1921  0.2224 -0.1732
 1855W        W17929   9.479  11.853   4.914 -0.2508 -0.0813 -0.0392
 1856W        W17930  15.397  17.546   6.496  0.0496  0.2852  0.2937
 1857W        W17931   3.283   9.259   4.104  0.0281  0.2500  0.1597
 1858W        W17932   6.228   9.092   3.977  0.3518 -0.0463 -0.3405
 1859W        W17933   1.202   4.424   2.117 -0.3388 -0.1014  0.1347
 1860W        W17934  14.251   6.185   0.541  0.1029 -0.2435  0.0128
 1861W        W17935  16.314   4.790  11.036  0.1587  0.0631 -0.1460
 1862W        W17936   6.560  13.879   1.032 -0.1413  0.2975 -0.2360
 1863W        W17937   5.389  10.998   3.615  0.1186 -0.2028 -0.1452
 1864W        W17938  16.564   9.958  12.273  0.2011  0.2165 -0.0794
 1865W        W17939  14.243  14.040  11.613  0.0633  0.1898  0.2060
 1866W        W17940  15.491  13.419   3.488  0.1750  0.2803 -0.3001
 1867W        W17941  15.895   6.593   3.432 -0.1115  0.1189  0.2129
 1868W        W17942   1.885   8.484   1.406  0.1543 -0.3297 -0.0675
 1869W        W17943   7.914   9.650   0.146 -0.2073  0.4424 -0.1838
 1870W        W17944   1.474   9.270  12.290 -0.2469 -0.1069 -0.3062
 1871W        W17945   7.670   9.536   3.123  0.0476  0.0019  0.2276
 1872W        W17946   9.709  17.481  15.432  0.1321  0.0213 -0.4495
 1873W        W17947   0.919   7.347   1.940 -0.2584  0.0612  0.0574
 1874W        W17948  11.134   1.421   0.240 -0.1239 -0.0387 -0.0786
 1875W        W17949  14.698   1.012  10.863 -0.0176  0.0549 -0.0121
 1876W        W17950   3.576  11.509   0.067 -0.0126  0.0435  0.0678
 1877W        W17951  12.566   1.148   4.095 -0.2084  0.2170  0.0414
 1878W        W17952   0.968  11.911   0.806  0.2703  0.0665 -0.2581
 1879W        W17953  16.420   2.146  14.673  0.2906 -0.1964 -0.1978
 1880W        W17954   5.866   6.978   4.151 -0.2767  0.2629 -0.1861
 1881W        W17955  11.535   3.561   5.328  0.0874  0.2615 -0.1140
 1882W        W17956  16.998   1.539   4.066  0.1171  0.1215  0.1696
 1883W        W17957  10.169   1.619  10.899 -0.0688 -0.0571 -0.0531
 1884W        W17958  13.197   4.698   1.063  0.2160  0.0229  0.1215
 1885W        W17959  16.828   3.472   1.014 -0.1504  0.0628  0.0354
 1886W        W17960  17.057  16.918   1.865 -0.1868  0.1080  0.1172
 1887W        W17961  18.547   6.768   0.270  0.1141  0.3598  0.4425
 1888W        W17962   5.815  14.095   3.630 -0.1150 -0.0386 -0.3381
 1889W        W17963   5.569  17.150  11.660  0.1992 -0.1056  0.0018
 1890W        W17964   6.166  11.429  15.569 -0.1127 -0.0664 -0.1143
 1891W        W17965   3.922  14.346   5.553 -0.2759  0.2789  0.3025
 1892W        W17966  12.420  12.396   0.856 -0.0356  0.2554  0.2888
 1893W        W17967  17.951   1.886   2.689 -0.0323 -0.1439 -0.1531
 1894W        W17968  13.750  18.430  13.009  0.0859  0.1836  0.2901
 1895W        W17969  11.478   1.761  13.140 -0.1374  0.1329  0.0216
 1896W        W17970   4.105  15.479   2.501  0.2969 -0.3154 -0.0662
 1897W        W17971   8.971   0.296  15.507 -0.1098 -0.2173 -0.2057
 1898W        W17972   3.316   7.576  14.049 -0.0421 -0.0378  0.1261
 1899W        W17973   4.679   4.917  13.298  0.1432  0.0180  0.6256
 1900W        W17974   2.600   5.913  14.931  0.1170 -0.0741 -0.1868
 1901W        W17975   3.022   4.548   2.246 -0.1183 -0.0968  0.1027
 1902W        W17976  12.650  16.685  13.296  0.2031  0.1437  0.0285
 1903W        W17977   4.503  17.341   4.671 -0.3278 -0.0290  0.0013
 1904W        W17978   1.770   4.848  13.073  0.0717  0.0944 -0.1659
 1905W        W17979  17.565  10.580   1.498  0.1581  0.3693  0.1810
 1906W        W17980  17.964   0.658  14.607 -0.3330  0.0352  0.1518
 1907W        W17981   0.988   2.783   0.346 -0.0555 -0.1671 -0.0232
 1908W        W17982   4.955   9.641  14.617  0.1475 -0.1633  0.0772
 1909W        W17983  18.506   6.386  11.736  0.0077 -0.1752 -0.1111
 1910W        W17984   7.737   8.302   2.359  0.0133  0.0711  0.0877
 1911W        W17985  16.839   0.892   0.828  0.0990  0.0358 -0.4279
 1912W        W17986  10.380   5.518  13.866  0.1195 -0.1806 -0.2754
 1913W        W17987   7.255   8.742  14.692  0.2745 -0.2284 -0.1274
 1914W        W17988  12.511  15.714   0.209 -0.1885 -0.2325 -0.1557
 1915W        W17989  14.458   9.488   3.789  0.1952 -0.0269 -0.0704
 1916W        W17990  11.272   2.779  12.120  0.0486 -0.0250 -0.0215
 1917W        W17991  15.848   2.566   2.003  0.1266  0.1127 -0.2754
 1918W        W17992   1.522  15.178  14.277 -0.1438 -0.3103  0.0104
 1919W        W17993  10.711  13.291   5.077  0.1745  0.1775 -0.0309
 1920W        W17994  12.277  10.115   5.476  0.0716  0.2222  0.0472
 1921W        W17995   4.346  16.791  11.098 -0.0511 -0.1672 -0.0335
 1922W        W17996   4.012   1.271   5.057 -0.2789 -0.3677 -0.2292
 1923W        W17997  13.510   9.266  13.002 -0.1813 -0.2478 -0.1240
 1924W        W17998   5.926   1.295   1.490 -0.0226  0.0694 -0.0046
 1925W        W17999   0.437  11.236  14.106  0.1612  0.1365  0.2424
 1926W        W18000   5.118   3.662  11.233  0.1953 -0.3446 -0.0793
 1927W        W18001   4.673   7.086  10.786 -0.0367 -0.1022  0.2598
 1928W        W18002  13.048  11.319   0.963  0.1293  0.2165 -0.1040
 1929W        W18003  13.463   0.209   3.946 -0.0317 -0.3163  0.0662
 1930W        W18004   6.981  10.313  15.744  0.1944 -0.2211  0.0200
 1931W        W18005   2.068  11.126   0.311 -0.2541  0.0403 -0.0999
 1932W        W18006  13.650  11.606   4.104  0.0727 -0.3246 -0.1106
 1933W        W18007   7.074   8.200  11.483  0.2325  0.0241  0.2576
 1934W        W18008  13.292  14.233   2.052  0.2122  0.1784  0.0449
 1935W        W18009  13.271  13.406  11.557 -0.2691 -0.3425  0.3878
 1936W        W18010  10.127  15.469   2.827  0.3771 -0.0122  0.1379
 1937W        W18011  17.730   3.737  12.252  0.2251  0.2734 -0.1585
 1938W        W18012  11.940  17.622  13.399 -0.0202  0.2007  0.0943
 1939W        W18013   3.605   2.346   0.059  0.3465 -0.1982 -0.2410
 1940W        W18014   6.918   4.778  14.076  0.1646 -0.1790 -0.0249
 1941W        W18015  16.877  16.913  15.942  0.1149  0.1651  0.0221
 1942W        W18016   7.501  11.431   0.397 -0.0943  0.0551 -0.2324
 1943W        W18017  10.727   5.849   1.887 -0.1649 -0.0709 -0.1954
 1944W        W18018   4.439  12.786   1.383  0.0046 -0.1643  0.1811
 1945W        W18019  15.360  17.590  13.483  0.3287 -0.2672  0.3085
 1946W        W18020  14.643  15.767  10.966  0.2133  0.1714  0.2525
 1947W        W18021  16.279  11.858   2.631 -0.0726  0.5130  0.1190
 1948W        W18022   9.176  16.886  10.564  0.3490 -0.3076 -0.0248
 1949W        W18023   1.591   1.380  15.567  0.4234 -0.1490  0.0099
 1950W        W18024  10.903   1.995  12.063 -0.2402 -0.1879  0.2254
 1951W        W18025  17.476  18.064   1.274 -0.3755 -0.3740 -0.0506
 1952W        W18026  16.375   6.934   1.377 -0.1858  0.2498  0.1663
 1953W        W18027   8.740   6.989  11.226  0.2217  0.2821  0.1814
 1954W        W18028   7.457   7.253  13.070  0.0725  0.1504 -0.1231
 1955W        W18029  13.077   2.363   2.652  0.0758  0.1236  0.3878
 1956W        W18030   3.578   5.948   4.054 -0.2211  0.2650  0.3093
 1957W        W18031   9.909   7.541   1.273 -0.0661  0.1169 -0.1670
 1958W        W18032   6.121  18.138   4.423  0.0971 -0.1262  0.2327
 1959W        W18033  14.816   6.196   4.958 -0.1452  0.0295 -0.0978
 1960W        W18034  13.375  13.089   1.447  0.2127 -0.1698  0.0419
 1961W        W18035   1.950  18.282  13.966  0.0055  0.2741  0.0126
 1962W        W18036  12.667  16.511  15.251  0.0402 -0.2949  0.3500
 1963W        W18037   7.371   2.631  11.362  0.0155 -0.0294 -0.0306
 1964W        W18038   8.547   9.165   4.217  0.0874 -0.1717  0.1234
 1965W        W18039  12.213   6.220  14.968  0.0527 -0.1287 -0.2570
 1966W        W18040   1.814   8.226   6.479  0.0368 -0.0712 -0.2789
 1967W        W18041   6.118  18.439  13.679  0.0515  0.0322  0.2312
 1968W        W18042   0.598   0.665   0.395 -0.1619 -0.0868  0.0961
 1969W        W18043  13.393  14.806  13.823 -0.1032 -0.1899 -0.1693
 1970W        W18044  15.389  11.983  13.867  0.1428  0.0726 -0.0865
 1971W        W18045   0.696  14.025   5.475 -0.1473 -0.1359  0.1079
 1972W        W18046  18.300  18.564  11.266  0.1952 -0.0638 -0.2138
 1973W        W18047   5.466  11.854  11.549  0.0024  0.0642  0.0173
 1974W        W18048   9.279   2.028  15.907  0.2113  0.0803 -0.4327
 1975W        W18049   6.772  14.035  13.490 -0.2729  0.0046 -0.1732
 1976W        W18050  18.566  12.475   1.762 -0.1266  0.0357 -0.2895
 1977W        W18051  14.862   8.729  14.377  0.1399  0.1683 -0.4281
 1978W        W18052   7.341  10.430   1.112  0.1013  0.0474  0.0026
 1979W        W18053   3.043  16.771  11.638  0.1474  0.2444  0.1258
 1980W        W18054  17.588   4.802  12.349  0.0518  0.1767 -0.0181
 1981W        W18055   7.658  16.363  13.543  0.2911 -0.0112 -0.3893
 1982W        W18056  15.429   1.755   0.035 -0.0131 -0.0814 -0.0734
 1983W        W18057  12.012   9.320  12.773  0.1227 -0.3168 -0.0416
 1984W        W18058  11.466   8.377  12.302  0.0313 -0.0014  0.1003
 1985W        W18059  12.928  15.685   1.544  0.0471  0.0462 -0.3104
 1986W        W18060  16.006   9.592  14.826  0.0359  0.1147 -0.0588
 1987W        W18061  16.904   3.088  13.830  0.0068 -0.0560 -0.1125
 1988W        W18062  12.279   5.727   2.387  0.1678 -0.2829  0.1985
 1989W        W18063   4.024  18.230   0.364  0.2305 -0.1698 -0.0714
 1990W        W18064   9.702   3.059   2.152 -0.3239 -0.0201  0.0276
 1991W        W18065   2.375   8.812  13.098 -0.0037 -0.4193 -0.2477
 1992W        W18066  17.410   6.515   2.616 -0.1047 -0.0432 -0.1128
 1993W        W18067  15.400  11.787  15.234 -0.2491  0.0385  0.0120
 1994W        W18068  14.991  10.985   1.214  0.1987 -0.0621 -0.0577
 1995W        W18069  12.740   5.635  14.597  0.0992 -0.0895 -0.0201
 1996W        W18070   1.866   3.584  13.831 -0.1101 -0.0521  0.2231
 1997W        W18071   8.128   8.162  11.559 -0.2618  0.0156 -0.1255
 1998W        W18072  14.787   8.164   2.442  0.0449  0.3918 -0.1799
 1999W        W18073   7.445  15.934  13.149  0.0298  0.1694  0.2121
 2000W        W18074  13.839  17.935   1.181  0.3499 -0.3428 -0.1089
 2001W        W18075  13.461   5.125  13.831 -0.1538 -0.1108 -0.0326
 2002W        W18076   8.753   0.442  13.203 -0.1861  0.0696  0.2177
 2003W        W18077  17.603   3.804   2.520  0.0653 -0.0261 -0.0643
 2004W        W18078  14.890   6.359   5.515  0.0297 -0.0285 -0.0365
 2005W        W18079   1.476   9.375  12.768 -0.2813 -0.4627 -0.2704
 2006W        W18080  14.232  12.510   2.851  0.4002  0.1397 -0.0189
 2007W        W18081   0.662  10.315  13.362  0.0312 -0.1602 -0.5226
 2008W        W18082  15.758   2.527  15.045  0.3705  0.1867 -0.1058
 2009W        W18083  12.832  17.760  10.446 -0.2076  0.0464  0.0454
 2010W        W18084  17.979  14.450   4.073  0.1955  0.0658 -0.0716
 2011W        W18085   1.373  13.057   3.194 -0.2193 -0.2682  0.2112
 2012W        W18086  16.396  15.287   3.311 -0.1046  0.1523  0.0317
 2013W        W18087  18.484   6.126  12.163 -0.1184 -0.1673  0.0604
 2014W        W18088   0.804   4.685   1.423 -0.0571 -0.0911  0.0446
 2015W        W18089  13.896   1.672  14.526  0.3825  0.0041 -0.2272
 2016W        W18090  13.288  15.396  15.835 -0.0536  0.1346  0.0752
 2017W        W18091  10.584  11.542   4.429 -0.3979  0.1316  0.0811
 2018W        W18092   7.304   9.310  15.663 -0.2396  0.2026 -0.1908
 2019W        W18093  10.145   6.064  13.851  0.2070  0.4094  0.0472
 2020W        W18094  16.765  17.170  11.326 -0.2486 -0.0078  0.1675
 2021W        W18095  10.928  16.346   3.974 -0.1313  0.1233 -0.0088
 2022W        W18096   7.842  13.738   6.010  0.0581 -0.0568  0.2734
 2023W        W18097   7.679   1.936  11.858  0.2159 -0.2813  0.2364
 2024W        W18098  12.031   1.110   4.231 -0.6469 -0.1953  0.0527
 2025W        W18099   4.987   0.025   1.334 -0.2884 -0.2420 -0.0359
 2026W        W18100   8.693   4.854  15.283 -0.2697 -0.2661  0.0219
 2027W        W18101   5.278  16.185   0.743 -0.4006 -0.2856  0.0232
 2028W        W18102  10.707   2.661  13.820 -0.0735 -0.1770  0.2892
 2029W        W18103   5.426   5.297  15.904  0.0640  0.3518  0.2229
 2030W        W18104   2.797  13.896   1.091  0.0930  0.0711  0.0100
 2031W        W18105  16.133  10.818   4.602  0.1283 -0.1077  0.1587
 2032W        W18106   2.158   9.447   3.481  0.0684  0.1602 -0.0530
 2033W        W18107  13.917   2.482   0.600 -0.2205 -0.2358 -0.0029
 2034W        W18108  17.278  15.301  15.126 -0.1758 -0.0730 -0.1761
 2035W        W18109   9.509  12.745   2.146  0.4101 -0.2688 -0.2237
 2036W        W18110   7.270   0.283  15.327 -0.0442 -0.1150  0.2699
 2037W        W18111   1.737  18.539  12.670  0.3949  0.2236 -0.0392
 2038W        W18112  12.540  18.456   1.305  0.2137  0.3003  0.1993
 2039W        W18113  16.391  17.303  13.077  0.0332 -0.0102  0.0904
 2040W        W18114   9.269   0.664  15.679  0.0072  0.0705 -0.5469
 2041W        W18115   4.622   5.529  14.365 -0.3311 -0.2294  0.3405
 2042W        W18116  15.968   0.013  12.224  0.1706  0.2250 -0.0071
 2043W        W18117   4.740   0.409  11.516  0.1834 -0.1371  0.0395
 2044W        W18118   8.338  11.366  11.619  0.4221 -0.2948 -0.0711
 2045W        W18119   3.798   7.406  15.514  0.0597  0.2638 -0.0647
 2046W        W18120   3.868   3.988   3.102  0.0261  0.2192 -0.0900
 2047W        W18121  18.407  18.480  14.942 -0.0326 -0.2992 -0.1822
 2048W        W18122   1.666  10.726   3.750 -0.0118 -0.3659  0.2365
 2049W        W18123  10.224   9.132   3.071  0.5396 -0.3137 -0.3553
 2050W        W18124   0.354  14.527   2.123  0.0725 -0.1295 -0.0680
 2051W        W18125   5.791  16.773  11.871 -0.1808 -0.1795  0.1816
 2052W        W18126  14.620  13.293  16.000 -0.1058  0.0696  0.0109
 2053W        W18127   1.194   4.451  14.655  0.0064  0.0666  0.1337
 2054W        W18128   7.922  11.435   4.166 -0.1494  0.1774  0.1110
 2055W        W18129  12.543  18.158  14.573  0.0960 -0.1928 -0.3614
 2056W        W18130   0.436   6.944  11.480 -0.0095  0.0061  0.0475
 2057W        W18131   2.944  16.830   1.580 -0.3247 -0.2977  0.1727
 2058W        W18132  11.591  10.679  15.508  0.0493 -0.1510  0.2485
 2059W        W18133   2.844  11.630   3.994  0.0690 -0.0931 -0.3499
 2060W        W18134   2.532   0.604   2.644 -0.2459  0.0526 -0.0105
 2061W        W18135  15.869   4.636  15.177  0.3613  0.2197 -0.3777
 2062W        W18136   1.855   5.700  15.843 -0.0930  0.4778  0.1975
 2063W        W18137   0.971  11.497   5.497  0.3795  0.1835  0.4438
 2064W        W18138   4.930   4.098  11.058  0.1330 -0.1662  0.4447
 2065W        W18139  15.091  10.452   1.000  0.1382  0.0828  0.1850
 2066W        W18140   6.466  18.098   2.568 -0.3870  0.0777 -0.2392
 2067W        W18141  17.770  13.700  13.700  0.2835 -0.1037 -0.0242
 2068W        W18142   9.421  11.528  13.966 -0.0024  0.0598  0.0327
 2069W        W18143  13.983  18.085   3.386 -0.1684 -0.0051  0.0285
 2070W        W18144  15.465   7.073   5.167  0.0853 -0.1020 -0.3010
 2071W        W18145   6.441  16.826   5.227  0.1313  0.0130 -0.0661
 2072W        W18146  10.168   9.026  13.221  0.1619 -0.1781  0.5027
 2073W        W18147  14.023  15.714  12.696  0.0327 -0.0478 -0.2047
 2074W        W18148  14.274   0.326   2.783  0.2211  0.1723 -0.2255
 2075W        W18149  15.537  10.480  13.027 -0.0698 -0.3156  0.2213
 2076W        W18150  15.595  14.870   2.021 -0.0669  0.1327 -0.2012
 2077W        W18151  11.060   0.602  14.789 -0.1537  0.1865  0.3016
 2078W        W18152   4.788   6.275   0.659  0.2139  0.0673 -0.1054
 2079W        W18153  15.094  15.576   4.116 -0.3814 -0.0496  0.3181
 2080W        W18154   4.497   3.569   3.581 -0.0399  0.1333  0.0359
 2081W        W18155   7.808  16.515   0.503  0.0608 -0.0925  0.1365
 2082W        W18156  12.874   5.160   4.788 -0.1410 -0.0742 -0.0864
 2083W        W18157  15.232  10.847  12.833  0.0437  0.3076 -0.1406
 2084W        W18158   7.217  13.483   3.307  0.0977  0.1356 -0.1440
 2085W        W18159  10.780  16.770  14.105  0.0446  0.1509  0.2137
 2086W        W18160  14.727   6.318   1.512 -0.1815  0.0363  0.1976
 2087W        W18161  12.461  10.241   4.638 -0.0286 -0.1392  0.0575
 2088W        W18162  10.424   3.119  12.827  0.1275  0.0345 -0.0168
 2089W        W18163  10.653  17.047  11.471  0.0078  0.4245 -0.0114
 2090W        W18164   2.596  17.996   2.042 -0.1480  0.1714 -0.1593
 2091W        W18165   1.560   3.641   6.181 -0.2085  0.0166  0.1002
 2092W        W18166  15.830   4.181   1.008  0.0004 -0.3345  0.1383
 2093W        W18167  13.954   3.457  13.402 -0.0039 -0.1050  0.2380
 2094W        W18168   0.621   6.187   5.405  0.2082 -0.2673  0.1371
 2095W        W18169   3.467  16.920   1.511 -0.4184  0.0460  0.3192
 2096W        W18170  15.793   0.790   0.017 -0.0474  0.2419  0.2006
 2097W        W18171   3.305  12.120   3.042 -0.1636  0.2622 -0.1679
 2098W        W18172   8.792  10.887  12.380 -0.2386 -0.2656 -0.0113
 2099W        W18173  14.547  17.541   4.148  0.1258  0.2267 -0.0354
 2100W        W18174   7.787   8.623  12.692  0.1902  0.1774 -0.1121
 2101W        W18175   9.200  17.835  13.564  0.0403  0.0341 -0.1066
 2102W        W18176  16.799  11.220   1.480 -0.1068  0.1942 -0.1083
 2103W        W18177  10.042   0.090   0.310 -0.0656  0.0996 -0.0202
 2104W        W18178   2.436   8.171   4.671 -0.0555  0.0990  0.1391
 2105W        W18179  16.463  12.205   4.032  0.2346  0.1703  0.0533
 2106W        W18180  11.700   3.221  15.063  0.4543  0.1726  0.1637
 2107W        W18181   5.752  13.927  13.355 -0.1124  0.0120 -0.0666
 2108W        W18182   5.622   6.204  14.539 -0.0968 -0.5758  0.0771
 2109W        W18183   6.016  10.961   4.451  0.0153  0.2330 -0.0046
 2110W        W18184   0.156  13.942  13.252  0.0466 -0.1795 -0.1141
 2111W        W18185   6.038   7.205  15.476  0.2026  0.2317 -0.1062
 2112W        W18186  10.289  17.157   0.811  0.0121  0.1084 -0.1601
 2113W        W18187  15.833   7.708   1.373  0.1120 -0.1289  0.3576
 2114W        W18188   2.350  11.832  14.082  0.1189 -0.2228 -0.2424
 2115W        W18189   9.651   7.398   4.064 -0.1177 -0.3434 -0.0214
 2116W        W18190   6.632  13.574   0.584  0.0531 -0.2164  0.0227
 2117W        W18191   8.391  15.335   1.955  0.2576  0.0067  0.0393
 2118W        W18192   8.589  16.315  11.054 -0.1888  0.2490  0.1015
 2119W        W18193  15.203   1.826  10.443  0.1894  0.0712 -0.1039
 2120W        W18194  17.439  15.698   0.991  0.0613 -0.0817 -0.0714
 2121W        W18195   4.074   5.133  15.105  0.2296  0.1271 -0.0652
 2122W        W18196  14.269  11.497  11.096  0.0893  0.1038 -0.1737
 2123W        W18197  12.071  16.865  10.833  0.2274  0.1622  0.0710
 2124W        W18198  17.037  15.776  15.071 -0.0003 -0.4207  0.0935
 2125W        W18199  10.642   1.620   0.382  0.1311 -0.1469  0.4207
 2126W        W18200  14.828   6.587  13.878 -0.2697 -0.1518 -0.2273
 2127W        W18201   2.375  17.394   2.485  0.3429 -0.0552 -0.0891
 2128W        W18202  13.399  14.613   0.652 -0.1711 -0.4142  0.3187
 2129W        W18203   2.127   9.503   2.261 -0.1171  0.0321 -0.2958
 2130W        W18204  14.449   1.806   3.493 -0.2821 -0.0672  0.0421
 2131W        W18205  10.451   8.745  15.244 -0.2088  0.0951  0.1044
 2132W        W18206   4.161   3.286  11.880  0.2464 -0.0957  0.1168
 2133W        W18207  12.999  16.256  14.968  0.0025 -0.0393 -0.1474
 2134W        W18208  17.827  14.251   1.529 -0.1569  0.1148  0.1500
 2135W        W18209   9.807   8.177   2.937  0.2254 -0.0671 -0.3650
 2136W        W18210  15.995  13.980  14.670 -0.0295  0.0597  0.2716
 2137W        W18211   1.037   8.733   1.048  0.2473  0.1102 -0.0463
 2138W        W18212  13.321   8.038  11.789  0.1783  0.0557  0.0324
 2139W        W18213  18.008   6.016  12.360  0.2916  0.0423 -0.0579
 2140W        W18214  12.153   0.258   3.288 -0.0389  0.4061 -0.3681
 2141W        W18215   8.174  14.871   1.466 -0.2143  0.1422 -0.0872
 2142W        W18216   2.112   9.943  14.388  0.1078  0.0434 -0.0999
 2143W        W18217   9.559  16.603  13.890  0.3533  0.1280  0.1596
 2144W        W18218   2.823   2.406   2.724  0.0367  0.0664 -0.0041
 2145W        W18219  11.194   6.566   3.642 -0.4427  0.3064  0.0876
 2146W        W18220  11.916   3.698  15.710 -0.3983 -0.2288  0.0215
 2147W        W18221  10.623   9.896  13.227 -0.1536 -0.0029  0.0035
 2148W        W18222   8.419  15.797  13.367  0.1389 -0.1212 -0.2159
 2149W        W18223  11.902   0.684   4.431 -0.0346  0.0603 -0.0966
 2150W        W18224   8.745   3.076   2.598 -0.0704  0.2403  0.1383
 2151W        W18225   0.612  17.955  10.828 -0.2879  0.2307 -0.1528
 2152W        W18226   9.221   2.811  11.636  0.0910 -0.0825  0.1780
 2153W        W18227   3.160  11.592  11.638  0.2188  0.1631  0.1058
 2154W        W18228  14.464  14.864  14.857  0.0783 -0.0355  0.3617
 2155W        W18229  10.219   1.254  12.501  0.0510  0.1645  0.1066
 2156W        W18230  14.358   4.557  15.283  0.0113  0.0681  0.1513
 2157W        W18231  17.903   7.138   1.088 -0.1314  0.2101  0.2345
 2158W        W18232   6.538   2.292   3.027 -0.0252 -0.0333 -0.0238
 2159W        W18233  12.974   2.805  11.696  0.1635 -0.0038  0.2408
 2160W        W18234  16.958  13.473   6.484 -0.1781  0.2701  0.3091
 2161W        W18235  12.618  16.078  11.251  0.0428  0.4070 -0.2926
 2162W        W18236   2.637   5.842  12.207 -0.1020  0.2413 -0.2432
 2163W        W18237  14.982  16.637   4.560 -0.1729 -0.0140  0.0790
 2164W        W18238   5.964   9.926   1.959  0.0964  0.0819  0.2631
 2165W        W18239  13.829   3.584   2.904  0.0401  0.1774  0.2004
 2166W        W18240  16.585  18.388   5.468  0.3009  0.0725  0.1467
 2167W        W18241   4.791  15.401  13.921 -0.0638 -0.4025  0.0954
 2168W        W18242   1.226  10.607   3.364  0.1615 -0.0232  0.0943
 2169W        W18243  11.720   1.499   0.274 -0.0172  0.2036  0.4137
 2170W        W18244  18.118  10.429   4.821 -0.1328  0.0417 -0.0127
 2171W        W18245   9.502  16.600   0.344 -0.2257 -0.1539 -0.3607
 2172W        W18246  11.374  14.376  11.636 -0.2147  0.0254  0.1110
 2173W        W18247  16.991   8.287   5.311  0.0169  0.1245  0.0020
 2174W        W18248  13.135   2.372  11.840 -0.0515 -0.1154  0.1730
 2175W        W18249   2.227  16.652  15.129 -0.1130 -0.0802  0.1455
 2176W        W18250   4.031  16.321   4.802 -0.1930 -0.0281  0.2149
 2177W        W18251   0.369  12.557   3.321 -0.1731  0.0804  0.2900
 2178W        W18252  15.758  17.381  11.376  0.1586 -0.0051  0.2074
 2179W        W18253  12.108   2.326  15.926 -0.0307  0.1765  0.0545
 2180W        W18254   9.218  16.491  12.462 -0.0415  0.2844  0.0867
 2181W        W18255   0.304   2.094  11.328  0.1379  0.2876 -0.0555
 2182W        W18256   5.231   5.743  15.938  0.1062  0.0962 -0.0101
 2183W        W18257   7.121  12.399   4.608 -0.3886  0.0715  0.2938
 2184W        W18258   5.653  18.424   4.293  0.1748  0.1227 -0.0949
 2185W        W18259   4.246  12.805   0.573 -0.0004 -0.1290 -0.0939
 2186W        W18260   8.813  11.829   1.177 -0.0970  0.2887 -0.2240
 2187W        W18261   0.687   4.112  12.878 -0.0295 -0.3279  0.2421
 2188W        W18262   2.929   7.688  15.177 -0.0109  0.0601 -0.0971
 2189W        W18263  14.987   8.134  15.055 -0.0093  0.1912 -0.0381
 2190W        W18264  10.826   3.515  15.085  0.1144 -0.2482 -0.0197
 2191W        W18265   2.682  12.858   3.868 -0.0368  0.0865 -0.0786
 2192W        W18266   1.766   5.978   5.247  0.0079  0.0274  0.0223
 2193W        W18267   7.734  17.876   9.647 -0.0892 -0.0656 -0.2332
 2194W        W18268  16.584   3.930   3.355  0.2806 -0.0998  0.1277
 2195W        W18269   2.404   0.161  15.165 -0.1978 -0.1467  0.2646
 2196W        W18270  17.126   0.630   5.471  0.0085  0.0527  0.0212
 2197W        W18271   3.450   4.045   4.107 -0.0993 -0.0005  0.2143
 2198W        W18272   2.421  10.107   4.094 -0.0595 -0.2615  0.0526
 2199W        W18273   9.858  10.158  15.263  0.0447 -0.1829 -0.2274
 2200W        W18274   1.187  11.130   4.233  0.2084 -0.1601 -0.1429
 2201W        W18275   0.245  10.195   5.574  0.2463  0.0029 -0.0111
 2202W        W18276   4.611  13.988   2.646  0.0294  0.0701  0.0624
 2203W        W18277   0.846   9.222   3.475  0.2398  0.0708  0.3591
 2204W        W18278   2.202  11.948   0.122 -0.0184  0.1217  0.0058
 2205W        W18279  11.387  14.956   4.425 -0.0175  0.0190 -0.0716
 2206W        W18280  11.759   8.521   0.847 -0.2858  0.0141  0.2404
 2207W        W18281   8.843  15.647   0.547  0.0518 -0.1440 -0.2572
 2208W        W18282   1.408  17.014   1.404 -0.1118  0.1826 -0.2251
 2209W        W18283  10.495  15.183   3.147 -0.0492  0.3432  0.0904
 2210W        W18284  14.243   3.835   2.639  0.0874 -0.0593 -0.0739
 2211W        W18285  16.164  10.798  13.229  0.0484  0.0173 -0.0679
 2212W        W18286  10.560  14.184  10.844  0.0572 -0.0469 -0.2417
 2213W        W18287  12.260   0.770  11.857  0.0114 -0.1730 -0.1584
 2214W        W18288   2.952   0.396   2.358  0.1960 -0.1806  0.0396
 2215W        W18289   4.588   3.017   1.253  0.2756 -0.0497  0.1194
 2216W        W18290   6.702   1.801  11.169  0.0840 -0.1512 -0.2082
 2217W        W18291   0.151  18.300  10.954  0.0101 -0.0232  0.0971
 2218W        W18292   4.150   5.502   1.806 -0.3074 -0.0785 -0.2961
 2219W        W18293   2.806  15.216  11.354 -0.2941  0.1632  0.0918
 2220W        W18294  12.736  18.008   5.113 -0.0969 -0.2928  0.0518
 2221W        W18295  17.708  12.874   1.453 -0.1243  0.1079  0.0089
 2222W        W18296   3.896  18.035  12.359  0.2287  0.1270  0.2583
 2223W        W18297   5.400   5.400   2.186  0.1428 -0.0003 -0.0916
 2224W        W18298   7.172   0.663   3.286 -0.6083  0.2072 -0.1256
 2225W        W18299   0.659  11.722  11.629 -0.4116  0.0865 -0.0726
 2226W        W18300  17.596  15.605  10.262 -0.1922 -0.2491  0.0134
 2227W        W18301  18.361  13.476   3.592 -0.1013 -0.2743 -0.0359
 2228W        W18302   7.540  17.770  13.302 -0.1705  0.2605 -0.0370
 2229W        W18303  17.317   0.796   3.841  0.0957  0.0767 -0.1690
 2230W        W18304  11.714  11.022  12.019 -0.0080 -0.1320 -0.0139
 2231W        W18305   3.028   6.482  14.082 -0.0454  0.1497 -0.1714
 2232W        W18306  16.857  15.110   2.012  0.1313  0.2456  0.0113
 2233W        W18307  16.796  18.520   5.059 -0.0183 -0.0724  0.2645
 2234W        W18308   3.040   1.883  13.100 -0.3413 -0.0768  0.2022
 2235W        W18309   2.685   8.610  13.869 -0.3024  0.2657  0.0859
 2236W        W18310  10.841   0.923   0.178  0.0265 -0.0546 -0.0555
 2237W        W18311  14.469   3.467   3.531  0.1059  0.1190 -0.1711
 2238W        W18312   8.690   6.043   4.208  0.0153 -0.0206  0.6893
 2239W        W18313   0.182   4.761   0.141 -0.0457 -0.2783 -0.0495
 2240W        W18314  16.960  11.935   0.169 -0.1514 -0.1371 -0.0008
 2241W        W18315  12.596  17.922   1.725 -0.4393 -0.2083 -0.0717
 2242W        W18316   7.140  16.565   5.253 -0.1754 -0.0018 -0.0420
 2243W        W18317  15.380  18.241   0.207  0.0618  0.3775 -0.1702
 2244W        W18318  18.455   8.734   0.422 -0.2075 -0.1650  0.1201
 2245W        W18319   8.816   2.832   3.012 -0.0609 -0.2034 -0.1873
 2246W        W18320   2.696  11.457   4.439 -0.2238  0.3144 -0.0493
 2247W        W18321  14.297  12.827   6.043  0.2754  0.0851  0.0039
 2248W        W18322   6.521   3.976   4.958  0.0154  0.2345  0.2496
 2249W        W18323  11.766  13.475   2.878  0.2907  0.0592  0.0330
 2250W        W18324  12.617   2.708  12.855  0.0461 -0.0600 -0.1710
 2251W        W18325  16.845  14.817   4.045  0.1420  0.2579  0.1141
 2252W        W18326   9.231   5.153  13.685 -0.0185 -0.1711  0.1087
 2253W        W18327   0.885   1.769  13.835 -0.1429  0.0617 -0.1270
 2254W        W18328  16.257   2.170  10.675 -0.0301 -0.0606  0.3035
 2255W        W18329   6.127  11.418   0.449  0.1394  0.0642  0.1231
 2256W        W18330  18.174  18.301   4.457  0.0698 -0.2795 -0.0819
 2257W        W18331   8.690  15.189  15.564 -0.1067 -0.1259 -0.0136
 2258W        W18332  16.436  17.345   5.286 -0.2295  0.0578  0.1044
 2259W        W18333  15.602  10.775   0.344  0.0939 -0.2877  0.4657
 2260W        W18334   4.983   5.536   2.974  0.2274  0.0483 -0.1293
 2261W        W18335  13.730   7.640  15.392 -0.2693 -0.2061 -0.0635
 2262W        W18336  13.320   0.136   1.803  0.0241 -0.0977  0.0395
 2263W        W18337   1.359  16.398  12.105  0.2634  0.4806 -0.0075
 2264W        W18338  12.484   0.373   4.663 -0.3957 -0.0524  0.1061
 2265W        W18339   9.077   4.736   4.591  0.1368 -0.1295  0.1954
 2266W        W18340  14.031  13.351  11.140  0.0417 -0.2933  0.0271
 2267W        W18341  14.407   3.799   0.811 -0.1485 -0.3588 -0.1256
 2268W        W18342  16.835   2.464  15.666 -0.0005 -0.1497 -0.2316
 2269W        W18343   6.024   1.887  12.351  0.0055 -0.0014  0.1073
 2270W        W18344  13.101   6.389  12.439  0.0630  0.2869  0.2884
 2271W        W18345   9.314   8.744   2.069 -0.3191 -0.0505  0.0716
 2272W        W18346  11.410  16.790   4.952 -0.0105 -0.1485  0.2622
 2273W        W18347  10.748  18.428  12.727  0.4195  0.0907 -0.0422
 2274W        W18348  11.692   1.926  11.869 -0.2142 -0.0349  0.0992
 2275W        W18349  10.320   3.951   3.329  0.0984 -0.0087  0.1778
 2276W        W18350  14.141  18.321   5.116 -0.0609 -0.0121 -0.1632
 2277W        W18351  10.218   2.684  15.446  0.0998 -0.1898 -0.0347
 2278W        W18352   5.557   7.622   2.991 -0.2078  0.0064 -0.0195
 2279W        W18353  14.004  16.895   4.741  0.0385 -0.1182  0.3985
 2280W        W18354   8.329  13.350  11.521  0.0673  0.0537 -0.0039
 2281W        W18355   9.908  10.083  13.860 -0.0920 -0.0992  0.1494
 2282W        W18356  16.368  11.349  11.911  0.0802  0.1026  0.2921
 2283W        W18357  11.530   5.651   4.642 -0.0128 -0.1265 -0.0179
 2284W        W18358   6.931   7.835  11.174  0.1166 -0.0454 -0.1008
 2285W        W18359   7.009  15.096   2.820 -0.1688 -0.2382  0.1763
 2286W        W18360   3.476  16.093  11.363  0.1175 -0.1103 -0.0255
 2287W        W18361   4.054  12.478   3.381 -0.0367 -0.2174 -0.4157
 2288W        W18362   6.015  17.668  12.802  0.3127  0.1922 -0.0428
 2289W        W18363  17.465   8.034   4.685  0.2038  0.3474 -0.2968
 2290W        W18364  16.803  16.350  15.846  0.0964 -0.1158  0.1591
 2291W        W18365   4.432   1.119   3.996 -0.2703  0.2987  0.1906
 2292W        W18366  17.404  10.564   5.207  0.1402 -0.0990  0.0879
 2293W        W18367   5.755  14.038  15.596 -0.2177  0.0002  0.1759
 2294W        W18368  15.962   3.564   9.562 -0.2091 -0.1272 -0.2140
 2295W        W18369  12.291   9.765  14.276 -0.0617 -0.3110 -0.2838
 2296W        W18370   6.852   1.540   3.643  0.3372 -0.2091 -0.2736
 2297W        W18371  11.753   6.033  11.477  0.0819 -0.1088  0.1331
 2298W        W18372   2.649   0.933  14.926  0.0465 -0.0282 -0.0887
 2299W        W18373   5.230   1.330   4.580 -0.0041 -0.1261 -0.0738
 2300W        W18374  13.105   7.817  13.625 -0.0873 -0.0334 -0.2392
 2301W        W18375   8.622  15.731   2.247  0.2115  0.1037 -0.0392
 2302W        W18376   2.722   5.715   0.372  0.1084  0.3483 -0.3962
 2303W        W18377  11.937   0.709  11.521  0.0680 -0.3061 -0.1260
 2304W        W18378   4.030  15.816  14.371 -0.2640  0.2625 -0.2122
 2305W        W18379   1.916   3.332  11.277  0.1101  0.1245  0.0795
 2306W        W18380  12.771  16.155   3.904 -0.3469 -0.1750  0.1179
 2307W        W18381  13.170   2.713   5.049 -0.0729  0.0724  0.2328
 2308W        W18382   4.057   5.735   2.469  0.0345 -0.1644 -0.3748
 2309W        W18383   5.330  10.940   1.851  0.2465  0.1212  0.1098
 2310W        W18384  17.037  11.210   4.677  0.0553 -0.0225  0.0257
 2311W        W18385  18.064   1.466   3.174 -0.0598  0.2262  0.0973
 2312W        W18386  14.966  13.867  14.858 -0.0420 -0.1356  0.0000
 2313W        W18387  16.602  10.068  15.166 -0.2409  0.0417  0.0550
 2314W        W18388   9.958  13.145   5.054  0.1804  0.2809 -0.3386
 2315W        W18389  14.228   3.437   4.092  0.1786  0.2555  0.3550
 2316W        W18390   8.519  17.441  10.346 -0.1792  0.0623 -0.1537
 2317W        W18391  16.638   8.389   1.775  0.0755  0.0248  0.1810
 2318W        W18392  14.471  10.760   5.264  0.2648 -0.6294 -0.3504
 2319W        W18393   0.903   0.870   5.465  0.1643  0.0129  0.1917
 2320W        W18394   3.655   1.724  14.939  0.0358 -0.4987 -0.1968
 2321W        W18395   1.965  11.867   4.603 -0.0329 -0.1916 -0.3030
 2322W        W18396  17.581  12.307  15.490  0.1109  0.0435  0.0723
 2323W        W18397  17.923  17.359   2.041 -0.2844  0.0525 -0.2128
 2324W        W18398  15.371  14.973   4.395 -0.1238 -0.0051 -0.2611
 2325W        W18399   4.750  10.487   4.360 -0.0221 -0.0365 -0.0136
 2326W        W18400   1.758   8.689  13.563  0.1184  0.1836  0.3622
 2327W        W18401  13.067   5.858  14.947 -0.2919 -0.1165  0.4497
 2328W        W18402   3.441   2.924  12.174 -0.3139 -0.3363 -0.1005
 2329W        W18403  12.592  11.460  15.990  0.1891 -0.1913 -0.0800
 2330W        W18404   5.278   8.101   2.918 -0.2359  0.1179 -0.0456
 2331W        W18405   4.817   6.517   2.608  0.1628 -0.2554 -0.1582
 2332W        W18406  12.861  15.126  15.037 -0.1855 -0.3124 -0.2427
 2333W        W18407  13.891   7.152   2.157  0.0736  0.0485  0.0094
 2334W        W18408   4.446   3.590   1.772 -0.1353  0.1863 -0.4429
 2335W        W18409   9.652  16.745   3.512 -0.1207 -0.2477  0.0693
 2336W        W18410   5.845   7.609  12.669  0.0079  0.0071 -0.0677
 2337W        W18411  13.898  16.522   2.035 -0.1629 -0.0624  0.2399
 2338W        W18412  11.358  12.149  11.167  0.0327  0.1761 -0.2731
 2339W        W18413  11.559  16.413  11.269  0.1473 -0.0072  0.1448
 2340W        W18414   7.187   7.669  13.288 -0.2665  0.2613 -0.1871
 2341W        W18415   2.463  15.796   5.277  0.1949 -0.1231  0.0662
 2342W        W18416   0.161   7.601  12.522 -0.3399  0.0098  0.4344
 2343W        W18417  10.611  12.586   2.114 -0.4868  0.2048  0.1045
 2344W        W18418   9.525   6.955  14.954 -0.2846  0.1703 -0.0840
 2345W        W18419  16.710   4.078  13.732  0.0919 -0.1403  0.0601
 2346W        W18420   2.324  14.219   2.364 -0.0625 -0.0883  0.3433
 2347W        W18421  12.157   8.119  14.118  0.0156  0.4927  0.2145
 2348W        W18422   9.783  15.418  12.225  0.0040 -0.2005 -0.0293
 2349W        W18423   7.153  11.889   3.858  0.4601  0.0991  0.1608
 2350W        W18424  17.327   6.297  15.558  0.1248  0.4649 -0.0246
 2351W        W18425  18.288   5.563   4.105 -0.0377  0.1341 -0.1609
 2352W        W18426   5.580   7.358  15.917 -0.0263  0.0966  0.3053
 2353W        W18427   0.259  12.203   1.441 -0.0001 -0.0436  0.0289
 2354W        W18428   5.855   6.587  14.810  0.1275 -0.3686 -0.2198
 2355W        W18429  18.544  12.486  15.376 -0.0184 -0.1065 -0.1224
 2356W        W18430  17.618   0.113  15.433  0.0909  0.0880  0.1443
 2357W        W18431   8.460   0.894  13.924 -0.0264 -0.0551  0.1541
 2358W        W18432  15.544   7.329   1.565 -0.1897 -0.1199 -0.2581
 2359W        W18433   7.862  12.935  13.795 -0.0586 -0.1190 -0.0502
 2360W        W18434   7.775  17.018  15.271 -0.0057 -0.0032 -0.0418
 2361W        W18435   9.793   0.526   2.292  0.3030 -0.0225 -0.0601
 2362W        W18436   8.081  16.796   4.318  0.1183 -0.0366 -0.1459
 2363W        W18437   1.236  12.244  15.970  0.0051 -0.1553 -0.2267
 2364W        W18438   7.982   0.666  12.269  0.0152  0.2080  0.1432
 2365W        W18439   4.069  10.318  15.922 -0.1442 -0.2673  0.0756
 2366W        W18440  12.709   6.945  13.957 -0.3736  0.1286  0.0745
 2367W        W18441   0.634   2.720  11.217 -0.2049  0.1742  0.2310
 2368W        W18442   5.726   7.761  11.709 -0.1065  0.0487 -0.0377
 2369W        W18443   8.678  10.901  15.253  0.0140 -0.2410  0.2348
 2370W        W18444   3.945   2.474   6.275 -0.1171 -0.0678  0.1126
 2371W        W18445  16.686   1.328   0.257  0.2969  0.3365  0.0956
 2372W        W18446  12.044  15.443   4.059 -0.2491  0.3954  0.1569
 2373W        W18447  11.155  12.862   0.983 -0.0291  0.1342 -0.0626
 2374W        W18448  16.590  16.195  13.437  0.0258 -0.0691  0.0105
 2375W        W18449   5.265   4.279   0.659 -0.2323  0.2150  0.1665
 2376W        W18450   6.374   0.967   0.578  0.0426  0.0150 -0.0753
 2377W        W18451   0.677  12.460   3.737 -0.2478 -0.1651  0.0462
 2378W        W18452  14.183   3.086  10.563  0.0973  0.1863  0.3523
 2379W        W18453  12.023  15.186   2.966 -0.0488 -0.2704  0.0170
 2380W        W18454  17.246   2.548   3.302  0.0908 -0.3077  0.0106
 2381W        W18455  14.075   8.717   1.857  0.2477 -0.1679 -0.0794
 2382W        W18456   9.054   0.071   3.832  0.0121 -0.2765 -0.0507
 2383W        W18457  13.278   8.427  14.931 -0.1475  0.0533 -0.2301
 2384W        W18458   3.205   9.600   1.949 -0.1254  0.0638  0.0495
 2385W        W18459   5.419   2.613   4.239  0.4130 -0.0918  0.0541
 2386W        W18460  17.602  14.290  11.900 -0.1842  0.0659  0.1539
 2387W        W18461  17.787   1.819   0.902 -0.2260 -0.2014  0.0175
 2388W        W18462   6.527  13.100   4.407  0.1072  0.0394 -0.1239
 2389W        W18463  18.566   6.057  13.547 -0.0343  0.0090 -0.1173
 2390W        W18464  14.726  14.003   1.925  0.3397  0.1118  0.3731
 2391W        W18465   5.933   9.152   5.046 -0.3636  0.1111 -0.3227
 2392W        W18466  13.032  10.101  14.605 -0.2192  0.1410 -0.0856
 2393W        W18467   1.764   5.707   1.164 -0.2029  0.1516 -0.0848
 2394W        W18468  16.293   3.831  11.199 -0.3128 -0.0490  0.0865
 2395W        W18469  12.019  10.292   3.023 -0.1036 -0.1116  0.0030
 2396W        W18470  16.983   5.555  12.164 -0.1296 -0.0544 -0.2505
 2397W        W18471   8.941  18.314  15.657 -0.2312  0.0265 -0.1652
 2398W        W18472   8.831   2.124  15.011  0.1945 -0.3117 -0.1309
 2399W        W18473  12.106  14.576   2.527  0.1099  0.1217 -0.2735
 2400W        W18474  13.270  10.366  12.094  0.0128 -0.3212  0.0187
 2401W        W18475   9.339  13.499   0.738 -0.1037  0.2151  0.2353
 2402W        W18476  16.275   5.638  14.328 -0.0323  0.3390 -0.0023
 2403W        W18477  17.744  15.433   4.486  0.0857 -0.0480  0.0612
 2404W        W18478  16.656  15.482  15.887 -0.1086 -0.0234 -0.4478
 2405W        W18479   7.588  17.640   4.617 -0.1560  0.2238  0.1448
 2406W        W18480  10.452  12.106   2.080 -0.1541 -0.0215 -0.0838
 2407W        W18481   0.737   4.212  12.274  0.4894 -0.4075 -0.0758
 2408W        W18482   6.205  12.375   1.304 -0.5727  0.2230  0.2546
 2409W        W18483   2.219  17.371  11.975 -0.0864  0.1736 -0.2469
 2410W        W18484   2.971   5.643   4.841  0.0012 -0.1222  0.0760
 2411W        W18485   3.878   6.653   5.411 -0.0411  0.2528  0.1703
 2412W        W18486   5.782  16.479   0.044 -0.0419 -0.1641 -0.1037
 2413W        W18487   0.106   3.876   5.379  0.1089 -0.2291 -0.1298
 2414W        W18488   1.914  15.954  12.697  0.2516 -0.0159  0.0735
 2415W        W18489   7.520  18.506   5.263  0.2442 -0.1129 -0.1880
 2416W        W18490  12.316  15.161   1.331  0.1225  0.1077 -0.0332
 2417W        W18491  17.929   4.466   3.785 -0.1066  0.0367 -0.0663
 2418W        W18492  10.033  12.869  11.606  0.0912 -0.2566  0.2458
 2419W        W18493   7.949  15.954  13.245 -0.4450  0.1253  0.2583
 2420W        W18494  17.211   3.475  14.730  0.1447 -0.0699  0.2184
 2421W        W18495  15.285   3.836   0.491  0.1590 -0.1017 -0.1429
 2422W        W18496  16.513  12.781  15.186 -0.2298 -0.3323 -0.2818
 2423W        W18497  12.951  15.945  12.655  0.2233  0.0331 -0.3565
 2424W        W18498   5.139  18.492  13.846 -0.0251  0.1219  0.2054
 2425W        W18499   8.912  11.530   3.838 -0.1082 -0.0042 -0.3873
 2426W        W18500  13.278   0.229  15.730  0.3098  0.1891 -0.2018
 2427W        W18501  10.573  18.486   0.189  0.0671  0.1793  0.1121
 2428W        W18502   0.159  15.711  11.788 -0.2380  0.1721  0.1804
 2429W        W18503   6.645  14.831   2.417  0.1891 -0.0874 -0.3090
 2430W        W18504  12.546  17.101   5.087  0.3459 -0.6468 -0.2402
 2431W        W18505  13.939  10.962  11.921  0.1210  0.2441  0.3983
 2432W        W18506  16.960  11.104  15.886 -0.0683 -0.3340  0.1956
 2433W        W18507  14.821   7.038  11.887  0.0281 -0.1286  0.0325
 2434W        W18508   1.743   6.539   0.438  0.0562  0.0741  0.1740
 2435W        W18509   6.890  15.984   2.286  0.1116  0.0117 -0.0162
 2436W        W18510  13.087  15.020   2.687 -0.0162 -0.0308 -0.1755
 2437W        W18511   2.023  14.632  14.788  0.3406  0.2091  0.1771
 2438W        W18512  14.717   0.621   2.756  0.0118 -0.1708 -0.1559
 2439W        W18513  15.378   9.276   0.959  0.0677  0.0924  0.2386
 2440W        W18514  18.294  18.351  14.451  0.1205 -0.0712  0.2248
 2441W        W18515   8.278   3.454   3.195  0.1369  0.0458  0.1560
 2442W        W18516  14.138  11.282  14.650  0.3020 -0.1358 -0.2061
 2443W        W18517  14.771  17.247   5.236  0.1583 -0.0402 -0.2587
 2444W        W18518   0.462   9.792   2.130 -0.1184  0.0544  0.0672
 2445W        W18519  15.109  18.293   3.175  0.0361  0.4392  0.0298
 2446W        W18520  11.290   9.524   3.551 -0.0784 -0.1087 -0.2476
 2447W        W18521  11.392  14.007   2.171 -0.0873 -0.1730  0.0841
 2448W        W18522  15.745   0.161  11.760 -0.0685 -0.0647 -0.0320
 2449W        W18523   3.947  16.845  12.667 -0.1685  0.1213  0.1987
 2450W        W18524   0.165   6.112   0.393  0.0569  0.1246  0.1012
 2451W        W18525   1.106  17.870   1.144  0.2749 -0.0125  0.0317
 2452W        W18526   2.816   8.568   5.749 -0.1070 -0.0330 -0.3011
 2453W        W18527   7.199   4.331  14.114 -0.3323  0.2985 -0.1296
 2454W        W18528   2.878   8.807   0.051  0.0704 -0.1446 -0.0300
 2455W        W18529   3.312   4.402  13.766 -0.1210 -0.0788  0.0799
 2456W        W18530   7.866  11.880   0.697 -0.2154  0.0153  0.1897
 2457W        W18531   9.557  12.508   1.132 -0.1275  0.0390 -0.0141
 2458W        W18532  10.099  13.280  14.065  0.1510 -0.0731 -0.3211
 2459W        W18533   3.142  17.921  14.344  0.0487 -0.3083 -0.3314
 2460W        W18534   8.341   7.781   2.297 -0.0646 -0.4156  0.2072
 2461W        W18535  11.284  13.804  11.680  0.0165 -0.1396  0.1086
 2462W        W18536  15.288  14.594  11.506  0.1227  0.1191  0.1060
 2463W        W18537  12.569   6.570   0.417  0.0818  0.1613 -0.1779
 2464W        W18538   6.464  14.587   2.801  0.0518 -0.0283 -0.0454
 2465W        W18539  11.155  16.340  15.006  0.0341 -0.2305 -0.1123
 2466W        W18540   9.850   4.585   5.076 -0.0811 -0.0367 -0.3229
 2467W        W18541   6.899  10.339   3.380  0.0696 -0.0904 -0.0968
 2468W        W18542   0.526   0.061  10.778 -0.1824  0.1445  0.0797
 2469W        W18543  11.028   6.654   2.381 -0.2931 -0.2301  0.2572
 2470W        W18544  16.768  11.521   5.323  0.1846 -0.0604 -0.0014
 2471W        W18545   4.747   4.611  12.615 -0.5409  0.1846 -0.2026
 2472W        W18546  16.971  16.671  11.330 -0.0396 -0.0319 -0.0484
 2473W        W18547   7.970   1.353   4.843  0.2534  0.5369  0.2697
 2474W        W18548  16.875  18.237  15.630  0.1374 -0.0692  0.0526
 2475W        W18549   6.444   2.165   0.421  0.1108 -0.1865  0.0104
 2476W        W18550  11.814   4.303  12.089  0.1597 -0.0991  0.1624
 2477W        W18551  15.313  17.396   5.173 -0.0079 -0.1372 -0.1036
 2478W        W18552   0.857   0.700   2.510 -0.0345 -0.0827  0.3697
 2479W        W18553   3.717  11.103  10.178 -0.0290  0.3277 -0.1178
 2480W        W18554  10.877  10.597   0.094  0.3181  0.1517 -0.0487
 2481W        W18555  18.051   9.953  14.150 -0.1170 -0.0170  0.0094
 2482W        W18556   3.674   3.526  15.687  0.2795  0.0697  0.2093
 2483W        W18557   0.399   0.702   3.960  0.4069 -0.0348  0.0773
 2484W        W18558  13.496   6.062  14.160  0.1990 -0.1209 -0.3026
 2485W        W18559   8.754   6.524   5.498 -0.1080  0.0461  0.3209
 2486W        W18560   4.523  11.399   0.309  0.1297  0.1139 -0.1281
 2487W        W18561   4.084  17.917  14.972  0.2274 -0.2926 -0.2601
 2488W        W18562  10.004  12.808  15.639 -0.1123  0.1484 -0.2290
 2489W        W18563   4.381  11.361  14.202 -0.0713 -0.1605 -0.2402
 2490W        W18564   7.127   3.174   4.410  0.0656 -0.0578 -0.1510
 2491W        W18565   9.286   2.181  11.515  0.0684  0.1253  0.1787
 2492W        W18566   5.328   3.008   2.761 -0.0782 -0.0235 -0.0349
 2493W        W18567   6.753   4.809   5.854 -0.1773 -0.0057 -0.0392
 2494W        W18568  16.335   7.721  13.501  0.1066  0.2681 -0.0095
 2495W        W18569  17.285  16.525   1.983 -0.2701 -0.2056  0.3410
 2496W        W18570  10.890  14.097   3.837 -0.0987 -0.0369  0.1415
 2497W        W18571  10.374   1.893  13.860 -0.1998  0.1130  0.1117
 2498W        W18572  10.940   5.273  11.841 -0.2030  0.0139  0.0870
 2499W        W18573   6.187  12.321  15.658  0.3254 -0.1316 -0.2594
 2500W        W18574   3.303   8.767   4.359 -0.0860  0.0311 -0.0388
 2501W        W18575  14.436  12.430   2.313 -0.1002 -0.0664 -0.1384
 2502W        W18576   3.541   3.927  15.991  0.1824  0.3501  0.1580
 2503W        W18577   6.842   5.974  11.551 -0.0616  0.1134  0.3617
 2504W        W18578   6.147  15.017   1.533  0.2234  0.0944  0.0467
 2505W        W18579   2.346   6.175   1.830  0.3323  0.0016  0.0871
 2506W        W18580  18.437   8.646   2.514 -0.0279 -0.0945  0.0786
 2507W        W18581  18.243   8.729   3.706 -0.1469  0.3039  0.2623
 2508W        W18582  11.370  12.146   1.511 -0.2387  0.1986  0.2837
 2509W        W18583  15.844  14.776   6.150  0.2373  0.2425 -0.2136
 2510W        W18584   3.953   3.142   9.998  0.1819  0.1027  0.0327
 2511W        W18585  14.796   7.672   2.441  0.0816  0.2538 -0.2142
 2512W        W18586   8.446  10.411   1.943 -0.4271  0.2657  0.1269
 2513W        W18587  14.253   1.831   2.540  0.0889  0.2734 -0.1367
 2514W        W18588  10.951  16.777   4.226  0.1302 -0.1311  0.0095
 2515W        W18589   3.351   1.456   0.776 -0.0283  0.3219 -0.0845
 2516W        W18590   3.547  15.033  12.698  0.0517  0.2229 -0.0408
 2517W        W18591  15.274  12.874   4.133 -0.2289 -0.1846  0.0026
 2518W        W18592   0.979   1.878   0.893  0.1064  0.0380  0.1981
 2519W        W18593   2.217   0.876   5.077 -0.3464 -0.2237  0.0790
 2520W        W18594  15.012  17.690   1.047 -0.0139  0.3036  0.2152
 2521W        W18595  18.055   9.067  14.572 -0.2249  0.2467 -0.3599
 2522W        W18596   8.586  16.519  15.825  0.1397 -0.0021 -0.0784
 2523W        W18597   3.771  15.264   2.791 -0.2221  0.2227  0.2130
 2524W        W18598  15.466   4.625   4.419  0.1197 -0.1734  0.0719
 2525W        W18599  10.771  16.422   1.730 -0.1898  0.2920  0.1863
 2526W        W18600   1.965   2.104   0.860  0.1087 -0.1452 -0.0567
 2527W        W18601   0.655   3.198  12.267  0.0705 -0.1436  0.1119
 2528W        W18602  15.307   9.037  15.118 -0.0062  0.2434  0.3763
 2529W        W18603   5.033   6.394  14.869  0.1128 -0.0783  0.2060
 2530W        W18604  14.781  16.198   2.303 -0.1278  0.0464  0.2246
 2531W        W18605  16.095  18.291   1.842 -0.4898  0.0674 -0.1231
 2532W        W18606  11.870   4.542   3.866 -0.0877 -0.0690  0.1123
 2533W        W18607  12.735  14.266   1.772  0.0958  0.3298 -0.1895
 2534W        W18608   2.168  16.935   2.413  0.0803 -0.0208 -0.0217
 2535W        W18609   0.679  15.717  11.881  0.1389 -0.1131 -0.1168
 2536W        W18610  12.694   2.368   2.931 -0.0531 -0.0141  0.3097
 2537W        W18611  10.142   7.357  14.426 -0.1238  0.0888  0.3935
 2538W        W18612   8.153   3.516   5.067  0.0111 -0.0298 -0.1488
 2539W        W18613  13.544  17.259  15.485  0.2445 -0.0999 -0.0023
 2540W        W18614  17.118  10.765  11.762 -0.0542  0.2579  0.2843
 2541W        W18615   2.727   1.061   2.463 -0.2238 -0.0811 -0.0039
 2542W        W18616   0.288  12.120  11.468 -0.1395  0.1471  0.1224
 2543W        W18617  11.676  18.209   4.828 -0.2782  0.2487  0.1542
 2544W        W18618   8.864   7.301   4.420  0.2543  0.4182  0.1448
 2545W        W18619  17.701   7.667  12.145  0.1100  0.1371 -0.3478
 2546W        W18620  12.487   5.477   4.643  0.1247  0.1902 -0.0659
 2547W        W18621   3.568   9.522  13.230 -0.0200 -0.0033  0.0074
 2548W        W18622  15.136   5.085   3.519 -0.1671  0.2736 -0.2839
 2549W        W18623  16.101  15.924  12.220 -0.2155 -0.0959  0.2575
 2550W        W18624   5.377   9.145   0.467 -0.1328  0.0278  0.0583
 2551W        W18625   1.539   8.859   5.827  0.2051 -0.1700 -0.1472
 2552W        W18626   6.264   5.697  14.103  0.2458 -0.0964  0.0167
 2553W        W18627   0.492  17.830   5.759  0.0210 -0.2302  0.3254
 2554W        W18628  17.832  17.854   5.143  0.0262  0.1507  0.1567
 2555W        W18629  13.719  12.908   4.447 -0.0518 -0.3555 -0.0027
 2556W        W18630   1.655  16.042  15.822  0.2425  0.4376 -0.0567
 2557W        W18631   7.931   2.952  13.247  0.1458  0.1574  0.2312
 2558W        W18632   9.980  13.202   5.737  0.1818 -0.0126 -0.0959
 2559W        W18633  12.362  13.896   1.905  0.0241  0.4524 -0.1647
 2560W        W18634   5.696   5.759   0.600  0.2091 -0.2657  0.1663
 2561W        W18635   8.962   6.586  13.149 -0.1141 -0.2113  0.1065
 2562W        W18636   6.747   6.867   1.976  0.0152 -0.0722 -0.1619
 2563W        W18637  17.981   6.848  14.715  0.2725 -0.0842  0.4473
 2564W        W18638  18.198   4.538  15.912 -0.2532 -0.0693 -0.0757
 2565W        W18639   6.691   5.818  13.861 -0.2265 -0.0784 -0.1001
 2566W        W18640  17.702  12.043  13.459  0.2164  0.3432 -0.0394
 2567W        W18641   8.430  10.061  10.150 -0.1657 -0.1047 -0.0917
 2568W        W18642   9.173  10.414  13.044  0.1514 -0.0777  0.0691
 2569W        W18643  10.226   9.945  15.587 -0.2899 -0.3228 -0.1350
 2570W        W18644   1.409   0.921   5.004  0.0095  0.0076 -0.2434
 2571W        W18645   6.573  16.267  12.955  0.0547 -0.2994 -0.0728
 2572W        W18646   3.960  13.005   6.094 -0.2726  0.2055  0.1993
 2573W        W18647  15.940   5.761  11.578 -0.5038 -0.0669 -0.1584
 2574W        W18648  11.453  11.312   4.631 -0.3706 -0.2012 -0.2690
 2575W        W18649   3.985  18.315  13.100  0.1166 -0.3943 -0.0815
 2576W        W18650  12.546   4.356   0.351  0.0609 -0.2700 -0.1835
 2577W        W18651  17.593   4.154   5.157  0.0499 -0.0785 -0.0129
 2578W        W18652  10.437  15.528  11.429  0.2118  0.0687 -0.1685
 2579W        W18653  13.362  17.781   2.298  0.0406  0.0996  0.2156
 2580W        W18654   1.561  15.811   3.932 -0.1427 -0.1848 -0.0988
 2581W        W18655   5.249   4.485   3.710  0.1873  0.0422 -0.0285
 2582W        W18656  10.371  18.279   1.352  0.0427  0.1776  0.1178
 2583W        W18657   4.772  15.732  10.835 -0.2401 -0.2232 -0.3032
 2584W        W18658  18.151  13.681  14.065  0.0562 -0.0401  0.0787
 2585W        W18659   0.249   8.000   3.833 -0.1537  0.2155  0.1150
 2586W        W18660  10.979   1.172  15.790  0.1718  0.2553  0.0802
 2587W        W18661  15.332  11.892   4.378  0.0946  0.2291  0.2171
 2588W        W18662  18.332  14.222   4.964  0.0548  0.3552 -0.0968
 2589W        W18663   9.628   6.940  15.953 -0.2449 -0.3177  0.2098
 2590W        W18664   3.530  16.424  10.070  0.1296  0.3163 -0.5239
 2591W        W18665  10.445   1.975   3.937 -0.1365 -0.3510  0.0049
 2592W        W18666  16.260  15.372  14.989  0.3525  0.0514 -0.0520
 2593W        W18667  15.142   9.206  11.900  0.0448 -0.0268 -0.0672
 2594W        W18668  17.286   8.360   1.669  0.1537 -0.2643 -0.2625
 2595W        W18669  11.934   6.490  13.449  0.4598  0.0915 -0.6740
 2596W        W18670   7.552   5.427  11.481 -0.2205  0.0136 -0.0123
 2597W        W18671   2.362  12.546   2.087 -0.0137 -0.0545  0.1938
 2598W        W18672  10.178  17.944  11.594  0.0237 -0.2626 -0.1169
 2599W        W18673   7.645   9.771   1.319 -0.0271 -0.1647  0.2645
 2600W        W18674  13.438   7.574   4.171  0.4697 -0.1240 -0.3866
 2601W        W18675  14.193  14.243   3.274 -0.1779 -0.2207 -0.0306
 2602W        W18676  10.636  12.324   4.603 -0.0200  0.1103  0.0921
 2603W        W18677   1.978  10.270   2.761  0.1159 -0.0273 -0.0158
 2604W        W18678   0.915  18.131   4.431  0.2019  0.3085  0.2000
 2605W        W18679  15.563   0.115   0.465 -0.0602  0.3419 -0.0346
 2606W        W18680   4.314   5.467  15.394 -0.2067  0.3482  0.0293
 2607W        W18681  11.045   2.020  11.118  0.2727  0.3950  0.1245
 2608W        W18682   0.589  13.558  15.818  0.0178  0.1141 -0.1093
 2609W        W18683  12.612  12.282  13.490  0.1030  0.0553  0.1515
 2610W        W18684  11.986   5.446   3.103 -0.2586  0.0520  0.0618
 2611W        W18685   1.694  15.186   2.112 -0.2422  0.0458  0.0401
 2612W        W18686   8.939   8.368   0.166 -0.0124 -0.1498  0.5067
 2613W        W18687  12.826   8.556   2.598  0.0105  0.3348 -0.1647
 2614W        W18688  10.659  16.602   3.072 -0.1192  0.0890  0.0609
 2615W        W18689   0.468  14.394   0.815 -0.2595 -0.0099  0.4078
 2616W        W18690   9.048  17.543   3.410  0.2609  0.5773  0.1019
 2617W        W18691   9.884  14.424   5.305 -0.0143  0.0478 -0.2154
 2618W        W18692  14.849  17.688   5.599  0.2653 -0.2071  0.3907
 2619W        W18693  13.976  13.269   2.463  0.1925 -0.4037 -0.1091
 2620W        W18694   2.994   2.930   3.335 -0.1462  0.1095 -0.0219
 2621W        W18695   8.965  10.402  15.442  0.0026 -0.2814 -0.1367
 2622W        W18696   7.551   9.862  14.548  0.0525  0.1715 -0.1074
 2623W        W18697  16.071  14.688  16.016  0.0916 -0.2631 -0.1838
 2624W        W18698  16.941  13.395   2.863  0.0823  0.0745  0.0537
 2625W        W18699  15.953   3.852  10.812  0.4934  0.0564  0.1981
 2626W        W18700  15.122  16.037  13.320 -0.0016 -0.1523 -0.3022
 2627W        W18701  12.021  17.088  13.390 -0.2487 -0.1789 -0.0759
 2628W        W18702  16.067   7.971   4.477 -0.0768 -0.0277 -0.0092
 2629W        W18703  15.646   8.133  13.710 -0.1925 -0.2051  0.0644
 2630W        W18704   7.952   7.523   1.522  0.1068 -0.5287  0.0898
 2631W        W18705   5.067  17.259   3.641 -0.2082  0.1669 -0.0074
 2632W        W18706  14.307  11.747  15.059  0.1187 -0.0110  0.4447
 2633W        W18707  17.574   3.631   5.456 -0.3130 -0.2185 -0.1756
 2634W        W18708   0.848   8.791   0.569 -0.0053  0.0253  0.0121
 2635W        W18709   0.775   3.649   1.845  0.1195  0.2939 -0.2016
 2636W        W18710   4.647  18.419   3.335  0.0256  0.0084 -0.1256
 2637W        W18711   4.937   1.242  14.211  0.0133  0.2808  0.1432
 2638W        W18712  17.370   6.293  14.153 -0.1889 -0.0139 -0.0461
 2639W        W18713  16.431   9.112  13.373  0.3683  0.2589  0.3975
 2640W        W18714   2.435   0.318  13.366 -0.0011 -0.3233  0.0630
 2641W        W18715  17.471   5.804  15.628  0.1654  0.3521  0.0013
 2642W        W18716  11.506  14.280  13.521 -0.1846 -0.1947 -0.2254
 2643W        W18717  15.010   2.349  15.456 -0.1129  0.1535 -0.0402
 2644W        W18718  12.459  18.094  12.075 -0.0775  0.5817  0.1294
 2645W        W18719  18.067  14.636  13.494  0.0580  0.0923  0.0905
 2646W        W18720   6.167   1.802  12.818  0.0070 -0.0743 -0.1537
 2647W        W18721   1.634   8.132   2.531  0.1478 -0.1226 -0.0848
 2648W        W18722  16.711  12.703  12.918  0.0914 -0.1083 -0.0715
 2649W        W18723  13.635   8.547  13.516 -0.0406  0.1799  0.0452
 2650W        W18724  10.875   1.799   1.152  0.0125 -0.3506 -0.1531
 2651W        W18725  17.734  15.213   1.704 -0.1924  0.1779  0.3040
 2652W        W18726  17.407   1.778  13.768 -0.0820 -0.2240  0.0706
 2653W        W18727   8.119  15.222   5.864 -0.2232  0.0998  0.3499
 2654W        W18728  11.219  16.396   4.374  0.1591  0.0595 -0.2019
 2655W        W18729  18.084   9.928   0.342 -0.2149 -0.1096 -0.2077
 2656W        W18730   8.361   3.018  14.977 -0.1157  0.3459 -0.0761
 2657W        W18731   1.394  12.246  15.132 -0.1341  0.0020  0.3034
 2658W        W18732  14.090  17.972   2.812 -0.3121  0.3360  0.1067
 2659W        W18733   6.815  18.283   4.745 -0.0152 -0.0158 -0.2280
 2660W        W18734  12.776  12.445  14.891 -0.1245 -0.1809  0.2164
 2661W        W18735  14.267  10.471   2.995  0.1036 -0.1829 -0.4184
 2662W        W18736  16.171   2.795  14.971 -0.0256  0.2758  0.0068
 2663W        W18737   8.124  11.815   3.820 -0.1999 -0.0954 -0.1521
 2664W        W18738   3.352   9.909  14.931 -0.1361 -0.1047  0.0563
 2665W        W18739  17.811   6.394   4.283  0.0548 -0.1722 -0.0283
 2666W        W18740   2.490   8.855   2.006  0.1684 -0.0019 -0.1936
 2667W        W18741   5.494  16.341  11.726 -0.1534 -0.0627  0.0362
 2668W        W18742  17.335   8.856  12.999 -0.3221 -0.1055 -0.2441
 2669W        W18743   0.353   3.002   0.677  0.1627 -0.2570  0.1967
 2670W        W18744  16.922  13.264   3.878  0.1227  0.0176 -0.1352
 2671W        W18745   3.704   2.191  14.254  0.1127  0.0807 -0.1210
 2672W        W18746   1.863  17.391   1.029  0.0131 -0.2602 -0.0892
 2673W        W18747   7.709   3.371  12.252 -0.1572 -0.0044 -0.0500
 2674W        W18748  17.641  16.155  14.284  0.2829 -0.0853 -0.3214
 2675W        W18749   5.725   6.967  12.701  0.0919  0.1793  0.1048
 2676W        W18750  11.477  10.139   2.369  0.1322 -0.1481  0.1415
 2677W        W18751  13.110  13.497  14.777 -0.0164  0.2550 -0.1324
 2678W        W18752   6.566   3.618   5.491  0.0239 -0.0192 -0.2213
 2679W        W18753   7.145  11.713   3.386 -0.0543  0.1782 -0.2919
 2680W        W18754  16.584   6.024   3.117  0.1741  0.1106  0.0073
 2681W        W18755   0.288  10.276   2.202 -0.2026  0.1399 -0.1240
 2682W        W18756  11.450   4.057  11.085  0.0287  0.0811 -0.2650
 2683W        W18757  17.606  13.716   5.246  0.1073 -0.0842 -0.1444
 2684W        W18758  16.268   9.947   1.726 -0.3976  0.2372 -0.0417
 2685W        W18759  11.573   2.292  15.371 -0.4621  0.1551 -0.0226
 2686W        W18760  15.655  13.398  11.052  0.2636 -0.2047 -0.2707
 2687W        W18761  18.297  13.796  11.734 -0.1291 -0.2561  0.0824
 2688W        W18762  10.558  11.457   3.338  0.1131  0.4973  0.0254
 2689W        W18763  11.138   7.130   0.551  0.0963  0.1355  0.3381
 2690W        W18764   2.612  13.148   2.625  0.4659 -0.0891  0.3386
 2691W        W18765  18.212  18.478   0.465  0.0104 -0.0457 -0.0944
 2692W        W18766  15.881   8.761  14.326 -0.0924 -0.0120 -0.1911
 2693W        W18767  10.591   6.805  15.790 -0.1605  0.0056 -0.0791
 2694W        W18768  16.099   3.936   3.463  0.3969  0.1359 -0.2028
 2695W        W18769   6.344  18.214  12.807 -0.0412  0.1358  0.1655
 2696W        W18770  15.962   4.209   1.499  0.2936  0.3210 -0.0467
 2697W        W18771   9.753  17.616   9.806  0.3008 -0.0262 -0.2533
 2698W        W18772  15.427  11.888   3.214  0.0212 -0.4553  0.0032
 2699W        W18773  16.477  13.396   0.669  0.1873  0.2601  0.0573
 2700W        W18774   6.226   9.517  12.715  0.0325 -0.0584 -0.0030
 2701W        W18775   0.694  14.403   4.672 -0.0640 -0.0107 -0.1965
 2702W        W18776   6.413   8.444   4.963  0.1894  0.2380  0.3930
 2703W        W18777   5.662   0.847   4.499 -0.0768  0.0391  0.3030
 2704W        W18778  14.457   9.441   2.830 -0.0256  0.0517 -0.0498
 2705W        W18779  15.913   9.988   0.791 -0.0632  0.2587 -0.1961
 2706W        W18780   8.610   5.750  14.186 -0.3121 -0.2861 -0.2055
 2707W        W18781  15.471   1.564  13.123 -0.0233 -0.1746  0.0225
 2708W        W18782   8.651  13.060   0.296 -0.0701  0.2717  0.1434
 2709W        W18783  13.440   0.699  16.003  0.1133  0.1535 -0.1628
 2710W        W18784   5.075  18.111   3.568  0.0333  0.0279 -0.0901
 2711W        W18785   1.192   9.477   3.245 -0.3543  0.1879  0.0211
 2712W        W18786  14.421   9.770   5.204  0.2529  0.0187 -0.2273
 2713W        W18787   0.093  15.829   3.871 -0.1532  0.1857 -0.0374
 2714W        W18788  16.925   1.000   1.632 -0.1296  0.0238 -0.0183
 2715W        W18789   6.138   6.755   4.867  0.1187 -0.3054 -0.2030
 2716W        W18790   2.380   7.409   2.356 -0.1593  0.0683 -0.1615
 2717W        W18791   0.086   1.069  15.983 -0.0969 -0.2085  0.0038
 2718W        W18792   3.218  12.716  14.481 -0.0846 -0.0586  0.1612
 2719W        W18793  14.645   5.565  15.416 -0.1238  0.3661  0.1296
 2720W        W18794  16.142   3.555  14.382  0.0482 -0.1263 -0.1907
 2721W        W18795  14.979  12.944  11.377  0.1700 -0.1675 -0.1500
 2722W        W18796   2.844   8.956   2.427  0.1308 -0.2742  0.0663
 2723W        W18797  15.320   6.813  14.934  0.0837 -0.2476 -0.1457
 2724W        W18798  12.972   8.273  13.735  0.0833  0.0752  0.2146
 2725W        W18799   4.730   8.820   5.505 -0.0617  0.2252  0.1336
 2726W        W18800   4.806   6.174  11.637 -0.1252 -0.0864  0.0149
 2727W        W18801  17.481  11.566   2.114 -0.0448  0.1800 -0.1530
 2728W        W18802   0.568   7.663   5.335 -0.2119  0.2796 -0.1054
 2729W        W18803   2.752   3.559  16.009  0.0443  0.2039 -0.0603
 2730W        W18804  12.366   3.600   2.197 -0.1413  0.3265 -0.0143
 2731W        W18805  14.673   4.971   4.223  0.0360  0.0944  0.3992
 2732W        W18806  18.333  13.068   4.450 -0.1619 -0.0473  0.2884
 2733W        W18807  14.816  18.298  12.762  0.1481 -0.3537  0.0145
 2734W        W18808  15.280  13.891   2.050 -0.2929 -0.1845  0.2253
 2735W        W18809   8.044   1.274  13.722 -0.0161 -0.2202 -0.1211
 2736W        W18810  12.934   4.103   3.490  0.0053 -0.3428 -0.0009
 2737W        W18811   0.096   2.854  11.297  0.1830 -0.2440  0.1145
 2738W        W18812  18.237  17.914  14.723  0.2009 -0.2265  0.3433
 2739W        W18813  11.568   5.305   0.170  0.1607 -0.0009  0.2043
 2740W        W18814   9.525   7.869  13.802 -0.0260  0.2812  0.1502
 2741W        W18815  13.230   9.347  11.985 -0.4225 -0.1881  0.1391
 2742W        W18816   0.714  13.696   1.604 -0.2736 -0.2644  0.0952
 2743W        W18817  10.552  10.952  13.376  0.1946  0.0657 -0.2290
 2744W        W18818   7.837   1.488  11.815  0.0812  0.2983  0.0732
 2745W        W18819   1.736   2.916   3.699  0.3250  0.2573 -0.1668
 2746W        W18820  17.104   6.441   1.011  0.1365  0.1700  0.0959
 2747W        W18821   1.832   4.823  11.369  0.0949 -0.0601 -0.0811
 2748W        W18822  11.337  10.771  14.370 -0.3363  0.0045  0.0190
 2749W        W18823   6.068  18.083  11.655 -0.1185 -0.1407 -0.0880
 2750W        W18824  12.736   3.306  13.186  0.2638  0.0584 -0.0124
 2751W        W18825  18.546  17.858   3.261 -0.0964 -0.0928 -0.0022
 2752W        W18826   3.990  16.130   5.795  0.2031  0.0315 -0.3568
 2753W        W18827  13.224  18.442  12.943 -0.1865 -0.0137  0.3498
 2754W        W18828  16.489   8.152  11.421  0.1513 -0.4359  0.2312
 2755W        W18829   4.597  17.680   5.033  0.0032  0.0618  0.2545
 2756W        W18830  18.001  14.077   4.469  0.0864  0.1789  0.0339
 2757W        W18831  12.160   1.547  11.116 -0.1356 -0.0221 -0.1208
 2758W        W18832  11.625  16.857   1.482 -0.0269 -0.1385  0.1907
 2759W        W18833  15.240   5.893  12.145  0.1279  0.2444 -0.1349
 2760W        W18834   7.744  15.130   1.210  0.0256 -0.1185  0.1803
 2761W        W18835   5.332  12.521   3.451 -0.0063 -0.0972  0.2241
 2762W        W18836   6.910  12.965   4.051  0.5729 -0.1757 -0.1458
 2763W        W18837   7.104   9.675   0.431  0.3061  0.0380  0.1799
 2764W        W18838  14.946   2.117  10.987 -0.0113  0.0927  0.1480
 2765W        W18839   7.512   8.976   0.035 -0.0015  0.1877  0.2859
 2766W        W18840  11.789  10.482   4.167  0.0045  0.3996  0.0593
 2767W        W18841   8.249   6.799  11.261 -0.1750  0.1605 -0.1359
 2768W        W18842  14.678  10.796   4.370 -0.0339  0.5652 -0.0268
 2769W        W18843  17.782  14.791   1.040  0.1713 -0.2335 -0.3539
 2770W        W18844  10.154  10.586  15.432 -0.4095 -0.0397  0.1851
 2771W        W18845   9.160   1.289   2.145 -0.0507  0.0045  0.1428
 2772W        W18846   2.748  14.204   0.048 -0.0379  0.3675 -0.1502
 2773W        W18847   7.083   2.748   1.687  0.0953 -0.0292  0.2205
 2774W        W18848   9.689   6.025   0.926 -0.2423 -0.0989 -0.2130
 2775W        W18849   7.136  14.246  13.183 -0.0099  0.1324  0.2033
 2776W        W18850  14.699   1.505  11.759  0.0479  0.2330 -0.1019
 2777W        W18851  11.947  11.204  15.484 -0.0848  0.0542 -0.0232
 2778W        W18852   6.330  10.768  11.247  0.0828  0.2275 -0.0444
 2779W        W18853   8.706   0.049   0.738  0.1763  0.0524 -0.0285
 2780W        W18854  13.854   0.022   4.316  0.1341  0.0911 -0.0527
 2781W        W18855   3.185  10.525  13.871  0.2054  0.4047 -0.1892
 2782W        W18856   9.841   4.878   5.550 -0.0340  0.1484 -0.0624
 2783W        W18857   6.681   4.161  14.815 -0.2072  0.2032 -0.1636
 2784W        W18858  12.059  14.716   3.131  0.1818  0.3090 -0.0891
 2785W        W18859  15.444  12.722   4.901  0.1892  0.0411 -0.0434
 2786W        W18860  10.872   9.393   3.893 -0.1301 -0.2306  0.1845
 2787W        W18861  17.373  11.185  15.082 -0.2019 -0.0005 -0.0172
 2788W        W18862   0.523   9.472   4.610 -0.1054  0.0812 -0.0432
 2789W        W18863   7.373  12.273   3.419 -0.0152 -0.3329  0.1708
 2790W        W18864  14.373  12.943   1.599  0.1581  0.0313 -0.1373
 2791W        W18865   1.168   7.805  14.412  0.0569  0.0326  0.0574
 2792W        W18866  11.909   9.664  11.917  0.1018 -0.1159 -0.1489
 2793W        W18867   2.038   6.344   2.202  0.0116  0.3881 -0.0126
 2794W        W18868   7.989  16.000  11.602  0.0334  0.2578 -0.1638
 2795W        W18869  14.757  17.000   2.830 -0.1707  0.4223 -0.0626
 2796W        W18870   6.566  16.190   9.818  0.0223  0.1706  0.0348
 2797W        W18871  17.961   7.302   1.600 -0.0466  0.0656 -0.0222
 2798W        W18872   9.931  17.184   0.420 -0.0929 -0.1120 -0.2272
 2799W        W18873  14.130   0.728  15.238  0.0711  0.3084  0.0880
 2800W        W18874   8.407   1.825  15.584 -0.0120 -0.0795  0.0334
 2801W        W18875  17.272   6.951   2.376  0.0488 -0.2245 -0.1045
 2802W        W18876   3.422  11.870  12.508  0.1671 -0.0660  0.0540
 2803W        W18877   3.010   8.931  14.526 -0.2199 -0.0104 -0.1096
 2804W        W18878  12.539   6.973  14.468  0.0459 -0.2697  0.1990
 2805W        W18879  12.868  12.914  10.543  0.2627  0.2361 -0.0222
 2806W        W18880   7.389   6.987  13.563  0.2988  0.0834 -0.0283
 2807W        W18881  14.699   7.709  12.639  0.0873 -0.0853  0.4668
 2808W        W18882   8.116  15.928   2.183  0.2119  0.1344 -0.1197
 2809W        W18883   1.240   7.294  14.206 -0.0453 -0.1238 -0.1238
 2810W        W18884   3.945   1.326   4.530  0.1158 -0.0398  0.1532
 2811W        W18885   0.032   5.608   0.549 -0.0929  0.3083 -0.0273
 2812W        W18886   2.868   1.950  15.507  0.0190 -0.0753  0.0077
 2813W        W18887  13.797  11.433   9.732 -0.4389  0.1898  0.0448
 2814W        W18888  15.969  14.118  10.925 -0.0170  0.1806 -0.0021
 2815W        W18889  15.279   3.768  10.992 -0.0440  0.0958  0.2890
 2816W        W18890  16.967  16.199   3.351 -0.3281  0.1090  0.1186
 2817W        W18891  10.127  17.043   5.264 -0.2076  0.0607  0.3902
 2818W        W18892  17.071   5.551   2.270 -0.0733 -0.1964  0.2458
 2819W        W18893   3.344   3.649  14.279  0.4814 -0.2278 -0.1869
 2820W        W18894  10.576  14.332  12.112 -0.1126  0.0543  0.0297
 2821W        W18895   3.669   8.994   1.214 -0.1361 -0.1222  0.4422
 2822W        W18896  12.327   7.568  13.322  0.1266  0.0071  0.1391
 2823W        W18897  12.881  13.288  12.435 -0.2126 -0.1097  0.0949
 2824W        W18898  12.018   9.262   2.420  0.1024  0.0569 -0.1107
 2825W        W18899  12.785   3.926   3.065 -0.1229 -0.2260  0.2409
 2826W        W18900   0.596   8.869  15.547 -0.1747 -0.4118 -0.2756
 2827W        W18901   2.851   3.038  14.962  0.0972  0.1149 -0.0135
 2828W        W18902  13.431   3.727   4.955  0.3641 -0.0643  0.1809
 2829W        W18903   2.957   6.853   0.559  0.4150 -0.1705 -0.3524
 2830W        W18904   6.613   9.150   0.960  0.1060  0.0850 -0.1238
 2831W        W18905   1.365  18.557  13.355  0.1001 -0.0755  0.0164
 2832W        W18906   3.378   2.014  11.778 -0.0981  0.2775 -0.1906
 2833W        W18907   1.607   1.305   3.679  0.3792  0.1808  0.0080
 2834W        W18908  11.519  15.876  12.281 -0.3081 -0.0995  0.1240
 2835W        W18909  12.804   2.978   4.247  0.1350  0.0902 -0.0309
 2836W        W18910   3.750   2.196   3.407 -0.0988  0.0463  0.1724
 2837W        W18911  14.353  12.458   0.874 -0.1032  0.0677  0.1011
 2838W        W18912   4.786  12.483  12.095  0.2039 -0.0452 -0.1009
 2839W        W18913  15.895  15.068   0.335 -0.0614 -0.1866 -0.0168
 2840W        W18914  16.647   8.507  14.797 -0.0707  0.0558  0.0921
 2841W        W18915   6.457   7.415   2.574  0.0504  0.1866 -0.5377
 2842W        W18916   1.874   0.058  15.297 -0.2012  0.2776 -0.4956
 2843W        W18917   3.612   6.743   2.910 -0.1028  0.0108  0.0304
 2844W        W18918  11.016   0.229   1.360  0.0487  0.1909 -0.0089
 2845W        W18919  12.574  18.376  13.491 -0.2489 -0.4406 -0.0107
 2846W        W18920  18.181   4.801   0.352  0.4235  0.0630 -0.0521
 2847W        W18921   5.741   6.316   4.092 -0.3282 -0.1848 -0.2072
 2848W        W18922  14.073  14.997  15.033  0.0063 -0.1288  0.1361
 2849W        W18923   8.195   1.903   2.347  0.0134 -0.0138 -0.0403
 2850W        W18924  11.380   0.884  14.493  0.0058 -0.2122 -0.2676
 2851W        W18925  15.016   5.728   2.032 -0.0983 -0.1276 -0.0795
 2852W        W18926   4.667  17.935   4.178  0.0043 -0.2205 -0.1591
 2853W        W18927  11.228  11.002  13.914  0.5484  0.0798  0.0542
 2854W        W18928   1.793   1.481  13.666  0.1159  0.0930 -0.0094
 2855W        W18929   9.254   0.849  11.000 -0.3386  0.2303  0.1619
 2856W        W18930  13.179   9.642  13.138 -0.0371  0.0162  0.0294
 2857W        W18931   9.896   8.823  11.479  0.1774  0.1444  0.3356
 2858W        W18932  12.452   2.739  15.600  0.1031 -0.0551 -0.0295
 2859W        W18933   5.579  16.499   4.800 -0.0934  0.3686  0.3040
 2860W        W18934  11.608  18.464  15.277 -0.1050  0.2367 -0.1735
 2861W        W18935  15.545   0.744   2.955 -0.0548 -0.3292 -0.0313
 2862W        W18936   3.303  11.474  12.212 -0.0607 -0.2257 -0.3793
 2863W        W18937   7.513   3.842  14.128  0.3179  0.0134  0.2639
 2864W        W18938   4.779   2.429  14.086 -0.3911  0.1377  0.0910
 2865W        W18939  10.113   9.408  15.773  0.1617 -0.0984 -0.1331
 2866W        W18940  16.409  16.949  14.506  0.0564 -0.0343  0.1078
 2867W        W18941  17.553   3.363   2.405 -0.0431  0.4852 -0.0468
 2868W        W18942   9.296   5.458   2.109 -0.3332  0.1610  0.0522
 2869W        W18943   1.680   4.415  13.331 -0.1044 -0.1113 -0.0559
 2870W        W18944  11.493  11.524   0.607  0.1171 -0.3661 -0.1899
 2871W        W18945  16.996   3.708  11.467 -0.0939  0.1291 -0.0437
 2872W        W18946  14.076   2.096   3.617  0.5153 -0.0261 -0.0740
 2873W        W18947  18.266  14.751  15.149  0.0607  0.3660 -0.1175
 2874W        W18948  14.194  15.767  15.463  0.1241  0.0416  0.0298
 2875W        W18949   4.889   1.469   1.241 -0.2567 -0.3114 -0.0409
 2876W        W18950  12.312  17.682  15.830  0.0529  0.3977  0.0067
 2877W        W18951   6.292  15.133  11.669 -0.1569  0.2275 -0.1644
 2878W        W18952   8.924   5.408  12.741  0.0275  0.1361  0.0426
 2879W        W18953  14.476   0.234   6.177 -0.0034  0.1898  0.0275
 2880W        W18954   7.412   5.150  12.139  0.2992  0.2712 -0.1484
 2881W        W18955   8.744  17.202   4.775 -0.0372  0.1791 -0.3751
 2882W        W18956   8.321   8.910  15.371  0.1106 -0.1329 -0.0614
 2883W        W18957  17.583   7.866   3.481  0.4180 -0.0185  0.2995
 2884W        W18958  12.017   7.142  10.386 -0.3462  0.2103 -0.0574
 2885W        W18959  11.424   8.683   2.591 -0.0675 -0.0560 -0.0207
 2886W        W18960   5.059   6.213   1.997 -0.2116  0.1219  0.1452
 2887W        W18961  15.022  13.500   3.611 -0.1046  0.1253 -0.0458
 2888W        W18962   9.010   7.201  13.815  0.3050  0.2076  0.1805
 2889W        W18963  16.073   2.346  12.408  0.2380  0.0015  0.1350
 2890W        W18964  16.569  13.081  14.626  0.1772  0.1333 -0.1733
 2891W        W18965   5.089  16.344   2.152  0.0342  0.0242  0.3046
 2892W        W18966  13.686   8.209   4.869 -0.1441  0.1566  0.0241
 2893W        W18967  17.737   9.100   5.989 -0.0467 -0.0349  0.2737
 2894W        W18968   1.394  13.628   0.951 -0.0191  0.0353  0.1148
 2895W        W18969  13.718  13.464   2.905  0.0327 -0.2356  0.1249
 2896W        W18970  13.205   7.175   3.917 -0.2068 -0.0983  0.0768
 2897W        W18971   3.312   4.321   0.219 -0.1161  0.0007  0.1188
 2898W        W18972  13.758   5.467   3.806 -0.2540 -0.0517 -0.2227
 2899W        W18973   6.675   9.143   0.468  0.1630  0.0517 -0.1228
 2900W        W18974   5.042  17.180   0.481 -0.1893 -0.0002 -0.0563
 2901W        W18975   0.736  12.870  12.393  0.0033  0.2122  0.1525
 2902W        W18976   8.127   2.214  11.481  0.2347  0.1565  0.0891
 2903W        W18977   4.544  16.699  12.891 -0.0499  0.1899  0.0760
 2904W        W18978   2.591  16.971  15.902  0.1144 -0.0615  0.1288
 2905W        W18979   3.547  15.952   4.934 -0.0307 -0.5570  0.0377
 2906W        W18980   1.909   7.527   1.017 -0.1694  0.1078  0.3615
 2907W        W18981   6.694   0.955  11.164 -0.2011 -0.0788  0.0454
 2908W        W18982   1.389   2.469   5.313 -0.4282 -0.0345  0.3459
 2909W        W18983  13.373   6.252   0.476  0.2370  0.2505  0.3519
 2910W        W18984   4.109  10.143  12.658  0.1692 -0.3232  0.2303
 2911W        W18985   8.519   0.038   4.098 -0.0120 -0.2159 -0.1984
 2912W        W18986   6.435   4.121   0.432  0.0309 -0.2444  0.1290
 2913W        W18987   6.694  14.813  12.623 -0.1460 -0.1096  0.0307
 2914W        W18988   6.165   5.010  14.608 -0.1061 -0.1555 -0.2339
 2915W        W18989  14.436   5.857  15.062  0.0013  0.0278 -0.0998
 2916W        W18990   9.583   1.082  10.007 -0.2395  0.2118 -0.0198
 2917W        W18991  15.380  15.647  13.035 -0.2294 -0.0942 -0.0339
 2918W        W18992  11.156  12.921   0.014  0.1953 -0.1785 -0.0151
 2919W        W18993  16.688   1.433   4.924 -0.0292  0.0635  0.0106
 2920W        W18994   1.004  11.954   2.578 -0.0330 -0.0736  0.2086
 2921W        W18995  10.747  10.203   0.599 -0.0626  0.1178  0.2428
 2922W        W18996   4.676  13.900  13.635  0.0718  0.0602  0.0894
 2923W        W18997  15.494   1.517  12.134  0.4000 -0.0359 -0.0254
 2924W        W18998   0.203   8.655   0.023 -0.1739 -0.2080 -0.0893
 2925W        W18999   2.320   9.970  12.955 -0.1369  0.0130  0.0182
 2926W        W19000   7.399   1.323   0.520 -0.2069  0.0985  0.1975
 2927W        W19001   3.430   4.821  11.259  0.0979  0.1725 -0.1963
 2928W        W19002   4.127   5.699  13.809  0.0246 -0.0882  0.1225
 2929W        W19003  17.949   0.588  13.525 -0.1389 -0.2205  0.0626
 2930W        W19004   1.388  13.023  11.493  0.2209 -0.1260 -0.1029
 2931W        W19005   1.988   8.015  14.461  0.0655  0.0504  0.2824
 2932W        W19006   5.244  10.155  15.583 -0.1729  0.0006 -0.2613
 2933W        W19007   9.052  16.517  13.864  0.1657 -0.2324  0.2597
 2934W        W19008   1.521  16.074  13.559 -0.1865 -0.0134  0.2603
 2935W        W19009  15.217   2.578  13.183  0.1495  0.0256 -0.0178
 2936W        W19010  11.506  16.981   5.386  0.2829 -0.0111  0.0139
 2937W        W19011   2.708   2.248   1.175 -0.4332 -0.2763  0.0284
 2938W        W19012  15.610  12.942   5.352  0.1125 -0.0659  0.2036
 2939W        W19013   6.891  13.186   3.112 -0.0570  0.3954  0.1893
 2940W        W19014  13.348   6.608   4.773 -0.2086 -0.1620  0.1070
 2941W        W19015  17.546   0.701  11.368  0.1876  0.0509 -0.1039
 2942W        W19016   0.405   8.869   4.352  0.1370  0.0708  0.0459
 2943W        W19017  16.613   0.346   3.140  0.0189 -0.4396 -0.0208
 2944W        W19018  12.437   9.320   1.075  0.1427 -0.1061  0.1121
 2945W        W19019  11.813   0.950  14.093 -0.0282  0.1788  0.1377
 2946W        W19020  11.622   0.555  13.167  0.1240 -0.0455  0.0972
 2947W        W19021  10.613   9.871  14.544  0.0177 -0.0676 -0.0137
 2948W        W19022   9.171   5.080  11.760 -0.1769  0.2138  0.0020
 2949W        W19023   2.091   2.005   1.927 -0.0479 -0.3046  0.0129
 2950W        W19024   3.220   2.421   4.438 -0.2000 -0.0067 -0.0138
 2951W        W19025   2.472  13.984  14.513  0.0791  0.0110 -0.0681
 2952W        W19026  13.373  12.262  14.856 -0.1075  0.1350 -0.0733
 2953W        W19027  10.522   2.964  14.257  0.2151 -0.3527  0.0172
 2954W        W19028   3.267   2.653   5.004  0.0005  0.2458  0.1643
 2955W        W19029  10.647  17.776   0.580  0.1025 -0.0737 -0.0256
 2956W        W19030   1.769  13.266  15.055  0.2672  0.0122  0.1312
 2957W        W19031   7.569  16.710  14.484 -0.2147 -0.1390  0.0720
 2958W        W19032   3.705  17.024   4.007 -0.1770 -0.3200 -0.1817
 2959W        W19033   6.660   2.459  12.831 -0.1934 -0.0340  0.0201
 2960W        W19034   5.525  14.434  11.590 -0.1371 -0.2772  0.2203
 2961W        W19035  10.167   5.579  12.208  0.0439 -0.1948 -0.1264
 2962W        W19036  12.557  10.884  12.260  0.0916 -0.2778  0.2243
 2963W        W19037   1.744   2.237  12.235  0.0330  0.0223  0.0248
 2964W        W19038  11.991  16.208   4.763  0.0758 -0.0562  0.4944
 2965W        W19039   1.022  14.223  13.033  0.0554  0.3795  0.0551
 2966W        W19040   9.219  14.887   4.198  0.1150  0.2188 -0.2197
 2967W        W19041   9.902  15.184  13.684 -0.0860 -0.1091 -0.4938
 2968W        W19042   4.912   9.648  11.613 -0.0052  0.0369 -0.1162
 2969W        W19043   0.319   1.491  15.027 -0.1283 -0.0333  0.2585
 2970W        W19044   1.980   5.219  15.511 -0.3486  0.1956  0.3514
 2971W        W19045   5.517   1.247  15.988 -0.4604 -0.0664  0.0684
 2972W        W19046  15.952   1.016  11.907  0.0733 -0.3155  0.0904
 2973W        W19047   4.130  11.473  12.154  0.2894 -0.0251 -0.0938
 2974W        W19048   0.161  12.582   4.015  0.3219  0.1441  0.1993
 2975W        W19049   0.756  13.215   2.357 -0.0046 -0.2206 -0.2167
 2976W        W19050   1.189   5.699  13.040  0.1170  0.1442  0.0400
 2977W        W19051   1.349   2.126   1.157  0.1537  0.0478  0.0959
 2978W        W19052   6.705   0.113  11.226 -0.0076 -0.2565 -0.0410
 2979W        W19053  17.264   0.006   0.242  0.2306 -0.2889 -0.0822
 2980W        W19054   0.692  12.124   3.368 -0.2984 -0.3851 -0.0674
 2981W        W19055   1.896   5.091  12.224  0.0051 -0.1452  0.0960
 2982W        W19056  12.257  13.458   2.783  0.3971 -0.1276 -0.0387
 2983W        W19057  10.096   0.798   1.235 -0.0395 -0.1880 -0.2078
 2984W        W19058  11.051   5.156   3.960 -0.1889 -0.2106 -0.1694
 2985W        W19059  17.725   1.159  14.708 -0.2459  0.0471 -0.0502
 2986W        W19060  10.191   6.439  14.751  0.0008  0.5356  0.1719
 2987W        W19061  16.893   3.167   4.913  0.0362  0.1441 -0.1141
 2988W        W19062   6.556  15.410   2.840 -0.0138  0.0432  0.1281
 2989W        W19063   4.964   7.953  14.078  0.2590 -0.0489 -0.0941
 2990W        W19064   3.646  10.290  12.841 -0.2119  0.2213 -0.3360
 2991W        W19065  18.455  16.052   1.077  0.0782 -0.0069 -0.0711
 2992W        W19066   9.511   9.168   1.484  0.0764 -0.1427  0.1778
 2993W        W19067   6.538   6.274   4.426  0.4131 -0.2523 -0.4638
 2994W        W19068   1.511  17.288   4.759  0.2253 -0.0893  0.0197
 2995W        W19069  18.389  18.324   1.874  0.1228 -0.1446  0.0889
 2996W        W19070  16.953  12.660   1.512  0.0718 -0.1676 -0.2938
 2997W        W19071  10.118   6.672   3.928  0.1179 -0.1210  0.2811
 2998W        W19072  15.252   5.886   5.621 -0.0129 -0.2981  0.1260
 2999W        W19073   9.670  14.377  14.584 -0.2307  0.0441 -0.1090
 3000W        W19074   8.333   3.666   0.314  0.0190  0.1102  0.1032
 3001W        W19075   0.762   9.764  13.267  0.2344 -0.2480  0.0767
 3002W        W19076   9.893   8.747   2.804 -0.0099 -0.0074 -0.2362
 3003W        W19077   7.681  16.117  13.992  0.3080 -0.2710  0.1924
 3004W        W19078   8.038  17.483  14.428 -0.1167  0.3274 -0.0202
 3005W        W19079  16.954   8.451  13.623 -0.0026 -0.5320 -0.1486
 3006W        W19080  16.432  16.513  11.425 -0.1552 -0.0119 -0.0117
 3007W        W19081  13.074  17.080   2.969  0.2588 -0.3785 -0.0742
 3008W        W19082  16.412   9.213  12.740 -0.2227 -0.3517  0.0172
 3009W        W19083   8.543  16.017  14.498  0.1666  0.0201  0.0279
 3010W        W19084  18.076   3.975   5.440 -0.2568  0.0549 -0.1921
 3011W        W19085   5.210  12.009   3.498  0.2816  0.3039 -0.0756
 3012W        W19086  15.437   0.430   0.142 -0.0527 -0.0609  0.1832
 3013W        W19087  10.772   3.038   0.268  0.0964 -0.3921  0.3530
 3014W        W19088   0.534   5.861   1.803 -0.1113  0.2435  0.1593
 3015W        W19089   3.957   5.091   4.431 -0.3117 -0.0175 -0.2001
 3016W        W19090  14.773  18.480   5.949 -0.0420  0.1998  0.0218
 3017W        W19091   7.844  16.316   4.178  0.0879  0.0565 -0.2179
 3018W        W19092  17.097  13.296   5.318 -0.3804 -0.2882 -0.0754
 3019W        W19093   8.127   2.828  13.714 -0.0646 -0.0527  0.2370
 3020W        W19094   4.548   9.536   4.019 -0.1572  0.0893 -0.1747
 3021W        W19095   5.447   8.232   1.470 -0.2672 -0.2742 -0.2436
 3022W        W19096  18.372  14.723   4.168  0.0625  0.2678  0.2306
 3023W        W19097   1.446   0.293  11.650 -0.0721 -0.2509  0.0249
 3024W        W19098  17.259   4.377   1.637 -0.0509  0.0450  0.2419
 3025W        W19099   6.513   0.197   3.589 -0.3569  0.0449  0.0747
 3026W        W19100   7.219  17.369   4.784  0.2941  0.0592 -0.2578
 3027W        W19101  13.982   2.607   4.580  0.2995 -0.1268 -0.0440
 3028W        W19102  15.250  13.704  15.934 -0.0493  0.3996  0.1378
 3029W        W19103   3.506  16.938   5.334  0.2971 -0.0134 -0.0769
 3030W        W19104   3.346   9.573   0.549 -0.1385 -0.0631  0.0210
 3031W        W19105  10.106   0.888  14.832 -0.1095  0.4083  0.0221
 3032W        W19106  16.214   9.192   5.673 -0.1056 -0.0974 -0.0221
 3033W        W19107   3.466  14.150   3.344 -0.1350 -0.4047  0.1121
 3034W        W19108   2.053  16.380  11.641  0.0812 -0.1787 -0.1650
 3035W        W19109   3.772  17.553  13.831  0.0986 -0.0850 -0.0892
 3036W        W19110  14.877   6.884   0.388  0.0234  0.0258  0.1774
 3037W        W19111   2.094   4.422   5.227  0.2668 -0.1320  0.2321
 3038W        W19112  15.853   0.408  13.477 -0.2879  0.1599  0.1442
 3039W        W19113   1.991  11.985  15.653  0.0812  0.2134 -0.2575
 3040W        W19114   2.486   5.446   2.492 -0.1219  0.1318 -0.0962
 3041W        W19115   0.761  12.417  13.451 -0.1407 -0.3084  0.0413
 3042W        W19116  12.202   4.785   5.442 -0.1464 -0.1994  0.3855
 3043W        W19117  17.434   1.476   9.668 -0.0666 -0.0108  0.0579
 3044W        W19118   4.392   9.736   3.125 -0.0413  0.2369 -0.0451
 3045W        W19119  12.189  18.514   0.906  0.2065 -0.2690 -0.0257
 3046W        W19120  15.691   5.051   1.164 -0.1890 -0.2025  0.1747
 3047W        W19121  12.129   1.220  12.342  0.0494 -0.2705 -0.1856
 3048W        W19122   0.535  15.165   6.418 -0.1506  0.4535 -0.1446
 3049W        W19123  15.957  17.964   2.265  0.0210  0.0692 -0.1051
 3050W        W19124   0.848  17.059  10.897 -0.1015 -0.5699 -0.0898
 3051W        W19125   9.437   2.350   4.385  0.0217  0.1087 -0.0316
 3052W        W19126   9.747  12.390  11.743  0.0582 -0.1768  0.1421
 3053W        W19127   4.411   2.525   4.955 -0.3496 -0.2361 -0.3592
 3054W        W19128   4.329   5.320   0.370  0.0106  0.0831  0.2072
 3055W        W19129   4.728  17.655  12.854 -0.3750 -0.1101 -0.0330
 3056W        W19130  12.566  16.960   2.698 -0.0624  0.2092  0.2498
 3057W        W19131   0.351   8.642  11.728  0.1715 -0.0463  0.0079
 3058W        W19132  10.631  15.578   3.431 -0.1323 -0.0572 -0.2763
 3059W        W19133   3.702  10.783   0.979 -0.2462 -0.1929  0.0827
 3060W        W19134   0.182  16.671  13.668  0.1221 -0.2711 -0.2373
 3061W        W19135   2.775  16.995   3.570  0.2355  0.0949 -0.2941
 3062W        W19136   9.526   4.902  13.259 -0.1589 -0.1475  0.0602
 3063W        W19137  13.679  16.785  12.522 -0.1034 -0.2759 -0.0023
 3064W        W19138  17.668  12.058   2.032  0.0911 -0.0391  0.4113
 3065W        W19139   7.613   0.384  10.542 -0.3287 -0.0322  0.0604
 3066W        W19140  10.503   5.823  14.734 -0.1258 -0.1265 -0.0962
 3067W        W19141   3.860   3.009   1.017  0.0331 -0.0679 -0.1692
 3068W        W19142  12.325   6.668  11.543 -0.1701  0.0946  0.1738
 3069W        W19143   0.228  15.925  12.770 -0.0441 -0.1488  0.2070
 3070W        W19144  16.576  15.935  15.757 -0.2175 -0.1771 -0.0641
 3071W        W19145   0.254  13.049   5.298 -0.0500  0.0061  0.0069
 3072W        W19146  12.786   0.127  14.370  0.0073 -0.1992  0.0393
 3073W        W19147   3.182  16.144  14.247  0.0937 -0.2776  0.1355
 3074W        W19148   9.805  14.623   2.953 -0.1876  0.0750  0.3073
 3075W        W19149   7.011   3.536   5.278  0.1886 -0.3978  0.1667
 3076W        W19150  16.472   9.301  15.609 -0.2728 -0.0679  0.1649
 3077W        W19151  15.638   0.344   5.986 -0.1263  0.1236 -0.0625
 3078W        W19152   7.965  13.333   2.051  0.0304  0.1601 -0.3354
 3079W        W19153   5.530   3.146   0.316 -0.0705  0.0520 -0.5298
 3080W        W19154  16.622   6.717   4.814  0.1501  0.1695  0.0831
 3081W        W19155   4.228  17.559   3.196  0.1356 -0.0459 -0.1018
 3082W        W19156   5.073   3.560   4.604  0.1343  0.0580  0.0157
 3083W        W19157  15.592   9.890  13.993 -0.0217 -0.1907  0.2343
 3084W        W19158   3.422  15.473   2.325 -0.2309 -0.1351 -0.0334
 3085W        W19159  11.267  13.424  16.027 -0.0748 -0.1151 -0.0808
 3086W        W19160  12.158  13.004   3.438  0.2177  0.1768 -0.1599
 3087W        W19161  16.434   9.073  11.190  0.3846  0.0968  0.2782
 3088W        W19162   0.693   5.675  12.348 -0.5071  0.1522 -0.2653
 3089W        W19163  13.337   5.125  12.031 -0.2234  0.2530 -0.4342
 3090W        W19164  15.001  16.810  13.888 -0.1416  0.5194 -0.1226
 3091W        W19165   6.860  12.779  11.255 -0.1752 -0.0114 -0.1103
 3092W        W19166   3.518   9.800  14.037 -0.0384 -0.1432  0.1856
 3093W        W19167   3.691   4.758   1.464 -0.1958 -0.0623  0.1660
 3094W        W19168   7.036  12.487  13.330  0.0313  0.0810  0.0598
 3095W        W19169   9.453   4.872   2.758 -0.1349 -0.1066 -0.0773
 3096W        W19170   9.090   6.827  14.830  0.4785  0.0291 -0.1581
 3097W        W19171  16.621  14.075   0.084 -0.3387  0.3412 -0.3411
 3098W        W19172   4.499   1.437  15.901 -0.2453  0.2813 -0.2361
 3099W        W19173  15.688   6.487   1.709  0.0934 -0.0784 -0.1198
 3100W        W19174   5.556   5.176  15.396 -0.0584  0.1826 -0.0959
 3101W        W19175   0.476   7.905   6.255 -0.1708  0.0273 -0.2081
 3102W        W19176   4.464  13.057   5.849 -0.3194  0.0813  0.1174
 3103W        W19177  16.378  12.395   5.282  0.2842  0.0088  0.4699
 3104W        W19178   9.089   6.219   5.739  0.2898 -0.1271  0.2883
 3105W        W19179   9.135   4.470  15.657  0.0257  0.1561 -0.0340
 3106W        W19180  13.437   7.313   0.115  0.0065 -0.2141 -0.1221
 3107W        W19181   6.327  13.066   3.065 -0.1341  0.2451 -0.0758
 3108W        W19182   0.882   7.889  10.836  0.1101 -0.1885 -0.2344
 3109W        W19183  14.844  11.150   0.664  0.1458  0.1393 -0.1348
 3110W        W19184  14.617   4.224   3.551  0.1283 -0.0930  0.2429
 3111W        W19185  17.178  10.432   5.709  0.0696  0.4588 -0.2205
 3112W        W19186   4.886   0.313   0.808  0.2020 -0.1415 -0.1560
 3113W        W19187   2.228  12.244  14.763  0.1744 -0.0767  0.2262
 3114W        W19188  11.343   2.242   4.639  0.0414 -0.2106  0.1815
 3115W        W19189  17.418  18.399   3.509 -0.0545 -0.3364 -0.2368
 3116W        W19190   4.690   9.299  15.085  0.2328  0.1052 -0.2985
 3117W        W19191   9.986   9.388   1.725 -0.1707  0.1608  0.0806
 3118W        W19192   3.933   6.330   1.817  0.1041  0.2212  0.0579
 3119W        W19193  14.403   9.914   0.735  0.0383 -0.0014 -0.1556
 3120W        W19194   8.776   3.179  15.269 -0.1064  0.0840  0.0263
 3121W        W19195   7.707   5.921  13.282 -0.1046  0.4591 -0.2376
 3122W        W19196   2.704  16.586  11.982 -0.0125 -0.0145  0.2202
 3123W        W19197  18.285   0.961   5.707 -0.0655 -0.2239  0.2235
 3124W        W19198  10.205   3.954  11.534  0.3842  0.2381  0.0560
 3125W        W19199  10.159   8.222   0.617 -0.0777  0.0124  0.1071
 3126W        W19200  13.327  17.051   3.440  0.0418  0.0954  0.0173
 3127W        W19201   9.601  11.921   5.421 -0.1881 -0.3780 -0.0405
 3128W        W19202  15.647   3.863  13.163  0.1500 -0.1481 -0.0750
 3129W        W19203  10.695   9.565   4.785 -0.0796  0.0034 -0.0007
 3130W        W19204   1.709  12.851   1.902 -0.2736 -0.0544  0.0425
 3131W        W19205  17.195   4.881  15.752 -0.1053 -0.0942  0.0271
 3132W        W19206   1.840  11.255   3.682 -0.1839  0.1258  0.1765
 3133W        W19207  10.383   3.017  10.983  0.2474 -0.1694 -0.2639
 3134W        W19208   0.624  10.646  12.125  0.3652  0.2532  0.1263
 3135W        W19209  16.969   1.977  10.740 -0.3675 -0.0318  0.3283
 3136W        W19210  10.834   7.424   4.895  0.2542 -0.3852  0.0923
 3137W        W19211   0.347   1.942  13.884  0.0863 -0.1953 -0.2493
 3138W        W19212  17.734   2.223   0.636 -0.2978  0.0550 -0.0111
 3139W        W19213  18.095   8.184   4.539 -0.0397 -0.4300  0.1117
 3140W        W19214  11.284  17.181   1.777  0.1085 -0.0493 -0.2191
 3141W        W19215   1.170  12.509   1.983 -0.2912  0.1338  0.2276
 3142W        W19216   8.129  16.088  13.670  0.2113 -0.1857  0.2180
 3143W        W19217  17.285   5.360  14.456  0.1517 -0.2114 -0.0145
 3144W        W19218   9.346   6.486   0.677  0.0252 -0.0733  0.1920
 3145W        W19219  16.402   8.404   0.415 -0.1086 -0.0442  0.0798
 3146W        W19220  10.228   6.856  14.463  0.1345  0.1175 -0.2113
 3147W        W19221  15.594   3.646  14.261 -0.0917 -0.1186  0.2609
 3148W        W19222  14.520  16.191   5.680 -0.1709 -0.2542  0.0501
 3149W        W19223   4.111  13.542  11.632  0.3024  0.1381 -0.1560
 3150W        W19224   7.713  18.504  12.683  0.3368 -0.3376  0.1865
 3151W        W19225  17.183   6.811   1.379 -0.0832  0.2379 -0.0381
 3152W        W19226   6.673   0.166   2.595 -0.0634  0.0849 -0.2027
 3153W        W19227  16.149  18.065   3.585 -0.1625  0.6129 -0.0062
 3154W        W19228  11.317   3.631   4.379 -0.0287 -0.0907 -0.0561
 3155W        W19229   7.803  13.580  11.459  0.1838  0.1849 -0.2117
 3156W        W19230   9.529   7.341  14.674  0.0408  0.0200 -0.1866
 3157W        W19231   3.062   2.633  12.334  0.1141 -0.1445  0.3056
 3158W        W19232   9.517  16.212   3.499 -0.1765 -0.2655  0.3646
 3159W        W19233   9.595   3.877   3.919  0.1590 -0.2914 -0.0257
 3160W        W19234  14.991  14.228  15.886  0.0523 -0.0610  0.4002
 3161W        W19235   8.505   4.202  14.463 -0.1405  0.0273  0.1013
 3162W        W19236  16.516   6.070  12.186  0.0366 -0.0389  0.1413
 3163W        W19237  16.625  17.289   1.509  0.0209 -0.0260  0.0056
 3164W        W19238  16.341   2.554   3.373  0.2720 -0.1777  0.0926
 3165W        W19239   3.629  12.835   4.411 -0.1740  0.1377  0.2234
 3166W        W19240   6.765  11.196   0.855  0.0367  0.4814  0.1795
 3167W        W19241   7.234   8.600  12.894  0.1045 -0.0053 -0.0765
 3168W        W19242   3.689   5.415  14.716 -0.2720 -0.1691 -0.2490
 3169W        W19243  14.791   4.138  12.876  0.0846  0.1099 -0.0285
 3170W        W19244   9.236  11.846  15.841  0.1737 -0.1441  0.2651
 3171W        W19245   2.512   1.361  15.233 -0.0791  0.3922  0.0148
 3172W        W19246   5.628   8.610   1.788 -0.1072  0.2400 -0.0818
 3173W        W19247   8.595   8.676   1.331 -0.1637 -0.2025  0.1884
 3174W        W19248   1.132   7.444  13.664  0.0547 -0.3239  0.0694
 3175W        W19249  13.029   8.634   4.197  0.0402 -0.0053 -0.0737
 3176W        W19250   8.196   9.940   1.202 -0.3468 -0.0167  0.3098
 3177W        W19251   8.821   0.419  14.036  0.2365  0.0168 -0.2149
 3178W        W19252   8.208   1.321   4.200 -0.2320  0.2026  0.1611
 3179W        W19253  12.053   4.247  11.152 -0.2404  0.0228  0.3109
 3180W        W19254  16.340   0.634   0.697  0.1017 -0.2540 -0.3500
 3181W        W19255   4.035   4.098  11.509 -0.1022  0.0649 -0.2347
 3182W        W19256  13.080  11.881   4.966  0.0202  0.2624  0.1795
 3183W        W19257  16.944  13.762  13.296  0.2749 -0.0052  0.0704
 3184W        W19258  17.254   8.802  12.509 -0.2271 -0.1215  0.0037
 3185W        W19259   3.665   3.503   0.248  0.2499 -0.2454 -0.2412
 3186W        W19260   4.101  13.596   2.956  0.1896 -0.5176 -0.1118
 3187W        W19261  18.529   8.226   0.251  0.0437  0.0180  0.2027
 3188W        W19262   7.556   7.185   3.272 -0.2361  0.2516  0.1901
 3189W        W19263   8.869   1.773   1.027  0.0503  0.0277 -0.2746
 3190W        W19264   8.906  18.093  13.055  0.2143  0.1140  0.1671
 3191W        W19265  11.435   1.665   1.867 -0.1146  0.1942  0.0061
 3192W        W19266  16.506  10.589   4.975  0.1325  0.1512 -0.1228
 3193W        W19267   1.061   0.648   3.086 -0.1402  0.0520  0.0345
 3194W        W19268  16.401   7.235   4.733  0.3447  0.0502 -0.2608
 3195W        W19269  14.239  10.259   2.436 -0.0529 -0.2103  0.1662
 3196W        W19270   2.126   7.424   3.497  0.2020  0.1385  0.1529
 3197W        W19271  13.022   5.146   3.288 -0.0561 -0.1276 -0.0456
 3198W        W19272  13.973   5.788   5.877  0.1467 -0.2101  0.1006
 3199W        W19273  17.275  11.525   0.219 -0.0387 -0.2221  0.0689
 3200W        W19274   0.165  10.330   3.197  0.0568 -0.4115 -0.0900
 3201W        W19275  18.491   5.165   0.247  0.1755  0.1517 -0.3801
 3202W        W19276   7.685   1.495   3.901  0.0129 -0.0425  0.0253
 3203W        W19277  10.235  13.397   2.201  0.4285  0.2962  0.0225
 3204W        W19278   9.361   6.911  14.423  0.1619 -0.2019 -0.0057
 3205W        W19279  14.863  10.499  12.910 -0.4764  0.1881 -0.0879
 3206W        W19280  15.103   4.001   0.930  0.2221 -0.2161 -0.0379
 3207W        W19281  10.402  10.385   3.890  0.3089 -0.1288 -0.0995
 3208W        W19282   9.152  17.706   1.600 -0.0726  0.0456  0.1256
 3209W        W19283   7.838  11.271  13.058 -0.0129  0.2446  0.0330
 3210W        W19284   5.743   1.435   4.493 -0.1726 -0.1059  0.2480
 3211W        W19285   4.178  14.354  13.465  0.0922  0.2720  0.2828
 3212W        W19286  10.955  11.443   6.105 -0.1383 -0.0302  0.0745
 3213W        W19287   2.184  13.602  12.755 -0.1806 -0.0368 -0.0011
 3214W        W19288   5.840  16.545   0.534  0.2907 -0.1570 -0.1710
 3215W        W19289  14.808  11.220  10.856 -0.0964  0.1053  0.0062
 3216W        W19290   0.536  18.333  13.772  0.4669 -0.2332 -0.0665
 3217W        W19291  10.643   9.269   5.756 -0.3390 -0.1960 -0.3551
 3218W        W19292   0.836   5.097  13.334 -0.0257 -0.4045  0.1143
 3219W        W19293  16.025  18.369   2.661  0.0558 -0.1374  0.0786
 3220W        W19294  13.561   1.379  14.224  0.2014 -0.3067  0.2652
 3221W        W19295  17.986  17.424   2.512 -0.3696  0.0602 -0.1676
 3222W        W19296  14.966   2.382   1.607  0.3504 -0.0430 -0.1351
 3223W        W19297  15.556  16.343  14.738  0.1541 -0.1597 -0.0201
 3224W        W19298  12.791   0.512  11.842 -0.0897  0.0741 -0.0134
 3225W        W19299   8.154  13.669  13.029  0.0994 -0.1303  0.4180
 3226W        W19300   0.237   4.268   1.906  0.0940 -0.0000 -0.2415
 3227W        W19301  15.581   5.252   9.899  0.1150  0.0869 -0.0155
 3228W        W19302  11.333  10.922  10.774  0.3707  0.0986  0.0455
 3229W        W19303  14.061   2.146   4.119 -0.1283 -0.2957  0.2623
 3230W        W19304   2.271  12.764  11.542 -0.3472 -0.3200  0.1852
 3231W        W19305  11.262  17.086   1.307 -0.0978 -0.0219  0.0146
 3232W        W19306  10.301   5.343  15.460  0.0742 -0.1648 -0.0377
 3233W        W19307   9.000  17.333   1.928 -0.2424  0.1330 -0.0679
 3234W        W19308   7.802   6.281   3.006 -0.1947  0.1912 -0.3424
 3235W        W19309  14.226   6.919  11.128  0.1085  0.0707  0.3442
 3236W        W19310   0.056  11.308  12.768 -0.0456 -0.1246  0.4303
 3237W        W19311  11.856   3.197  12.456  0.0206  0.0683 -0.0058
 3238W        W19312   8.911  15.032  12.460  0.0747 -0.0499 -0.2662
 3239W        W19313   5.483   3.732  14.143 -0.1365  0.2129  0.1287
 3240W        W19314  13.361   0.003  15.266 -0.0257  0.1168  0.5217
 3241W        W19315   3.587   0.746   2.180 -0.0796  0.0460 -0.4735
 3242W        W19316  16.380   5.573  13.283 -0.1664  0.2701  0.1348
 3243W        W19317   1.794   2.437   1.834 -0.0444  0.0475 -0.0094
 3244W        W19318  12.108   4.487   3.131  0.2653 -0.0110  0.1583
 3245W        W19319   6.520  17.269   4.376  0.2414  0.0806  0.1664
 3246W        W19320   1.343  13.474   2.916  0.1836  0.1701 -0.2388
 3247W        W19321  14.904   2.504   2.526  0.0736 -0.1327 -0.0323
 3248W        W19322  17.030   7.273   5.377 -0.0589  0.1274  0.0633
 3249W        W19323  14.581  17.714   5.139 -0.2224  0.0832  0.0059
 3250W        W19324  16.475   5.644  14.810 -0.0980 -0.1872 -0.0635
 3251W        W19325   9.468   3.132   0.890 -0.1774  0.0712 -0.2000
 3252W        W19326   2.045   2.223  11.171 -0.0847  0.0579  0.0769
 3253W        W19327  14.806   5.015   0.212  0.0242  0.3881 -0.1995
 3254W        W19328  12.757   6.648  12.149 -0.3360 -0.1600 -0.2232
 3255W        W19329  16.610   9.973   3.650  0.5369  0.1414 -0.0682
 3256W        W19330   4.790   9.263  11.086 -0.1618 -0.3949 -0.0324
 3257W        W19331   1.934   9.017   2.185 -0.0820  0.0615  0.1294
 3258W        W19332  10.284   9.814  12.684 -0.1131  0.2297 -0.0963
 3259W        W19333  18.161   9.780   1.402  0.2469 -0.2278  0.0745
 3260W        W19334   3.050  14.283  11.896  0.0199  0.2559  0.0533
 3261W        W19335  11.349   6.492  14.937 -0.1371 -0.1131 -0.1502
 3262W        W19336  17.275   5.673   0.100  0.0494  0.2225  0.0112
 3263W        W19337   4.749   7.705   5.256 -0.1479  0.0792 -0.3597
 3264W        W19338   4.461  18.022   2.964  0.1310  0.3256 -0.0115
 3265W        W19339   8.037   3.995  15.289 -0.1886 -0.2859  0.0178
 3266W        W19340  10.202   1.779  12.650 -0.2041  0.0682 -0.0245
 3267W        W19341  10.772  17.315   0.163 -0.0287  0.1224  0.2013
 3268W        W19342   0.646   9.952   4.624 -0.3059 -0.1447 -0.1257
 3269W        W19343   6.862   4.077  11.766  0.1030  0.1007  0.0272
 3270W        W19344   3.833   3.217  12.275  0.1025  0.6880 -0.0195
 3271W        W19345   9.926  17.840  14.270 -0.0958  0.1015 -0.0724
 3272W        W19346   5.851  12.109   1.018 -0.0178 -0.1896  0.1238
 3273W        W19347   0.629  13.703   2.585  0.0568 -0.0684 -0.1297
 3274W        W19348   7.645  12.423  11.622 -0.1578 -0.1471 -0.0534
 3275W        W19349  14.309  12.607   5.578 -0.1633  0.2061 -0.3427
 3276W        W19350   5.722  12.536  15.423  0.3299 -0.0565  0.1358
 3277W        W19351  17.716  11.074  13.992 -0.2151  0.1727  0.1025
 3278W        W19352   2.407   4.813   5.494 -0.0206 -0.0379  0.0205
 3279W        W19353   5.464   9.830   4.117 -0.2139  0.1539  0.0687
 3280W        W19354  11.401  11.273  11.643 -0.1884  0.0685 -0.1696
 3281W        W19355   3.610   7.924   2.159  0.3677 -0.1041 -0.0247
 3282W        W19356   6.681   6.471   3.987 -0.2168 -0.0246  0.3179
 3283W        W19357   4.376   1.983  11.359 -0.0751  0.0845  0.2062
 3284W        W19358  11.659  14.468  15.128 -0.1074 -0.1008  0.3566
 3285W        W19359   6.358  11.634  12.796  0.1401  0.0053 -0.0156
 3286W        W19360   3.361   5.250   0.637  0.1218  0.0263  0.0437
 3287W        W19361   6.405  14.338   4.557  0.2380  0.0282 -0.1875
 3288W        W19362  11.229  13.648  12.384  0.2972  0.0617  0.0595
 3289W        W19363  14.017  12.740   0.025  0.1744  0.3420  0.2443
 3290W        W19364   8.534   9.275   1.475  0.1214 -0.3369 -0.1860
 3291W        W19365  10.017   3.807   1.420 -0.2714  0.1496 -0.0116
 3292W        W19366  16.994  10.310  14.736 -0.1043  0.3057 -0.0810
 3293W        W19367   8.274  16.271  11.948 -0.2303  0.1880 -0.2011
 3294W        W19368   3.008   7.140   3.664 -0.0540  0.0757  0.4232
 3295W        W19369  16.896   9.165  15.336 -0.1391 -0.2129 -0.0217
 3296W        W19370  16.144   0.134  11.489 -0.4612  0.2415 -0.2800
 3297W        W19371   4.550  15.763  15.226 -0.0279 -0.0950  0.3036
 3298W        W19372   2.055  13.793   0.465  0.0327 -0.0153 -0.0500
 3299W        W19373  13.229  16.405  11.657  0.3107 -0.0124  0.0934
 3300W        W19374   2.875   7.096   4.165  0.0642 -0.0436  0.0081
 3301W        W19375   5.098  10.411   3.033 -0.2667  0.0184 -0.0194
 3302W        W19376  10.774   1.289   4.592  0.1620 -0.1788  0.3755
 3303W        W19377   3.950  17.147  14.651 -0.3169  0.1189  0.0027
 3304W        W19378  14.096  13.943  12.854  0.0252 -0.0325  0.0498
 3305W        W19379  17.385   8.229  15.525 -0.0153 -0.2378  0.0930
 3306W        W19380   3.208   5.621  14.202 -0.3253 -0.0201  0.0004
 3307W        W19381   7.109   0.868  13.738 -0.2722  0.0264 -0.1194
 3308W        W19382  11.605   6.754   4.731  0.0007  0.2602  0.1762
 3309W        W19383   7.943  15.025  12.363  0.0663 -0.0596  0.0730
 3310W        W19384   0.006  13.481   5.465 -0.1846  0.2549 -0.1359
 3311W        W19385  13.401   5.300  10.178 -0.0888  0.0748  0.0096
 3312W        W19386  16.915  12.943  11.583  0.0062 -0.0974  0.1546
 3313W        W19387  12.939  11.306   0.425  0.0365 -0.2167 -0.1499
 3314W        W19388  12.292  16.982  12.534  0.5364 -0.2417 -0.1945
 3315W        W19389   9.346   8.057   0.081  0.0623  0.0679  0.0652
 3316W        W19390  13.910  15.719   1.495  0.2261 -0.0576  0.2553
 3317W        W19391   1.608   7.606   0.564  0.0140  0.2142 -0.0492
 3318W        W19392   3.584  15.681  14.110  0.1897 -0.3681 -0.1140
 3319W        W19393  11.687   8.476  11.385  0.1973 -0.0885  0.0749
 3320W        W19394  10.794  14.578  15.191 -0.0629 -0.0055 -0.0293
 3321W        W19395   9.351  17.428   3.025  0.1901 -0.0591 -0.3321
 3322W        W19396  13.317  12.602  11.990  0.2627 -0.1528 -0.1013
 3323W        W19397   8.749   3.202  12.487  0.2749 -0.1468  0.2143
 3324W        W19398   0.307  10.594  13.556 -0.1746 -0.1015  0.1133
 3325W        W19399   6.045  13.976  10.193  0.0368  0.0691 -0.4613
 3326W        W19400   2.112   6.459  12.693 -0.4767  0.3516  0.4674
 3327W        W19401  13.543  18.342   5.174 -0.1818  0.0619  0.1051
 3328W        W19402   1.236  10.596   1.131 -0.0569  0.1010 -0.0478
 3329W        W19403   5.953   2.863   0.400 -0.3056  0.1769 -0.0930
 3330W        W19404   9.856   4.817   3.097  0.2927  0.2267  0.0001
 3331W        W19405  13.183   1.609  12.715  0.2383  0.0317 -0.1295
 3332W        W19406   0.714  12.252  12.891  0.0953 -0.0751 -0.0874
 3333W        W19407   9.220   3.327   3.225  0.0136 -0.0759  0.2480
 3334W        W19408  12.598   6.159  12.342  0.0083  0.2014 -0.2010
 3335W        W19409  14.908   2.054  15.049 -0.0847  0.0147  0.0553
 3336W        W19410  18.012  17.074  12.165 -0.0829 -0.3866  0.1283
 3337W        W19411  18.509   8.548  14.782 -0.0112 -0.2073 -0.0547
 3338W        W19412   9.558   1.796   5.797  0.0479 -0.1251 -0.0219
 3339W        W19413  11.764  11.818  14.233 -0.1853  0.0101 -0.1878
 3340W        W19414   6.827  12.842  10.382  0.2043  0.1321 -0.1535
 3341W        W19415   8.653   3.342  11.361 -0.0536 -0.1288 -0.0201
 3342W        W19416  10.852   5.199   1.228 -0.0342  0.1275 -0.3402
 3343W        W19417   6.239  16.645   0.087 -0.0866 -0.1419  0.2411
 3344W        W19418   3.393   9.040   5.592 -0.1785 -0.0502 -0.2041
 3345W        W19419   5.625   9.193   5.454  0.2397 -0.3073  0.2459
 3346W        W19420  10.485  13.110   1.399 -0.0439 -0.4073 -0.0328
 3347W        W19421   1.009   3.753   4.273 -0.3299  0.2446  0.1169
 3348W        W19422  12.487  10.228  11.599 -0.1532 -0.0861 -0.1200
 3349W        W19423  17.453   3.460  11.882 -0.0549  0.0313 -0.1437
 3350W        W19424   4.460   0.667  11.067 -0.1492  0.0644 -0.3181
 3351W        W19425   8.934   0.804  15.269  0.3390  0.2334  0.1513
 3352W        W19426   4.137   0.483  15.421  0.0401  0.3556  0.2332
 3353W        W19427   1.250   6.971   0.160  0.1080  0.2452  0.0554
 3354W        W19428  13.043   9.900  12.228 -0.0958 -0.0990  0.0915
 3355W        W19429   7.204  12.067  13.039 -0.0717  0.4101  0.2910
 3356W        W19430   6.527   5.258   5.886 -0.1042  0.2279  0.0717
 3357W        W19431   6.062  17.529  11.465 -0.0307  0.0484  0.0311
 3358W        W19432   2.217   6.540   3.076  0.1315 -0.2087 -0.2006
 3359W        W19433   5.294  18.054   2.594 -0.2593 -0.0515  0.1057
 3360W        W19434  14.930  12.778   0.049 -0.0921  0.1321 -0.0982
 3361W        W19435  12.501   2.970   3.382 -0.1075  0.0136  0.0932
 3362W        W19436   4.678   5.070  12.803 -0.4038 -0.1361 -0.1981
 3363W        W19437   0.133   2.009   3.109  0.4760 -0.0461  0.0762
 3364W        W19438  18.466   3.210  15.016 -0.3983  0.2219  0.0446
 3365W        W19439   3.897  10.454  11.308 -0.1353 -0.3089 -0.2769
 3366W        W19440  12.641  13.801  15.506  0.0641  0.1225 -0.0686
 3367W        W19441  16.379   7.266   3.229 -0.0929  0.2927  0.0117
 3368W        W19442  10.531  14.289   5.114  0.0456 -0.2645 -0.0727
 3369W        W19443  17.735   0.958   4.265  0.2026  0.2501 -0.1006
 3370W        W19444  13.207   3.390  12.861 -0.0090  0.1476  0.1660
 3371W        W19445  11.113  18.500   0.015  0.1156 -0.2679  0.2877
 3372W        W19446  12.040  11.981  11.508  0.1453 -0.2391 -0.2084
 3373W        W19447   9.149   0.558  14.901 -0.0687 -0.0971 -0.4503
 3374W        W19448  14.435  16.253   1.929 -0.2695  0.0612 -0.0588
 3375W        W19449   5.263  17.073  12.686 -0.1035  0.0865 -0.2488
 3376W        W19450  16.883   0.759  15.380 -0.1013  0.1901 -0.0274
 3377W        W19451  18.358  10.401   5.636 -0.0076 -0.3723  0.2535
 3378W        W19452  12.409  18.384  11.683  0.0048 -0.2577 -0.2009
 3379W        W19453  14.430   3.859   4.317 -0.1470 -0.4647 -0.2137
 3380W        W19454   0.088   3.969   4.010 -0.0687  0.0326 -0.1269
 3381W        W19455   7.883   4.030  12.378  0.0599  0.2668 -0.1396
 3382W        W19456  14.852  10.928   5.011  0.3514 -0.2470 -0.0838
 3383W        W19457   8.426  18.260  14.280 -0.4447  0.1788 -0.0180
 3384W        W19458   7.500   2.178   2.058  0.0064 -0.0823  0.0764
 3385W        W19459   4.763   3.154  15.155  0.2955  0.0439 -0.0431
 3386W        W19460   7.955  10.915  12.676  0.3068 -0.2978 -0.0878
 3387W        W19461  12.694   9.919   4.315  0.0598  0.1917  0.2393
 3388W        W19462  13.038   9.380   0.238  0.2622  0.0531 -0.0866
 3389W        W19463  14.409   1.163   3.383 -0.1612 -0.0409  0.1430
 3390W        W19464   3.404   2.317  11.332 -0.0585 -0.0504 -0.2509
 3391W        W19465  13.632   2.416   4.287  0.0119  0.0116 -0.0446
 3392W        W19466  18.366  13.866  12.299 -0.2104  0.0163  0.0286
 3393W        W19467   7.705   1.968   5.489 -0.1916  0.2258 -0.1031
 3394W        W19468   2.020   9.894   1.219 -0.4088  0.1508 -0.1002
 3395W        W19469  14.919  13.189  13.672  0.2094 -0.0365 -0.0005
 3396W        W19470   5.260  14.272   2.759 -0.3703  0.1606  0.1660
 3397W        W19471  10.084  17.769  13.384 -0.0681  0.2161  0.3475
 3398W        W19472  18.058   1.819   3.563 -0.1275 -0.0269 -0.0132
 3399W        W19473   0.012   3.105   2.505 -0.2935 -0.0153 -0.2735
 3400W        W19474  17.101   0.488   3.249 -0.0975 -0.0287  0.2305
 3401W        W19475   6.814  13.512   2.115  0.0284  0.4340 -0.0926
 3402W        W19476   7.578  13.251  15.582  0.1886 -0.1046  0.2594
 3403W        W19477   7.410  11.272   2.950 -0.0195 -0.1651  0.2525
 3404W        W19478  13.531   9.918  12.153 -0.3690  0.2240 -0.0515
 3405W        W19479  14.577   4.606   2.517 -0.2520  0.4103 -0.1491
 3406W        W19480   4.622   3.080   1.737 -0.0244  0.2612  0.0739
 3407W        W19481  18.299   8.897   1.897 -0.0306  0.1422 -0.0934
 3408W        W19482  17.461  17.049   3.547  0.0875 -0.0852 -0.0069
 3409W        W19483  15.610   5.178   3.809 -0.1822 -0.1995  0.0241
 3410W        W19484  17.113   3.564   5.235  0.2709  0.1920 -0.1392
 3411W        W19485  13.970  13.317  15.230  0.0985 -0.2010 -0.0872
 3412W        W19486  11.565   7.763  10.923 -0.1322  0.1835  0.3189
 3413W        W19487   0.180   6.290   2.443 -0.0389  0.1133 -0.0394
 3414W        W19488  16.767   7.900   0.454 -0.0810  0.3025 -0.1858
 3415W        W19489   4.620  17.313   3.316  0.1996  0.1261  0.0533
 3416W        W19490   7.400  14.546   1.871 -0.2864  0.0426  0.2220
 3417W        W19491   0.337   5.391  11.657 -0.1219  0.0211 -0.1380
 3418W        W19492  18.059  15.448  11.509 -0.0182 -0.0274 -0.2706
 3419W        W19493   0.749  13.540  12.673  0.0755 -0.0495 -0.2362
 3420W        W19494   5.359  16.216  14.933  0.3387 -0.0135 -0.0613
 3421W        W19495  10.029   5.817  11.764  0.1787 -0.3457 -0.0376
 3422W        W19496  12.204   2.449   2.818 -0.2054 -0.1832 -0.2273
 3423W        W19497  12.870  12.776  12.334 -0.0035  0.0097  0.0564
 3424W        W19498  12.291  15.469   0.630  0.3384  0.0579 -0.3865
 3425W        W19499  16.473   6.722   2.101  0.2265 -0.3967  0.2011
 3426W        W19500  11.961   3.397  10.970 -0.2942  0.1216  0.0511
 3427W        W19501  11.259  18.002  10.958  0.1772  0.1220  0.1993
 3428W        W19502   5.088  16.601  10.994 -0.2733 -0.0350 -0.1083
 3429W        W19503  12.581  18.011  15.999 -0.2508  0.0519  0.1286
 3430W        W19504   9.204   7.982   4.815 -0.0568  0.0896  0.2480
 3431W        W19505   8.319  13.902   5.925  0.1217 -0.0276  0.2940
 3432W        W19506  12.650   0.301  12.421  0.0600  0.0560  0.0249
 3433W        W19507   3.405  16.741   2.595 -0.2513 -0.0598  0.2253
 3434W        W19508  11.272  12.260   4.838 -0.0276  0.1258  0.1102
 3435W        W19509  18.014   4.135  11.955  0.3130  0.1229 -0.0781
 3436W        W19510   8.358  11.675  13.659  0.1194  0.0060 -0.1652
 3437W        W19511   3.141   4.186  12.089  0.0091 -0.0820 -0.3737
 3438W        W19512  13.085  11.821  14.989  0.5407 -0.1296 -0.1184
 3439W        W19513  17.616   0.233   1.999  0.1419 -0.0033  0.1352
 3440W        W19514   6.470  11.987   3.118 -0.1954 -0.2742 -0.2874
 3441W        W19515  15.052   7.476  12.363  0.0546 -0.2642 -0.0354
 3442W        W19516  17.173  13.500   1.289 -0.1282 -0.2115  0.2279
 3443W        W19517  10.813   2.432   3.164 -0.2337  0.2041 -0.2143
 3444W        W19518   4.352  13.704   1.134  0.2288  0.1369 -0.0706
 3445W        W19519   7.211   7.523  14.178  0.1866 -0.4012  0.2084
 3446W        W19520   9.708  14.431   4.433 -0.0053  0.1856  0.0002
 3447W        W19521   2.800   7.159  15.197  0.0279 -0.0280  0.1014
 3448W        W19522   9.658   1.822   0.334  0.4948  0.0808 -0.0454
 3449W        W19523   3.099   0.627  14.641 -0.0122  0.0026  0.1192
 3450W        W19524  16.430   4.174  12.114  0.2480 -0.0590 -0.0375
 3451W        W19525  17.013   1.239  12.629  0.0937 -0.1851  0.2168
 3452W        W19526  10.311  13.441   3.370  0.2744  0.1570 -0.0263
 3453W        W19527   6.472   9.896  12.923  0.0678  0.4179 -0.1941
 3454W        W19528   3.166  16.340  13.507 -0.0762 -0.0154  0.0473
 3455W        W19529   3.944  17.446   0.982  0.1943  0.1149 -0.1346
 3456W        W19530  14.659   0.258  15.840  0.0474 -0.0436 -0.2238
 3457W        W19531  11.308   3.232   4.712  0.0648 -0.0451 -0.3074
 3458W        W19532   8.027   6.651   2.649  0.1373  0.2900 -0.1805
 3459W        W19533   3.756  15.141   0.327  0.0792 -0.0265  0.0460
 3460W        W19534  15.348  12.197   4.921 -0.1874 -0.0355  0.0281
 3461W        W19535  17.328   7.171   4.061 -0.3238  0.1352 -0.2586
 3462W        W19536   2.073  13.864   2.608 -0.0712  0.2258  0.2016
 3463W        W19537   7.710  16.944  13.632 -0.0095  0.3149 -0.1388
 3464W        W19538  13.622   1.112   1.221  0.1371  0.2140  0.1229
 3465W        W19539   6.087   8.131   4.021  0.0402  0.1282  0.1918
 3466W        W19540   8.977   9.216  11.115 -0.0668  0.0916 -0.1410
 3467W        W19541   8.152   9.293  12.150  0.0885 -0.2013 -0.0063
 3468W        W19542  15.040  12.170   3.347  0.2715 -0.0748 -0.1325
 3469W        W19543  10.331   1.970  14.696  0.0211 -0.1822  0.2690
 3470W        W19544  11.775   9.421   4.505  0.0231  0.1717 -0.1117
 3471W        W19545   1.667  15.135   2.601 -0.3818 -0.1591 -0.1146
 3472W        W19546   0.077  10.127  16.027 -0.0762 -0.1938  0.1240
 3473W        W19547  10.129  13.860  15.265 -0.0142 -0.3121 -0.2356
 3474W        W19548  13.551   2.294   3.757  0.0876 -0.3968  0.0179
 3475W        W19549  17.156   2.704  12.955  0.0955  0.0528  0.0852
 3476W        W19550   2.504  12.398   2.554 -0.4023  0.1483  0.1470
 3477W        W19551  17.144  17.529   4.893 -0.0767  0.0812 -0.0456
 3478W        W19552  18.478   3.451  13.153 -0.1017  0.1773 -0.2352
 3479W        W19553   9.432  16.513   0.880 -0.0076  0.5271 -0.2536
 3480W        W19554   3.066  16.036  14.896 -0.1333  0.2041 -0.3408
 3481W        W19555   0.146   8.255   0.763 -0.2156  0.2705 -0.0752
 3482W        W19556   8.413  17.353   3.072  0.1583  0.0942 -0.0737
 3483W        W19557   9.436   7.598   4.436  0.0369  0.2584 -0.3047
 3484W        W19558  17.141   5.009   2.360 -0.1223 -0.0855  0.0849
 3485W        W19559  13.804   8.021  12.397 -0.0813 -0.1276 -0.0313
 3486W        W19560   4.774   5.685   4.856  0.1725  0.0790 -0.0026
 3487W        W19561  10.317   4.796   1.205 -0.0009  0.2504  0.1274
 3488W        W19562   2.582   0.006   2.701 -0.0042 -0.1936  0.2706
 3489W        W19563   1.118  16.458  14.510  0.0357 -0.1587 -0.1394
 3490W        W19564   6.499   1.663  14.591 -0.2197 -0.1513  0.0234
 3491W        W19565   2.044  16.295   1.886 -0.3056 -0.0483  0.1157
 3492W        W19566   5.359   9.392  13.825  0.1521 -0.0463 -0.1855
 3493W        W19567   0.776   7.571  14.037 -0.0314  0.1327  0.1582
 3494W        W19568  12.443   9.063  10.944  0.0335 -0.1690 -0.3610
 3495W        W19569  14.555   3.872   2.267  0.1862  0.1565  0.0720
 3496W        W19570   2.607  14.282   1.327  0.0593  0.2608 -0.1996
 3497W        W19571  17.423   1.374   3.053 -0.1175  0.0472 -0.1823
 3498W        W19572   3.026   5.548  11.007  0.2449  0.0891  0.4561
 3499W        W19573   3.513   6.319   0.151 -0.0571  0.1137  0.1128
 3500W        W19574  16.656  15.542   1.247 -0.2890  0.0701  0.1121
 3501W        W19575   9.623  18.498  10.843 -0.1242 -0.0683 -0.1000
 3502W        W19576  13.620   1.801  12.950  0.1464  0.3767 -0.1197
 3503W        W19577  11.364  17.673  11.326 -0.0442 -0.0871  0.1543
 3504W        W19578  15.631   4.003  12.523 -0.1170 -0.1842 -0.1860
 3505W        W19579  14.234  15.669   4.059 -0.1876 -0.1391 -0.0912
 3506W        W19580  13.597   5.346   5.082 -0.0549  0.0810  0.0377
 3507W        W19581   6.911  13.499   0.992  0.0589  0.0538  0.1986
 3508W        W19582  13.060  14.042  11.030 -0.0042  0.2230  0.0770
 3509W        W19583  17.203   5.341  15.557  0.1316 -0.1227 -0.0652
 3510W        W19584   9.997   1.032   3.450  0.1215 -0.2219 -0.0660
 3511W        W19585   3.579   8.968  15.435 -0.1585  0.0822 -0.3877
 3512W        W19586  15.876  11.172  13.510  0.1805  0.2465  0.1663
 3513W        W19587  14.847  13.154  14.223  0.0608  0.4055 -0.3313
 3514W        W19588  10.829   6.769   3.211 -0.1995  0.0402  0.0320
 3515W        W19589   2.200  18.014  13.110  0.0309 -0.0860 -0.1164
 3516W        W19590   1.144  12.371   3.556 -0.0631 -0.1580  0.0707
 3517W        W19591   7.954  11.470   2.891  0.1754  0.1346 -0.2295
 3518W        W19592   0.719  16.202  15.957  0.0570 -0.0120 -0.2839
 3519W        W19593   5.228   1.875  13.321 -0.0194  0.2903 -0.0891
 3520W        W19594  14.598  10.297   4.267 -0.0489  0.1234  0.0266
 3521W        W19595  14.463   6.660   0.225  0.2481 -0.0759 -0.0557
 3522W        W19596  11.881  12.656  14.437  0.0007  0.1606 -0.0914
 3523W        W19597   5.151   8.714  15.428 -0.1474  0.0585 -0.0905
 3524W        W19598   3.142   3.108   2.059 -0.2647  0.0063 -0.1088
 3525W        W19599   8.585  14.673  15.542 -0.0771 -0.0721  0.1065
 3526W        W19600   4.569  12.261  14.167 -0.2792 -0.1534  0.0040
 3527W        W19601  11.381  12.605  15.737 -0.1952 -0.2565  0.2553
 3528W        W19602  12.342  18.499  16.017 -0.2060  0.2108 -0.0113
 3529W        W19603   9.294   0.416   1.068  0.0376 -0.1336 -0.1141
 3530W        W19604  13.333   3.808   2.992 -0.0615 -0.1347  0.0436
 3531W        W19605   4.286  13.618   4.573 -0.0058 -0.0506  0.0286
 3532W        W19606  11.949   0.747   2.947  0.3138  0.1669  0.0840
 3533W        W19607   0.361   4.435   1.412  0.3422 -0.1189 -0.4434
 3534W        W19608  12.836   7.962  12.041 -0.0181  0.3352  0.0994
 3535W        W19609  14.113  12.368  11.440  0.0656  0.1769 -0.1153
 3536W        W19610   9.621  11.846   1.283  0.1297 -0.0029  0.0540
 3537W        W19611  11.518   6.591   1.645 -0.0825 -0.2557  0.0583
 3538W        W19612   7.295   3.873   2.939 -0.1258 -0.0853 -0.0424
 3539W        W19613  15.234   4.161  11.478 -0.0321 -0.0389 -0.2033
 3540W        W19614  17.154   3.489   4.690 -0.0101 -0.1410  0.0236
 3541W        W19615  17.160   2.881   1.536  0.2147 -0.0737 -0.2675
 3542W        W19616  13.026  16.728   2.636 -0.0773 -0.0378  0.0018
 3543W        W19617   8.792  11.143  14.607 -0.3108 -0.3634  0.1956
 3544W        W19618  12.290   4.531  11.941 -0.2106  0.3044  0.0065
 3545W        W19619  16.902   0.324   1.469  0.2332 -0.0895  0.0583
 3546W        W19620  15.258  16.294   1.876  0.1700  0.0388  0.0778
 3547W        W19621  11.948  10.382  13.883  0.0371 -0.2226 -0.0090
 3548W        W19622  12.943  18.002   2.356  0.0409 -0.1212 -0.0070
 3549W        W19623   3.049   7.991   4.949  0.1745  0.0408  0.1585
 3550W        W19624  16.844   1.559   3.268  0.3312 -0.1740  0.0709
 3551W        W19625   4.313   3.037   5.152  0.1329 -0.0585  0.0387
 3552W        W19626  15.928   4.701  13.175 -0.1218 -0.0095 -0.1299
 3553W        W19627  16.322  11.308  16.021 -0.0867  0.0246 -0.2370
 3554W        W19628   2.727   1.065  10.952 -0.1830  0.2605 -0.1270
 3555W        W19629  11.801   6.627   2.056  0.2807  0.1297  0.2371
 3556W        W19630  10.475   9.949   3.220  0.2384  0.0890  0.0182
 3557W        W19631  16.554   3.529  12.791 -0.2158 -0.2300  0.1048
 3558W        W19632  13.625  16.594   5.526  0.3174  0.4776  0.0244
 3559W        W19633   2.596  11.393  12.429 -0.2139 -0.0326  0.3422
 3560W        W19634   8.314   1.414   0.974 -0.2896  0.0188  0.0834
 3561W        W19635   0.515  14.312  13.176  0.1962  0.1050 -0.1079
 3562W        W19636   6.156   2.204  15.019  0.2579  0.2522 -0.0703
 3563W        W19637   0.344   0.289   0.588 -0.4802  0.0648  0.1620
 3564W        W19638  14.603   5.417  11.411 -0.0787 -0.0708  0.0704
 3565W        W19639   1.678  14.006   0.841  0.0441 -0.2728 -0.3010
 3566W        W19640   6.065   2.441   2.608 -0.1740  0.0187  0.1033
 3567W        W19641  14.053  17.666  15.793 -0.2785 -0.0697  0.0088
 3568W        W19642  12.689   3.806   0.420  0.1508  0.2120  0.0128
 3569W        W19643   1.519   8.972  13.152 -0.2668 -0.1160  0.1587
 3570W        W19644   1.297   2.456  15.766 -0.2433  0.4938 -0.3114
 3571W        W19645  18.517  17.623  11.536  0.0156  0.1670  0.0673
 3572W        W19646   7.448   9.440   5.258 -0.2597  0.0147 -0.1211
 3573W        W19647   6.845  10.479  14.183 -0.1235  0.0865 -0.1735
 3574W        W19648  15.168   5.343   1.320 -0.0603 -0.0002 -0.2668
 3575W        W19649   0.757  10.627   1.525 -0.1234  0.3085  0.0955
 3576W        W19650   8.346  13.057  14.025 -0.2809 -0.2057  0.1989
 3577W        W19651   6.779   9.144  15.011 -0.1874 -0.1757 -0.1641
 3578W        W19652   8.738   2.821  14.621 -0.4714 -0.1275 -0.0088
 3579W        W19653  15.631  10.205  10.684  0.2264  0.1180 -0.1844
 3580W        W19654   1.749   2.686   4.941  0.1963 -0.1654 -0.3685
 3581W        W19655  14.416   3.597  11.265  0.1467  0.3138  0.2034
 3582W        W19656   3.326  17.349  13.870  0.2663 -0.2274  0.0823
 3583W        W19657  13.006  14.299   4.073  0.3632  0.0612 -0.1157
 3584W        W19658   8.385   0.886  11.894 -0.0178  0.2500 -0.1233
 3585W        W19659  18.473   5.353  15.055  0.2804  0.2367  0.1548
 3586W        W19660   9.720   4.299  12.494  0.0946  0.1418  0.0113
 3587W        W19661  11.423  13.623   1.614  0.2544 -0.0126  0.2839
 3588W        W19662   9.480   5.181  14.101  0.1278 -0.0761  0.0125
 3589W        W19663   3.545   9.863   3.302 -0.1654  0.1782  0.0218
 3590W        W19664  17.434  11.134  14.484  0.0841 -0.1678 -0.0503
 3591W        W19665   3.823  17.270   5.257 -0.1723 -0.0901  0.2292
 3592W        W19666  10.446   7.464   5.281 -0.1322 -0.0645 -0.0150
 3593W        W19667   8.095  17.790   2.144  0.0786  0.1499 -0.2108
 3594W        W19668  18.229   3.384  15.950 -0.4164 -0.2870 -0.1793
 3595W        W19669  12.602   5.683  12.160 -0.2106 -0.0556  0.1591
 3596W        W19670   6.340  12.683   1.845 -0.0197 -0.1086 -0.0052
 3597W        W19671   7.750  14.625   4.197 -0.1947 -0.1743 -0.1633
 3598W        W19672  10.477  12.929   3.348  0.1205 -0.0743 -0.1461
 3599W        W19673   2.545   4.067   1.625 -0.2712 -0.0956 -0.1157
 3600W        W19674  10.088   4.440   2.192 -0.3537  0.1627  0.1744
 3601W        W19675   6.898  13.921   5.978  0.2011  0.1895 -0.1172
 3602W        W19676   2.619   4.938   0.072  0.2807 -0.1171 -0.0535
 3603W        W19677  10.487   9.234   3.497 -0.1906 -0.0433 -0.1315
 3604W        W19678   7.202  15.614  14.920 -0.0478 -0.2251 -0.3609
 3605W        W19679   0.329   2.865  14.528  0.4160 -0.0402 -0.1229
 3606W        W19680  10.296  17.427  12.998  0.3681  0.0464 -0.1446
 3607W        W19681   4.895   3.259   0.890  0.0329 -0.0594  0.0235
 3608W        W19682   5.326  12.788  13.214  0.0066  0.2755 -0.0843
 3609W        W19683   9.912   7.829  14.191 -0.0474  0.0369 -0.0852
 3610W        W19684   0.184   4.903  15.275 -0.0462  0.2396  0.3530
 3611W        W19685  10.087   1.130  13.427 -0.1378  0.1823 -0.0753
 3612W        W19686   0.078  14.145   1.928  0.0420 -0.0011  0.0272
 3613W        W19687   6.005  17.916  14.732  0.0700  0.0194 -0.1369
 3614W        W19688   1.883  12.851  13.235  0.0231  0.1809 -0.3297
 3615W        W19689  17.984   5.709  13.980 -0.2014 -0.0644  0.3137
 3616W        W19690   4.334   8.855   2.944  0.3126  0.1209  0.3243
 3617W        W19691   8.076   8.449   4.236 -0.0471 -0.1145  0.1066
 3618W        W19692   2.280  11.024  11.664  0.2049 -0.1413 -0.0182
 3619W        W19693  11.039  13.359  14.778 -0.3810 -0.1616 -0.5190
 3620W        W19694   3.629   8.907  13.237  0.0120 -0.1783 -0.2877
 3621W        W19695  11.434  10.173   0.117 -0.4398  0.3121  0.4964
 3622W        W19696  10.968   8.902   1.402 -0.2911 -0.3946  0.0179
 3623W        W19697   7.509   7.457   4.877  0.3295 -0.1461  0.2219
 3624W        W19698  15.956   8.458  12.857  0.1460  0.1002 -0.1493
 3625W        W19699  10.647  13.685  11.457 -0.0858  0.1472 -0.0726
 3626W        W19700   0.413   9.736   0.132  0.2086 -0.1573  0.0870
 3627W        W19701   2.228  13.377   1.891 -0.0818 -0.4452  0.0645
 3628W        W19702  14.347  18.313  14.832  0.0651 -0.0185 -0.1856
 3629W        W19703   9.913   6.587  13.202 -0.0146  0.2406 -0.1586
 3630W        W19704  15.428  12.443  15.707 -0.0914  0.0022  0.0248
 3631W        W19705   9.933  10.584  11.653 -0.0371  0.0676 -0.0975
 3632W        W19706   8.236  16.584  15.378  0.3048  0.0840 -0.0134
 3633W        W19707   7.576  14.716  14.395  0.0103  0.0837 -0.1706
 3634W        W19708   5.233  18.509   9.987 -0.1481 -0.1135  0.1861
 3635W        W19709   0.672  12.339  14.012  0.0596  0.1309  0.1981
 3636W        W19710   5.246  10.262  15.040  0.3228  0.0630 -0.1807
 3637W        W19711  12.446  17.219   0.489  0.0825  0.4144  0.1398
 3638W        W19712  16.524   3.696  11.754 -0.3572 -0.0509 -0.1142
 3639W        W19713   5.740   5.519  14.032  0.1054 -0.0238  0.3568
 3640W        W19714   6.532  11.891   0.435 -0.2865 -0.0968 -0.1003
 3641W        W19715   5.822   8.539   1.251 -0.1307  0.0136  0.1059
 3642W        W19716  11.563   1.297  13.319  0.2077 -0.1876 -0.0164
 3643W        W19717   3.002   7.648   0.371  0.2068 -0.3503 -0.0338
 3644W        W19718  15.306  18.077  15.256 -0.3302  0.1080  0.2240
 3645W        W19719  17.873   5.370   4.458 -0.1444 -0.1244  0.1186
 3646W        W19720  14.445  11.887   2.012 -0.1936 -0.0954 -0.0369
 3647W        W19721  15.508  14.347  13.698  0.2703 -0.1669  0.2874
 3648W        W19722  14.618  14.538   0.677 -0.1858  0.0257  0.0221
 3649W        W19723   3.513  17.111  14.409  0.0282 -0.0225  0.3666
 3650W        W19724   1.788  16.448   5.516  0.2606  0.0821  0.0157
 3651W        W19725  14.832  14.485  13.815 -0.0234 -0.1359  0.1598
 3652W        W19726  18.090  14.976   1.957 -0.1330  0.2107  0.2650
 3653W        W19727  17.018  17.136  13.673  0.2705  0.1442 -0.1938
 3654W        W19728  16.148   7.103  13.243  0.0472  0.2104 -0.4115
 3655W        W19729  16.191   0.073  15.007  0.1185 -0.1129 -0.1852
 3656W        W19730  15.026  11.971   0.985  0.2222  0.2562  0.0730
 3657W        W19731  15.167  14.694   1.565 -0.0516 -0.2331  0.1043
 3658W        W19732  17.085  16.471  13.366  0.0591  0.0191 -0.0346
 3659W        W19733   4.271   7.318  15.574 -0.1916 -0.3105 -0.2064
 3660W        W19734   5.266  12.231  14.157  0.1236 -0.2845 -0.3382
 3661W        W19735  17.307   9.933   5.712  0.0541  0.1895 -0.2265
 3662W        W19736  10.730   2.325  13.483 -0.2661 -0.0149 -0.2274
 3663W        W19737   6.132  10.300   1.129 -0.0732  0.2416  0.2012
 3664W        W19738   1.918   2.169  15.515  0.1440  0.3425 -0.3311
 3665W        W19739   0.594  14.813  13.828 -0.1062  0.1041  0.0767
 3666W        W19740  18.330  13.821   1.625 -0.2244 -0.0521 -0.1190
 3667W        W19741   2.854   3.643  14.221  0.1102 -0.1491 -0.0394
 3668W        W19742   1.014  17.230   5.466 -0.0732 -0.1452 -0.1410
 3669W        W19743   2.479  13.345   1.037 -0.0849  0.0435 -0.0423
 3670W        W19744   0.079   5.789  15.134  0.1039 -0.0691  0.2255
 3671W        W19745  16.036   4.110  12.997 -0.1321 -0.0194 -0.0894
 3672W        W19746   5.532  11.705  15.723  0.0573  0.2891  0.2886
 3673W        W19747   1.715   5.136  16.024  0.0617  0.0113 -0.0684
 3674W        W19748   5.827  10.969   1.748  0.0157  0.0218 -0.2884
 3675W        W19749   1.549   3.321  15.922 -0.3024  0.0448  0.2504
 3676W        W19750   7.002  16.345   3.368  0.1041  0.0842  0.0780
 3677W        W19751   0.929  12.252  14.959 -0.0789 -0.1772  0.2614
 3678W        W19752  16.804   9.142   0.566  0.1556  0.0378  0.1546
 3679W        W19753   3.198  13.079  12.259  0.1016  0.1009 -0.1345
 3680W        W19754   6.460   3.381   1.972 -0.1987 -0.2765  0.0690
 3681W        W19755  15.509  13.934  14.681 -0.1539 -0.0152  0.0723
 3682W        W19756   0.539   3.564   3.923  0.0294 -0.1460  0.2774
 3683W        W19757  16.412  15.187   0.851  0.1946  0.0231  0.1313
 3684W        W19758  11.682  13.009   3.246 -0.0306  0.1330  0.1202
 3685W        W19759  12.815  15.529   0.583  0.0860  0.3032  0.2990
 3686W        W19760  12.021  12.105   0.851  0.1190 -0.2529 -0.1121
 3687W        W19761  16.630  18.432   1.018 -0.1062 -0.3961 -0.0501
 3688W        W19762  11.364   0.898   1.874  0.0854 -0.1399 -0.0742
 3689W        W19763   2.918   5.577  11.683 -0.0310  0.0937 -0.1050
 3690W        W19764   9.273   9.440   5.048  0.1983 -0.1515 -0.1766
 3691W        W19765   9.469  16.391   2.990 -0.4654 -0.0520 -0.1857
 3692W        W19766   9.531   3.969  11.212 -0.1242 -0.1847  0.0428
 3693W        W19767  16.428   0.379  13.564 -0.2470 -0.1590 -0.1523
 3694W        W19768   8.419   6.338  11.341 -0.0937  0.1528  0.0967
 3695W        W19769   3.260  11.070   5.075  0.1918 -0.4380  0.0659
 3696W        W19770  16.540   9.623   5.695  0.0482  0.4239  0.0656
 3697W        W19771  17.611   9.130   0.767 -0.1817 -0.0086  0.1967
 3698W        W19772  17.597  13.461   2.113  0.1729  0.1177  0.0255
 3699W        W19773  18.474   3.465  14.537  0.0936  0.0307 -0.3047
 3700W        W19774   7.062   1.095   3.464 -0.1469 -0.0520  0.1858
 3701W        W19775  17.767  15.928   4.479  0.0371  0.2152 -0.2374
 3702W        W19776   9.310  15.760  11.473 -0.0925 -0.2986  0.1884
 3703W        W19777   5.603  13.431   4.103  0.1264 -0.1984 -0.0996
 3704W        W19778  16.890  10.237  13.838 -0.1849  0.3180  0.1135
 3705W        W19779   8.940  12.969  13.823  0.1294 -0.0549 -0.1420
 3706W        W19780  14.613   0.490  14.285 -0.2746  0.2029  0.2181
 3707W        W19781   2.172   2.070   3.917 -0.0414 -0.0453  0.0212
 3708W        W19782   4.724  12.922  11.703 -0.2144  0.0466 -0.0683
 3709W        W19783  16.707  17.769  10.064 -0.0864 -0.1004  0.0352
 3710W        W19784   2.291   7.782  15.806  0.5248 -0.0255 -0.3619
 3711W        W19785  16.862   3.721  14.914 -0.2461 -0.2113 -0.0141
 3712W        W19786  17.897   7.152   4.749 -0.1362 -0.0912  0.0098
 3713W        W19787   0.126  13.187  14.045  0.4087 -0.0803  0.1157
 3714W        W19788   8.654   0.968  12.664  0.1337 -0.0786  0.0034
 3715W        W19789   1.685  15.569  15.705  0.0948  0.2156  0.1661
 3716W        W19790   6.448   8.915   3.559  0.1396  0.0686 -0.2136
 3717W        W19791   1.788  18.469   1.015  0.3594 -0.1258 -0.0066
 3718W        W19792   2.154   4.964   1.602 -0.1390  0.3512  0.1654
 3719W        W19793   3.056   7.595   0.928 -0.0049  0.2014  0.2985
 3720W        W19794   1.953   5.013   3.796  0.0762 -0.0536  0.2508
 3721W        W19795  10.493  10.591   0.403  0.3787 -0.3308  0.2467
 3722W        W19796   7.711   5.781   5.148 -0.0056 -0.1890  0.4112
 3723W        W19797   5.252  13.536   1.918 -0.0148 -0.0908 -0.1180
 3724W        W19798  10.382   1.656  14.327 -0.0506  0.1701  0.1329
 3725W        W19799   5.066   0.466  11.900  0.4226 -0.3253 -0.1060
 3726W        W19800  13.592  16.649  14.896 -0.3183 -0.0366 -0.0583
 3727W        W19801   3.718   7.072  14.944  0.0447 -0.0605 -0.3308
 3728W        W19802   5.668  13.943   4.123  0.1742  0.0561  0.3226
 3729W        W19803  17.152  17.677   0.647  0.0774  0.0931  0.3289
 3730W        W19804   6.669   4.336  14.297  0.0005  0.0512 -0.2148
 3731W        W19805   5.416   1.592  15.621 -0.0612  0.3003 -0.1314
 3732W        W19806   3.483  16.854  14.934 -0.2044  0.0391  0.0208
 3733W        W19807  14.338   5.513  12.417  0.2997  0.1382 -0.3911
 3734W        W19808   9.245  15.307   3.675 -0.1055 -0.0715 -0.0873
 3735W        W19809  17.755   7.308   5.776 -0.0621  0.1435 -0.0930
 3736W        W19810  11.602   1.876   3.288 -0.1923  0.0678  0.2352
 3737W        W19811   3.231  18.034   5.423 -0.2829 -0.0887  0.3294
 3738W        W19812  10.701  15.263  13.092  0.1521 -0.1612 -0.1604
 3739W        W19813  11.583   9.102   4.889  0.1229  0.1701  0.0621
 3740W        W19814   7.595   1.202   3.340 -0.0621  0.1399  0.0903
 3741W        W19815   6.646  12.804  14.565 -0.3243  0.1505 -0.0914
 3742W        W19816  16.030   4.408   0.150 -0.2489 -0.0175 -0.0381
 3743W        W19817  10.552   5.167  11.505  0.1589 -0.2443  0.0886
 3744W        W19818  18.092   5.608   1.672 -0.1522 -0.1800 -0.2228
 3745W        W19819  12.357   8.294   0.235 -0.0192  0.0107  0.3520
 3746W        W19820  14.719   2.113   0.785  0.1426 -0.2670  0.3613
 3747W        W19821   3.588   8.256   0.055 -0.0893  0.1336 -0.0436
 3748W        W19822   1.889   5.664  14.156 -0.1771  0.1862 -0.2063
 3749W        W19823  14.315   1.178  13.035  0.2666  0.1060  0.0217
 3750W        W19824  15.783  11.314   6.014  0.2216  0.1555  0.3099
 3751W        W19825   4.361  17.341   1.706 -0.1069 -0.0319 -0.0125
 3752W        W19826  12.709   8.417   4.572  0.2335 -0.0016  0.2574
 3753W        W19827   0.024   0.927  11.422  0.2785 -0.2408  0.0540
 3754W        W19828   1.708  10.616   4.712 -0.5729 -0.1253 -0.4026
 3755W        W19829   6.389  14.250   5.167 -0.1536 -0.0063  0.0217
 3756W        W19830  12.630   7.052  12.946  0.1798 -0.1937 -0.0272
 3757W        W19831  11.095  17.643  11.818 -0.1679 -0.1874  0.1039
 3758W        W19832  10.671   5.344  14.675  0.2025 -0.1001  0.2875
 3759W        W19833  10.964   3.525   5.120  0.0712  0.1053  0.0552
 3760W        W19834  13.476   4.779  15.596  0.1409 -0.2591  0.0838
 3761W        W19835  14.879  18.186  14.084  0.0448 -0.0561 -0.1062
 3762W        W19836   1.325   0.377   2.543 -0.4176  0.0630  0.0935
 3763W        W19837   6.551   6.927   2.491 -0.1568 -0.4392  0.1714
 3764W        W19838  12.682   5.276   0.670 -0.1749 -0.1886  0.1525
 3765W        W19839  10.167  14.459   2.582  0.1261  0.1335 -0.0424
 3766W        W19840   2.904   6.918  14.369 -0.0022 -0.0919  0.0360
 3767W        W19841  16.154   4.644  12.161  0.2298  0.1952 -0.0596
 3768W        W19842   3.880  13.941  13.001 -0.0604  0.1002 -0.1911
 3769W        W19843   6.482  13.980   0.308 -0.1410  0.1765  0.1614
 3770W        W19844   1.283   7.207   0.571  0.5262 -0.3028 -0.0572
 3771W        W19845   3.176   8.381   4.641  0.2342 -0.4563 -0.4138
 3772W        W19846   1.182   2.544   3.847  0.1736  0.0346 -0.1597
 3773W        W19847   3.811  10.850  11.588  0.2224  0.2107  0.2593
 3774W        W19848  12.611   9.383  11.309  0.1243 -0.0977  0.0272
 3775W        W19849   7.808  17.883   3.431 -0.3177  0.1700 -0.0852
 3776W        W19850  14.812   4.191   4.602  0.1999  0.4430  0.1652
 3777W        W19851  15.305   6.186   1.594 -0.1688  0.1271  0.0547
 3778W        W19852   1.986  18.022  12.660 -0.0694  0.1880  0.2436
 3779W        W19853   2.850   3.587  10.700  0.0673 -0.0201 -0.4996
 3780W        W19854  15.466   3.420  13.230  0.2986  0.0111 -0.0738
 3781W        W19855  17.508  18.536   2.495 -0.1211 -0.0390 -0.2717
 3782W        W19856  18.428  11.039   4.304 -0.1014 -0.1422  0.3394
 3783W        W19857  10.154   1.738   1.507 -0.1149  0.2587 -0.0869
 3784W        W19858  15.273   2.857  14.026  0.0897  0.0315  0.0195
 3785W        W19859   8.277   1.187   0.440  0.3065  0.0020  0.4035
 3786W        W19860   8.715   8.636  15.722  0.1680  0.1997  0.1434
 3787W        W19861  13.655   8.304  11.460 -0.2774 -0.2259  0.3153
 3788W        W19862  13.448   9.398  10.933 -0.1107 -0.1617 -0.0944
 3789W        W19863   9.964  17.741  11.170  0.1766 -0.3498 -0.1333
 3790W        W19864   6.915  13.232   1.362  0.0533  0.0646  0.0804
 3791W        W19865  11.017   9.432   2.655  0.0973  0.2432 -0.0516
 3792W        W19866  14.374   7.128   5.153  0.2283 -0.0906  0.3587
 3793W        W19867  14.689   6.366   3.697  0.2459 -0.0029  0.0760
 3794W        W19868   5.083  18.494   1.872 -0.0266 -0.1360 -0.0354
 3795W        W19869  15.056  15.554   5.891 -0.0608 -0.3744  0.0828
 3796W        W19870   1.232   7.376   1.513  0.1496 -0.1405 -0.4826
 3797W        W19871   7.381  12.855  15.273 -0.1165 -0.0695  0.2791
 3798W        W19872   3.506  16.084  13.860 -0.1489  0.0480  0.5013
 3799W        W19873  17.323  17.257  15.882 -0.0552  0.0645 -0.2006
 3800W        W19874   5.363   7.168   5.967 -0.2756 -0.0494 -0.3627
 3801W        W19875   8.117  11.851   2.087  0.0536 -0.0916 -0.2965
 3802W        W19876   5.881  15.731  11.105 -0.1810  0.3014  0.1886
 3803W        W19877   9.605   7.176   1.198 -0.0392  0.1672 -0.0761
 3804W        W19878   8.333   7.621  15.573 -0.4069  0.0577  0.1342
 3805W        W19879   3.896  16.483  11.393 -0.2185  0.1167  0.1167
 3806W        W19880  18.030  14.324  15.302  0.1361  0.1249 -0.2936
 3807W        W19881  14.429  18.002  13.954  0.0204  0.0066  0.0448
 3808W        W19882  16.103  10.440  11.529 -0.0272  0.0442 -0.3496
 3809W        W19883  12.395  14.798  11.262 -0.2138  0.0076 -0.1594
 3810W        W19884  16.917  10.710   5.355 -0.4017  0.3857 -0.0247
 3811W        W19885   6.153   2.968  11.167  0.0364 -0.0308 -0.1020
 3812W        W19886  11.658  13.724  13.874 -0.0123 -0.1844 -0.1925
 3813W        W19887  11.884   4.711   6.335  0.1237 -0.2661 -0.0609
 3814W        W19888   3.637  10.200  15.684 -0.2966  0.1737 -0.0574
 3815W        W19889   1.709   8.382   2.952 -0.0660  0.3010 -0.1273
 3816W        W19890   9.842   8.188  14.912 -0.3418 -0.1137 -0.1555
 3817W        W19891   5.674   7.230   0.825  0.0054  0.1199  0.2848
 3818W        W19892  16.118  13.060   3.405  0.1561  0.3010 -0.0060
 3819W        W19893   9.989  16.489   0.350  0.0235 -0.0809  0.0891
 3820W        W19894   0.076   8.220  15.600  0.2163  0.2090  0.1128
 3821W        W19895  15.678   9.570   2.145 -0.0575 -0.1637  0.1566
 3822W        W19896  15.642   9.153  11.726  0.0331 -0.0575  0.0259
 3823W        W19897  13.615   5.491   0.103  0.0517 -0.0872 -0.2124
 3824W        W19898   6.027  16.476   2.221 -0.1833 -0.3632  0.2328
 3825W        W19899  16.919   9.393  13.586  0.1140 -0.2635  0.1643
 3826W        W19900   8.326   8.087   4.551  0.0591  0.4255  0.1359
 3827W        W19901  13.866   8.700   4.916 -0.1493 -0.0749 -0.2574
 3828W        W19902  12.666  17.386  13.773  0.2257  0.1700 -0.1377
 3829W        W19903   6.455  11.798  14.854  0.1818  0.1236 -0.6043
 3830W        W19904   4.650  16.315  12.595  0.0851  0.1642  0.1768
 3831W        W19905  18.185   2.616   1.874 -0.2424  0.0497  0.2157
 3832W        W19906  10.997  13.066  12.757 -0.2786  0.0288 -0.3484
 3833W        W19907  15.228   5.927   4.346  0.1397 -0.0836  0.2362
 3834W        W19908   6.666  15.496  11.820 -0.1843 -0.1473  0.2685
 3835W        W19909   4.338   2.635   2.182 -0.4103 -0.0829 -0.0098
 3836W        W19910  17.044   1.957   2.351 -0.0962  0.0182 -0.0238
 3837W        W19911  10.980   9.229   3.398 -0.0299 -0.0417  0.0174
 3838W        W19912   8.009   6.097  11.098 -0.0336 -0.0299 -0.4814
 3839W        W19913   1.250   6.815   1.465 -0.2221 -0.1244 -0.0924
 3840W        W19914  15.928   6.639   0.045 -0.1234 -0.2598 -0.0683
 3841W        W19915  13.062  17.861   1.876  0.2527  0.0650  0.3609
 3842W        W19916   1.454   3.627  14.396  0.0297 -0.2278  0.1574
 3843W        W19917   3.112   9.909   2.876 -0.0484 -0.0179  0.0558
 3844W        W19918   8.866   1.324  12.468 -0.5059 -0.2523  0.1530
 3845W        W19919  15.307   2.346   4.497  0.2516 -0.0920  0.2873
 3846W        W19920  12.810   2.032   4.403  0.0190 -0.1993 -0.2060
 3847W        W19921   4.710   5.921  13.346 -0.1304  0.3529  0.0878
 3848W        W19922   1.634   7.803   2.079  0.0881 -0.1689  0.3780
 3849W        W19923  14.540  16.092  14.360  0.0990 -0.0438  0.0401
 3850W        W19924   3.289   3.475  11.508 -0.2033 -0.0270 -0.5934
 3851W        W19925  17.552  15.728  13.839 -0.1347  0.0190 -0.1777
 3852W        W19926  11.572  15.451   0.710 -0.3223  0.2667  0.0911
 3853W        W19927  17.845   7.254   5.239 -0.1972  0.2142  0.0723
 3854W        W19928   2.999   5.032  12.656 -0.1297 -0.0603 -0.1865
 3855W        W19929  17.555  13.980  15.121  0.0237 -0.0342 -0.4043
 3856W        W19930  10.088   0.930  11.812  0.0983 -0.3964 -0.3488
 3857W        W19931   6.544  13.833  13.858  0.0543  0.2462 -0.0822
 3858W        W19932  10.629   6.202  13.833 -0.1065 -0.3915 -0.1961
 3859W        W19933  16.498  11.487   4.940 -0.2375 -0.0414 -0.0112
 3860W        W19934   3.063  15.400  13.311 -0.0393  0.1063  0.1581
 3861W        W19935  16.463   9.445   1.844  0.2820 -0.2755  0.2110
 3862W        W19936  15.455  11.520   3.500 -0.1740  0.3169 -0.2156
 3863W        W19937   2.789   7.602   3.799 -0.3018 -0.1078 -0.1398
 3864W        W19938   2.124   2.355   5.879 -0.0482 -0.1492 -0.1612
 3865W        W19939   5.609   2.921  11.133 -0.0774 -0.0999 -0.1151
 3866W        W19940  11.117  15.147  14.579 -0.1582  0.0194  0.0878
 3867W        W19941   4.707  16.582   4.554 -0.0873  0.0330 -0.4988
 3868W        W19942   1.426  15.921  12.261 -0.0036  0.5054  0.1233
 3869W        W19943   5.447   3.858   4.561  0.2623 -0.0464  0.1505
 3870W        W19944  16.277  16.389  15.808 -0.1193 -0.0035 -0.0640
 3871W        W19945   6.072  13.609   1.063 -0.0697 -0.1124  0.0941
 3872W        W19946   8.295   4.146  12.172  0.1663 -0.0043 -0.0302
 3873W        W19947  12.660   8.084  14.088  0.3721  0.0913 -0.3327
 3874W        W19948  16.305   9.649  15.311 -0.3933  0.0170 -0.1869
 3875W        W19949   6.087  11.552  14.631 -0.2104  0.0066 -0.1133
 3876W        W19950  12.811   0.145  13.819  0.1102  0.0876  0.1742
 3877W        W19951   4.447  16.002  14.637 -0.0227  0.0149  0.0928
 3878W        W19952  16.522  14.132   2.904  0.2088 -0.0586 -0.1148
 3879W        W19953   1.634   3.913  12.562 -0.0444 -0.0058  0.0367
 3880W        W19954   9.233  13.004   3.189  0.1356  0.1175 -0.0102
 3881W        W19955  10.200  14.751  12.933  0.1069 -0.1190 -0.1124
 3882W        W19956  13.465  10.521  14.791 -0.1207 -0.0760 -0.0001
 3883W        W19957  18.136  13.810   5.453  0.2834 -0.1638 -0.0137
 3884W        W19958  11.026  15.296  11.738  0.1028 -0.1403  0.0600
 3885W        W19959  14.195   7.175  12.834  0.0975 -0.1644  0.1874
 3886W        W19960   7.931  14.294  10.706  0.2981  0.0135  0.1161
 3887W        W19961   2.655  16.736  12.784  0.2560  0.3066  0.3141
 3888W        W19962   0.517  14.180   2.897 -0.0478  0.1406 -0.0785
 3889W        W19963  11.562  17.967   4.362 -0.0312 -0.0037  0.0752
 3890W        W19964   8.004  13.981   3.429  0.0601  0.0563 -0.1104
 3891W        W19965   3.896   9.801  15.128  0.1818  0.0118  0.0684
 3892W        W19966   7.552   5.458  14.048 -0.0049  0.1717 -0.1167
 3893W        W19967   4.274  12.110  11.995  0.0748  0.0145 -0.3360
 3894W        W19968  13.980   2.622  14.822  0.0011 -0.0233 -0.1186
 3895W        W19969   3.440   1.290   4.250  0.0995  0.0541  0.0669
 3896W        W19970   7.831   6.609   1.544  0.1871  0.0119  0.0209
 3897W        W19971   8.669  17.491   0.175  0.1734 -0.1063 -0.0623
 3898W        W19972   9.571   1.752  12.162 -0.1591  0.1041 -0.0840
 3899W        W19973   8.989   3.596  14.291  0.3502  0.1540 -0.0182
 3900W        W19974   0.659   6.577   2.605 -0.2488 -0.1718  0.0823
 3901W        W19975   0.608   8.371  15.593 -0.1842  0.0807  0.2041
 3902W        W19976   0.249   0.180  11.267 -0.1792 -0.4034 -0.0813
 3903W        W19977   5.163  15.388  15.799  0.1102 -0.3032 -0.4585
 3904W        W19978   2.662   2.032   3.084  0.1854  0.0950 -0.0411
 3905W        W19979   9.770  18.208  12.249  0.0142 -0.0777  0.2520
 3906W        W19980   3.445   8.426   3.939 -0.0141  0.1243  0.2068
 3907W        W19981   3.941   0.705  11.292  0.2152  0.0960 -0.1930
 3908W        W19982  17.442   5.682  14.071  0.0825 -0.1869  0.3416
 3909W        W19983   1.398  10.684   2.829  0.3813 -0.2064  0.1377
 3910W        W19984   0.800  14.203  11.294 -0.0473 -0.4096  0.2027
 3911W        W19985   8.124  13.961   2.665 -0.1891  0.1018  0.4663
 3912W        W19986  18.303  17.847   3.721  0.3804 -0.3877 -0.3448
 3913W        W19987  15.589   4.241  15.452  0.1387  0.2133 -0.2564
 3914W        W19988   8.778  12.497  13.387  0.1747  0.0035  0.0472
 3915W        W19989   8.924   4.234  13.599  0.0261 -0.1803 -0.2374
 3916W        W19990  14.087   7.144  12.322 -0.1721 -0.1579 -0.3007
 3917W        W19991  18.178  10.335  13.876  0.2713 -0.1533 -0.3206
 3918W        W19992  13.678   3.650  15.674  0.0745 -0.0675 -0.1801
 3919W        W19993  17.238   2.913   2.266 -0.0325 -0.0776  0.0556
 3920W        W19994  12.315   5.950   4.983  0.1004  0.2312 -0.5013
 3921W        W19995  16.077   7.832  14.495 -0.1235  0.0925 -0.0410
 3922W        W19996   6.279  10.340  15.223  0.0300 -0.1340  0.0156
 3923W        W19997  15.911   2.869   4.849  0.0697 -0.1487 -0.2042
 3924W        W19998  13.905  11.910   0.454  0.0339  0.1188 -0.0463
 3925W        W19999  15.138   3.499   3.442  0.0925 -0.2239 -0.1356
 3926W        W20000   7.874  15.339   1.679 -0.1141  0.0660 -0.3096
 3927W        W20001   9.717  12.223  13.938  0.0284 -0.1182 -0.0168
 3928W        W20002  13.508  12.396   5.058 -0.1300  0.2454 -0.2253
 3929W        W20003  13.353   5.136   3.682 -0.1640  0.1566 -0.2209
 3930W        W20004  18.436  16.299  14.573 -0.0779  0.1970 -0.0087
 3931W        W20005   0.975  14.316   6.281  0.3209  0.1090  0.0526
 3932W        W20006  10.391   0.315  14.845 -0.0803  0.2963 -0.0147
 3933W        W20007   6.251   9.611   2.926 -0.0608  0.1721  0.0190
 3934W        W20008  15.668  14.757   1.343  0.5334  0.1567  0.0017
 3935W        W20009   7.208  13.105   2.272 -0.0355 -0.0601 -0.0483
 3936W        W20010   3.949  15.891   1.589 -0.0613  0.2409  0.2432
 3937W        W20011  14.137   3.904  15.522 -0.0110 -0.1096 -0.1728
 3938W        W20012  15.528  10.336  13.547  0.0025  0.2547 -0.1143
 3939W        W20013  16.791  16.654  11.924  0.1300  0.3273 -0.1923
 3940W        W20014   7.833   1.235   1.156  0.1291  0.0964  0.0530
 3941W        W20015  10.958   5.919  12.000  0.0253 -0.2154  0.0442
 3942W        W20016  10.774  10.413   3.174 -0.1587  0.1750 -0.0341
 3943W        W20017  14.398  10.688  11.951  0.2416 -0.1083 -0.0478
 3944W        W20018  12.655   5.786  11.147 -0.3226  0.0375 -0.2067
 3945W        W20019   0.500  15.423   0.565  0.2143  0.0121 -0.3345
 3946W        W20020  15.745  16.657  15.113  0.0105 -0.2425  0.0390
 3947W        W20021  13.715   7.545  12.602 -0.3669 -0.0351  0.1618
 3948W        W20022  15.996   1.705  13.991 -0.0868 -0.1734  0.0750
 3949W        W20023   5.023   5.036  15.592 -0.0037 -0.1115 -0.0418
 3950W        W20024   9.162  12.142   5.532 -0.0644  0.1046  0.2156
 3951W        W20025  13.349   4.223  13.052  0.0772 -0.0980  0.0227
 3952W        W20026  10.880   4.800  13.238  0.1756 -0.1666 -0.1864
 3953W        W20027  15.168  11.683   0.450  0.1756 -0.1338 -0.0737
 3954W        W20028  14.302   4.049  13.151  0.1529  0.1228  0.1764
 3955W        W20029  12.101   5.224  11.233  0.0271  0.1253  0.2896
 3956W        W20030  18.171  14.661   1.572 -0.4017  0.0358  0.2869
 3957W        W20031   1.054  12.966  11.946 -0.0671 -0.1149  0.2094
 3958W        W20032   0.474   0.569  11.498  0.0163 -0.2539 -0.0290
 3959W        W20033   3.607   3.024  12.847 -0.2928  0.3131 -0.0124
 3960W        W20034  16.405   6.043  15.428  0.2014 -0.3047  0.5408
 3961W        W20035  18.523  13.380   1.119 -0.1556  0.0032 -0.1494
 3962W        W20036  12.117   9.658   3.183 -0.2147  0.0070 -0.0731
 3963W        W20037   4.031   2.213  15.889  0.2770  0.0289  0.2101
 3964W        W20038  17.321   1.825   3.844 -0.1640 -0.1200  0.1613
 3965W        W20039   0.854   6.961   0.489 -0.2494 -0.0109 -0.0037
 3966W        W20040   7.884   9.038   0.896  0.2684 -0.2638 -0.2114
 3967W        W20041  17.906  15.355  13.750 -0.4387  0.0745  0.0645
 3968W        W20042   5.920   7.281   1.248 -0.1138 -0.1424  0.1014
 3969W        W20043  11.570  10.773   2.903 -0.0356 -0.1556 -0.0863
 3970W        W20044  15.110  11.089  14.165 -0.2939  0.0767 -0.1955
 3971W        W20045   1.779  16.962  15.345 -0.0280 -0.1896 -0.0428
 3972W        W20046   2.797   1.138  13.104 -0.2164  0.0591  0.0429
 3973W        W20047   5.815  12.097   4.836  0.0517 -0.3463 -0.1735
 3974W        W20048   5.580  16.609   5.332  0.0998  0.0921 -0.0338
 3975W        W20049   3.867   9.425   3.241  0.2911 -0.0932  0.2359
 3976W        W20050   9.613   3.116  11.642  0.1478  0.0924 -0.0241
 3977W        W20051  11.923   2.296   3.248 -0.0524  0.1878  0.2202
 3978W        W20052   4.968  16.230  15.417 -0.1458  0.1864 -0.1190
 3979W        W20053   5.298   8.118  12.466  0.3212 -0.1284 -0.2025
 3980W        W20054  12.576  13.635   3.690 -0.0796  0.1136  0.3396
 3981W        W20055  17.139   0.021  11.276 -0.3036 -0.0555  0.1451
 3982W        W20056  16.567   0.630   3.891  0.1944 -0.2160 -0.1118
 3983W        W20057  16.394  11.705  12.739 -0.1747 -0.2351 -0.0102
 3984W        W20058   1.000   5.711   0.158  0.7946 -0.1758  0.2516
 3985W        W20059  11.121   7.037   3.791  0.0277  0.0833  0.1372
 3986W        W20060   2.611   9.988   5.470  0.0698 -0.2172 -0.2671
 3987W        W20061   8.110  12.449   4.517 -0.0965 -0.1362  0.3532
 3988W        W20062   0.023   8.670  15.597  0.1754 -0.1586  0.0244
 3989W        W20063  13.841  17.013   0.322 -0.2808 -0.0551 -0.0625
 3990W        W20064   2.681   6.244  12.598  0.2602 -0.0418 -0.0180
 3991W        W20065  12.969  17.901  12.052 -0.0169  0.0156  0.0151
 3992W        W20066   8.750  16.168  12.121  0.2391  0.0545 -0.0987
 3993W        W20067   6.038   9.408   2.114  0.1158 -0.0088 -0.0402
 3994W        W20068   1.795  16.183  13.927 -0.0550  0.0518 -0.0073
 3995W        W20069   6.039   1.049   4.744 -0.3521  0.0826  0.2112
 3996W        W20070  14.014  12.023  16.023  0.3276 -0.0382  0.1455
 3997W        W20071  18.454  16.747   4.731  0.0779  0.1837  0.0563
 3998W        W20072   3.459   1.795   1.777  0.0069 -0.1398  0.0156
 3999W        W20073  16.766  13.843   0.889  0.1475  0.2426  0.3638
 4000W        W20074   6.366   1.133  12.300 -0.1534 -0.1730 -0.0728
 4001W        W20075  13.697  17.921   0.093  0.0876 -0.2944 -0.0114
 4002W        W20076   7.026  12.986   5.212 -0.0784 -0.0520  0.2725
 4003W        W20077   4.914  10.038   5.352  0.2355 -0.0076 -0.2267
 4004W        W20078  15.345  10.498  15.161  0.0064  0.0668 -0.0321
 4005W        W20079  17.861  18.371  13.966  0.1637  0.1630  0.0456
 4006W        W20080   9.946   8.665  14.972 -0.1226 -0.1334 -0.1773
 4007W        W20081   2.659   7.112  12.296  0.2694 -0.0652  0.1730
 4008W        W20082  10.985  11.770   4.017  0.1646  0.0215 -0.2464
 4009W        W20083   1.377   7.158   2.622 -0.1483 -0.2517  0.0031
 4010W        W20084   7.446   5.835   4.159 -0.2850  0.1738  0.0721
 4011W        W20085  12.458   5.531  15.117  0.1206 -0.6200  0.3528
 4012W        W20086   5.497  18.529   5.034  0.0442 -0.5394  0.1114
 4013W        W20087   2.979   9.070  12.144 -0.1582  0.2241 -0.0454
 4014W        W20088  10.313  18.248   2.871 -0.0005  0.0397 -0.0826
 4015W        W20089   6.795  11.632   6.210  0.1408 -0.0164 -0.1319
 4016W        W20090   6.064   8.398  13.090  0.2942 -0.1673 -0.0389
 4017W        W20091  18.537  12.989  11.778  0.0189 -0.1549 -0.2891
 4018W        W20092  13.966  11.146   2.411 -0.2501  0.0105  0.0365
 4019W        W20093   8.586   9.419  14.718 -0.1647  0.4175 -0.1828
 4020W        W20094   3.763  10.640   2.648 -0.0350 -0.0990 -0.1064
 4021W        W20095  13.500  11.852  14.605 -0.0194  0.1936 -0.0623
 4022W        W20096   8.421   0.445   0.855  0.2469 -0.1605 -0.2548
 4023W        W20097   0.424   4.960  13.543  0.5426 -0.1786  0.0273
 4024W        W20098   1.201  10.312  14.499 -0.0572  0.0154  0.1825
 4025W        W20099   9.400  15.387  14.505  0.0134  0.3426 -0.2540
 4026W        W20100  13.057  12.504  13.473 -0.2252  0.0347 -0.1585
 4027W        W20101  11.891   8.543  13.868  0.3566  0.1311 -0.1147
 4028W        W20102   9.707  11.618  15.603  0.0473 -0.3957 -0.2175
 4029W        W20103   0.869  12.641   1.273  0.2549  0.0004  0.2408
 4030W        W20104   7.602  12.208   1.165 -0.1159  0.1593  0.0968
 4031W        W20105  17.239  14.413   2.382 -0.2388 -0.0851 -0.0785
 4032W        W20106  17.018   8.251  13.126 -0.0851 -0.4137 -0.2953
 4033W        W20107   0.008  10.773   3.884  0.2680 -0.1666 -0.1417
 4034W        W20108  11.191  11.851   1.902  0.1763  0.0337 -0.1114
 4035W        W20109   7.849   8.569   3.238 -0.4802  0.1562  0.0651
 4036W        W20110  14.554   3.507  10.747  0.3052 -0.2057  0.1181
 4037W        W20111   5.011  13.357  13.930 -0.1290  0.1365 -0.0369
 4038W        W20112   9.806  10.590   3.044  0.1794  0.1005 -0.0751
 4039W        W20113  14.132   0.738   3.527 -0.0673  0.3090 -0.0929
 4040W        W20114   3.336   8.890   3.782 -0.1283 -0.1602  0.2621
 4041W        W20115   1.997   0.855   1.360  0.0860 -0.1101 -0.1067
 4042W        W20116  11.586  10.291  11.401  0.0439  0.0285 -0.1099
 4043W        W20117   2.491  17.234  14.226  0.1795 -0.4148  0.0362
 4044W        W20118  15.527   6.326  12.050 -0.2158  0.1421  0.0898
 4045W        W20119   9.418  17.452  14.949 -0.1752  0.1283  0.0908
 4046W        W20120  17.958   6.985  13.235 -0.0313  0.1074  0.0201
 4047W        W20121  15.878   0.761   2.449 -0.1533  0.2512  0.1382
 4048W        W20122  17.508  10.807  12.197 -0.1578 -0.4538 -0.1049
 4049W        W20123   5.321   6.816  14.959  0.1227  0.0307 -0.0562
 4050W        W20124   9.548   0.840   3.443  0.1214 -0.0067 -0.1361
 4051W        W20125   3.170   1.843   3.486  0.1775  0.1328 -0.2274
 4052W        W20126   9.411  18.063   5.144  0.1759  0.2356  0.2881
 4053W        W20127   4.619   2.665   2.611 -0.2822  0.0183 -0.0263
 4054W        W20128  17.796  11.446  15.171 -0.0063 -0.2917  0.2909
 4055W        W20129  14.405  18.467  14.095  0.2087 -0.5182 -0.1581
 4056W        W20130  13.070   9.028  13.178  0.0366  0.0581 -0.3937
 4057W        W20131  13.348  11.715  14.131 -0.2138  0.0689 -0.0231
 4058W        W20132   5.856  15.139  15.884  0.0332  0.0294  0.1701
 4059W        W20133  15.056  15.880  12.435  0.2690 -0.0278  0.1701
 4060W        W20134   9.575  18.209  14.084 -0.2308 -0.0543  0.3550
 4061W        W20135  13.571  17.366   2.121 -0.1162 -0.1414 -0.0611
 4062W        W20136  10.303   8.817   2.527 -0.2897  0.1478 -0.0102
 4063W        W20137  10.436  16.401   4.108  0.1712 -0.2104 -0.1355
 4064W        W20138   5.411   2.574   3.625 -0.0996  0.0647 -0.1240
 4065W        W20139   6.564  13.781   2.492  0.0833 -0.1474 -0.4677
 4066W        W20140   1.161  10.805  15.429  0.0141  0.0778  0.0227
 4067W        W20141   7.126  10.121   2.901 -0.0523  0.3447 -0.0645
 4068W        W20142   2.093  11.004  13.395 -0.2442  0.0497  0.0630
 4069W        W20143  10.418   0.847  12.960  0.1028 -0.0159  0.1126
 4070W        W20144  16.062   7.844   2.188 -0.0268 -0.0254  0.1542
 4071W        W20145   5.508   5.050  13.873  0.0323  0.0624 -0.0452
 4072W        W20146  16.326  16.492  12.783 -0.1603 -0.1708  0.2526
 4073W        W20147  15.011  11.510  15.273 -0.0290  0.0738 -0.0135
 4074W        W20148   9.921   4.024  13.675  0.2509  0.1847 -0.0898
 4075W        W20149   4.981   4.777   1.932 -0.2100  0.0070  0.1944
 4076W        W20150  12.071  11.039   2.223 -0.2562 -0.4282  0.2330
 4077W        W20151  16.885   6.373  10.894  0.0050  0.0452 -0.0540
 4078W        W20152   8.957  15.272   9.873 -0.1564  0.1113  0.2624
 4079W        W20153  18.195   1.983  14.351  0.2590 -0.1586 -0.1735
 4080W        W20154   9.665   7.757  13.190  0.0605  0.1938  0.3216
 4081W        W20155  10.616  11.232  14.177 -0.1399 -0.4331 -0.0457
 4082W        W20156   3.191   4.272   0.815 -0.0198 -0.0103 -0.2168
 4083W        W20157  16.053   3.115  15.398 -0.1489 -0.2445 -0.0010
 4084W        W20158   7.117  11.334   0.070  0.0125 -0.0383 -0.2618
 4085W        W20159  12.761  13.172  14.603 -0.0933  0.4185  0.3036
 4086W        W20160  17.551   1.089  12.668  0.1587  0.0169 -0.1498
 4087W        W20161   1.619  17.244  12.933 -0.0010  0.0852  0.2031
 4088W        W20162   3.655  14.985  15.828  0.1555 -0.0398  0.3120
 4089W        W20163   4.722  12.910   4.508 -0.0048 -0.1713 -0.1100
 4090W        W20164  18.230  12.349  14.339  0.2362 -0.2109  0.0111
 4091W        W20165  14.250   6.571  12.155  0.1600 -0.0155 -0.0071
 4092W        W20166   3.063  10.408  13.304 -0.0220  0.2729 -0.1249
 4093W        W20167  10.909   4.135   3.733  0.1571 -0.2208 -0.0487
 4094W        W20168   4.207  16.904   3.875 -0.0919  0.1608 -0.1049
 4095W        W20169   0.429   4.069   4.518 -0.2059 -0.0579 -0.5041
 4096W        W20170  11.142  10.913  11.993 -0.0411 -0.0748  0.2141
 4097W        W20171   2.638   5.419  10.702 -0.1424 -0.2774 -0.1568
 4098W        W20172  12.876  18.569  15.301 -0.0828 -0.0200  0.1601
 4099W        W20173   7.114   4.455   1.613  0.1371 -0.1363  0.0626
 4100W        W20174   7.773  14.821  12.762  0.1346  0.0278 -0.2997
 4101W        W20175   5.351   4.335   0.079 -0.0099 -0.3161  0.0591
 4102W        W20176   7.744  15.239   5.390 -0.2389 -0.0231 -0.3202
 4103W        W20177   7.031   5.787   4.543  0.0534  0.0150  0.0880
 4104W        W20178  12.642   2.395   2.003  0.2019  0.1691 -0.0481
 4105W        W20179  15.317  14.028  14.224  0.0121  0.0746  0.0206
 4106W        W20180   2.184  16.618   0.946 -0.1269  0.1753 -0.0189
 4107W        W20181   2.836  12.676   0.391 -0.0015  0.0645  0.1216
 4108W        W20182  17.214   7.630  13.840 -0.2716  0.1152 -0.1839
 4109W        W20183  13.721  10.094   2.469 -0.2587  0.0679 -0.0175
 4110W        W20184  16.801  17.394   1.077 -0.0964 -0.0608  0.1514
 4111W        W20185  10.999  12.320   1.788 -0.0042  0.0583 -0.0191
 4112W        W20186   1.719   6.130   5.803 -0.1606 -0.3972  0.0098
 4113W        W20187  15.221  17.227  10.879  0.0355  0.0792 -0.2275
 4114W        W20188   1.959   8.986  14.969  0.0336  0.1462 -0.0752
 4115W        W20189   4.450   0.698   1.058  0.2522 -0.1494  0.3403
 4116W        W20190  15.470   3.271  13.822  0.0701  0.0415 -0.0466
 4117W        W20191   2.338   6.166   2.717 -0.1523 -0.2306 -0.2644
 4118W        W20192  16.914  16.678   2.856  0.0594  0.0317  0.0688
 4119W        W20193   8.048  10.205  11.473 -0.0657  0.2168  0.1274
 4120W        W20194  15.673  14.751  12.795 -0.0852 -0.0966  0.4548
 4121W        W20195  11.587   8.024   0.040  0.1180  0.2902 -0.2856
 4122W        W20196   5.886   4.150   4.572  0.0860 -0.3194 -0.2119
 4123W        W20197   4.518   3.348  11.008  0.4457  0.0730 -0.0401
 4124W        W20198   9.748   7.556  15.667  0.0613 -0.0916 -0.0435
 4125W        W20199   2.217   7.547  14.435  0.3456  0.3409  0.0838
 4126W        W20200  17.781  12.122  11.365 -0.1336  0.0713 -0.0421
 4127W        W20201  16.241   2.854  12.243  0.4301 -0.1328  0.1484
 4128W        W20202  11.267   2.593  12.600  0.2454  0.1501  0.1169
 4129W        W20203   4.469  13.325  11.359  0.0456  0.1268 -0.1617
 4130W        W20204  16.771   4.274   3.803 -0.3058 -0.0825  0.1478
 4131W        W20205  18.113   7.665   2.549  0.2841 -0.0250 -0.0775
 4132W        W20206  11.671   1.120   1.158 -0.2641  0.2161  0.2997
 4133W        W20207   5.748   7.991   4.354 -0.3099  0.0244 -0.1233
 4134W        W20208  18.511   4.071  15.868 -0.1598  0.1329 -0.0750
 4135W        W20209   4.438  14.641   2.046  0.0496 -0.1921 -0.4415
 4136W        W20210  10.363  14.244   3.837  0.0846  0.0788  0.1271
 4137W        W20211  11.036  11.542   4.460 -0.4061  0.0507 -0.0817
 4138W        W20212   4.636   9.995  14.485  0.0314 -0.0579  0.0559
 4139W        W20213  14.869  13.401   5.530 -0.0556  0.2651 -0.0775
 4140W        W20214   7.991   6.539   2.018 -0.0518  0.1193  0.0629
 4141W        W20215  12.545   9.329   4.726  0.0199  0.0045 -0.0077
 4142W        W20216   5.444   5.866   1.959 -0.0818  0.1536 -0.0262
 4143W        W20217  13.676   0.507   4.350 -0.0702 -0.1628  0.0968
 4144W        W20218  11.787  13.690  11.733  0.2057 -0.1426  0.0115
 4145W        W20219  16.546   9.028   4.058  0.0212 -0.2060 -0.0417
 4146W        W20220   1.221  18.145  13.121 -0.1607 -0.1717 -0.4332
 4147W        W20221  11.084   5.444   2.281 -0.1996  0.1610  0.0953
 4148W        W20222  10.196   6.405   1.295  0.1501  0.0488 -0.0271
 4149W        W20223   8.724  14.461  14.015  0.1077 -0.3840  0.2023
 4150W        W20224   2.460   2.037   4.909 -0.0393 -0.0522 -0.1029
 4151W        W20225   6.057   9.008   1.183  0.0030 -0.2839 -0.1100
 4152W        W20226   9.965   7.928   2.073  0.0538 -0.2376  0.0090
 4153W        W20227  13.798  15.471  11.725 -0.1706  0.0185  0.2138
 4154W        W20228   6.378  15.105   4.071 -0.0580 -0.0883  0.0524
 4155W        W20229  10.050  17.171   2.397 -0.0331 -0.2388  0.0489
 4156W        W20230  18.191  16.932   2.876  0.0008 -0.1285 -0.2840
 4157W        W20231  16.333  13.087  13.104  0.0296 -0.1739 -0.1002
 4158W        W20232   9.517  12.869   5.246  0.0451 -0.4091 -0.3211
 4159W        W20233  13.889   2.088  15.197  0.0516  0.1100 -0.1288
 4160W        W20234   1.742   2.082   3.655 -0.2760 -0.0896 -0.5298
 4161W        W20235   5.151   0.349   5.314  0.2763 -0.0063 -0.0554
 4162W        W20236   8.126  11.419  12.587  0.1807 -0.0371 -0.1030
 4163W        W20237   4.737  15.916   3.065 -0.1000  0.3225  0.0034
 4164W        W20238   2.277   1.309  10.892 -0.2322 -0.1845 -0.0552
 4165W        W20239   8.403   8.735   3.467  0.1551  0.1104 -0.1810
 4166W        W20240   6.497   0.911   4.847  0.2603 -0.3248 -0.0817
 4167W        W20241  10.947   6.308  11.238 -0.0515  0.1244 -0.0362
 4168W        W20242   9.082   9.438  12.313 -0.0278 -0.0524  0.2405
 4169W        W20243  14.302  14.230   2.722  0.0167  0.0111 -0.0896
 4170W        W20244   1.435  15.806   4.878 -0.0454 -0.0234 -0.0192
 4171W        W20245  12.802  14.434  13.262 -0.1675 -0.3651 -0.0224
 4172W        W20246   7.468  13.471  15.171 -0.0959  0.1807  0.2274
 4173W        W20247  12.911   4.424   5.734  0.2050  0.1630 -0.2126
 4174W        W20248   7.989   1.865  12.341 -0.1106 -0.2536 -0.1915
 4175W        W20249   3.048  12.400  14.051 -0.1644  0.2905  0.1665
 4176W        W20250   0.758   6.820   4.911 -0.0075 -0.1763 -0.0513
 4177W        W20251  13.696   7.606   6.001 -0.1240 -0.1552 -0.0407
 4178W        W20252   6.542   0.380  11.658 -0.2560 -0.1875  0.2364
 4179W        W20253  15.298  14.662   3.982 -0.0150 -0.3171  0.0063
 4180W        W20254   3.901  16.611  14.733  0.0073  0.0480 -0.0125
 4181W        W20255   0.936   5.491  14.775 -0.3172 -0.2342 -0.0724
 4182W        W20256   7.800  14.274  11.468 -0.0975  0.1665 -0.0521
 4183W        W20257   0.861   9.452   2.348 -0.4611  0.0408  0.0098
 4184W        W20258   6.672  13.672  11.231 -0.0316  0.0201  0.1740
 4185W        W20259   6.739  14.140   4.084 -0.3383  0.0882 -0.1139
 4186W        W20260   3.976   0.319   2.971  0.3347  0.1593 -0.0049
 4187W        W20261  14.122   4.958   3.345  0.1182  0.0849 -0.0688
 4188W        W20262   5.930   9.133   0.710 -0.1479  0.0794  0.2783
 4189W        W20263  13.015   3.467   1.539  0.2617 -0.1588  0.2893
 4190W        W20264  16.530  12.310  15.862 -0.0291  0.3343 -0.0081
 4191W        W20265  17.368  10.259  11.693  0.1611 -0.2173  0.2270
 4192W        W20266  15.900   3.439  10.520 -0.0366  0.1540  0.0550
 4193W        W20267   5.744  12.937  14.646  0.3318  0.1613 -0.1489
 4194W        W20268   0.801   4.233   1.187  0.1643 -0.1708 -0.3099
 4195W        W20269   4.378   6.889   1.043 -0.0628  0.1476  0.0917
 4196W        W20270   4.827  12.745  13.305 -0.0941 -0.1529 -0.0343
 4197W        W20271  12.581  10.404   0.994 -0.0908  0.1632  0.0001
 4198W        W20272   5.141   8.278  16.021 -0.1982 -0.3222 -0.2653
 4199W        W20273   1.271   4.407   3.923  0.3422 -0.0961  0.1781
 4200W        W20274   4.121  17.019  11.491  0.5058  0.0490  0.0491
 4201W        W20275   3.433  17.933   4.871  0.0596  0.3455  0.2190
 4202W        W20276  10.306   6.600  13.945 -0.1648 -0.1364  0.0426
 4203W        W20277   7.947   9.661  14.211  0.3403 -0.2787 -0.1144
 4204W        W20278  17.296   4.360   1.128 -0.0503  0.2801  0.0716
 4205W        W20279   1.588  16.159  14.523 -0.1253 -0.0520 -0.2267
 4206W        W20280  12.762  12.848  14.216 -0.1675 -0.1072 -0.3039
 4207W        W20281   8.563  15.287  11.144  0.1953  0.3594 -0.0291
 4208W        W20282   6.382   5.979   1.346 -0.2076  0.0224  0.1106
 4209W        W20283  10.133   4.517   1.627  0.3268 -0.1038 -0.2104
 4210W        W20284   8.349   3.338   2.249  0.0639 -0.0047 -0.0758
 4211W        W20285   3.827   8.730   0.264 -0.0884 -0.0985  0.1184
 4212W        W20286   3.183  10.885  13.529 -0.3347 -0.0707 -0.3348
 4213W        W20287   1.102   8.274   4.666 -0.0894 -0.2125  0.1211
 4214W        W20288  13.320   5.454  14.586 -0.1153  0.1816  0.1064
 4215W        W20289   1.283  15.437  13.936 -0.1254 -0.0762  0.2975
 4216W        W20290  11.043   1.057   3.692  0.3673 -0.1938 -0.1887
 4217W        W20291  17.402  18.197  14.934 -0.1052  0.1954 -0.2230
 4218W        W20292  12.556  13.045  10.175  0.0571  0.0741  0.0324
 4219W        W20293   5.033  14.953  15.058 -0.1008 -0.2227 -0.3543
 4220W        W20294  11.103   3.873  14.275 -0.2719 -0.0797  0.0499
 4221W        W20295  16.265   2.546  10.980  0.2239  0.1909 -0.2854
 4222W        W20296   7.635   0.043  10.907  0.0238 -0.2263 -0.0355
 4223W        W20297  11.789   1.800  15.859 -0.1908 -0.0788 -0.0559
 4224W        W20298  17.023  12.687   6.084 -0.0433  0.3493 -0.1682
 4225W        W20299  12.204  11.442   3.593 -0.1996  0.2005  0.1457
 4226W        W20300   1.804  17.771   4.395 -0.0570  0.2647 -0.0221
 4227W        W20301   9.786  10.291  11.229 -0.0800  0.1270  0.1134
 4228W        W20302   6.123  10.142  14.485  0.0938  0.2851 -0.0375
 4229W        W20303   8.378   1.051   1.509  0.0288  0.4252 -0.1974
 4230W        W20304   5.854   9.205   2.964  0.2300  0.1132  0.1272
 4231W        W20305   2.082  13.033   0.896 -0.1097 -0.2902 -0.2190
 4232W        W20306  14.937   5.064  10.966 -0.0091 -0.0602 -0.0435
 4233W        W20307   3.022   0.554   3.256 -0.1497  0.0686 -0.1502
 4234W        W20308   8.698   4.923   3.709 -0.0943 -0.1701  0.4439
 4235W        W20309   9.776   1.176  14.641  0.0130  0.0122 -0.1463
 4236W        W20310  13.018   6.738   3.924 -0.3388  0.1684  0.1108
 4237W        W20311   0.772   1.262   3.159  0.2293 -0.1765 -0.0251
 4238W        W20312   0.950   0.869   4.973 -0.1463  0.2692  0.0325
 4239W        W20313   9.050   8.609   1.202  0.0466 -0.0113  0.0914
 4240W        W20314   1.368   8.431   4.253 -0.1199 -0.2078 -0.0453
 4241W        W20315   1.623  15.936   0.821 -0.0239 -0.1035 -0.2288
 4242W        W20316   6.802   2.694   5.096  0.0186  0.0221  0.2079
 4243W        W20317  16.372   3.140  10.326 -0.3092  0.2035  0.4331
 4244W        W20318  15.563   4.967   4.788 -0.1420  0.0377  0.2881
 4245W        W20319  18.192  10.881  11.399 -0.0374 -0.0598  0.1627
 4246W        W20320  13.238   5.336  15.526 -0.0686 -0.0424 -0.1624
 4247W        W20321   3.670  15.781   2.639  0.2355 -0.0284 -0.1518
 4248W        W20322   1.772   6.050   0.222 -0.3507  0.1275  0.0971
 4249W        W20323   1.022   5.292   5.022  0.0764 -0.0486 -0.1365
 4250W        W20324  14.831   1.787   4.029  0.3464 -0.1939  0.0678
 4251W        W20325  17.359   6.176   4.119 -0.1854 -0.0822 -0.0163
 4252W        W20326   6.330   2.823  13.679  0.0964 -0.0381 -0.3029
 4253W        W20327  11.155   4.319   1.438  0.0382  0.1113 -0.2213
 4254W        W20328   0.885   1.795  15.476  0.0272 -0.2160  0.1990
 4255W        W20329   0.811   6.752  15.965  0.1118 -0.0135 -0.0259
 4256W        W20330   1.529   9.270  15.615  0.0243 -0.0479  0.2314
 4257W        W20331   6.734   9.284   4.668 -0.1782 -0.0528  0.2006
 4258W        W20332   7.631  10.933   3.693  0.1547 -0.0470  0.0142
 4259W        W20333   8.628   4.615  15.869  0.1440  0.1594 -0.1423
 4260W        W20334  16.263   6.815   3.107 -0.1781 -0.1630 -0.0574
 4261W        W20335   9.065   9.177  13.099  0.1068  0.1229 -0.2272
 4262W        W20336  11.570   3.408  12.856  0.1131  0.0773 -0.0993
 4263W        W20337  11.442   7.067   1.945 -0.0427 -0.0968 -0.0259
 4264W        W20338   3.028   1.437  11.960  0.0153 -0.0426  0.0429
 4265W        W20339   3.831   0.105  11.480 -0.1131  0.0667  0.1606
 4266W        W20340   5.259  11.470  14.437  0.0291  0.3094  0.0602
 4267W        W20341   9.186  10.912  15.214 -0.2248 -0.2453 -0.3049
 4268W        W20342  11.273  12.130   5.346 -0.2494 -0.0176 -0.1556
 4269W        W20343  12.234   0.538  13.458 -0.0204  0.1397  0.0499
 4270W        W20344  11.287  14.584   4.076  0.2899 -0.2301 -0.3641
 4271W        W20345   1.068  17.194  12.557  0.0809  0.1502  0.0809
 4272W        W20346   0.714   0.279  11.152 -0.0472  0.2439  0.0183
 4273W        W20347  12.510   6.184  15.591  0.1647  0.1170 -0.0387
 4274W        W20348   6.192  16.150  11.510 -0.2669 -0.0820  0.1736
 4275W        W20349   1.431  16.794   3.589 -0.0841  0.1620 -0.0902
 4276W        W20350   9.422  13.786   2.742 -0.2959 -0.1681  0.0147
 4277W        W20351  16.810   9.717  14.034  0.3262  0.0944  0.1963
 4278W        W20352  16.205   7.484  15.715  0.0091 -0.4172 -0.3505
 4279W        W20353   5.620  17.967   5.737 -0.2111  0.2612 -0.2243
 4280W        W20354   9.767   1.551   2.602  0.0957 -0.0675 -0.1196
 4281W        W20355  13.954  10.184  11.248 -0.1811 -0.1834  0.1087
 4282W        W20356   9.364   3.275  15.899 -0.0530 -0.0623  0.0605
 4283W        W20357   3.250  15.883  13.250 -0.0526  0.0528  0.1959
 4284W        W20358  15.511   4.558   2.454 -0.3361 -0.1565  0.2160
 4285W        W20359   5.043   5.180   0.788 -0.4425 -0.1181 -0.2157
 4286W        W20360  18.006  15.237   5.038 -0.4978  0.0091 -0.0124
 4287W        W20361  11.912  10.205   1.223  0.0220  0.0167  0.1773
 4288W        W20362   5.103  10.101  13.635  0.0408 -0.0686 -0.0081
 4289W        W20363   8.684   7.806  13.707 -0.1789  0.0752 -0.2721
 4290W        W20364   7.351   4.582   4.408 -0.0764  0.0728 -0.1011
 4291W        W20365  10.669  12.067  14.649  0.1516 -0.1669 -0.3166
 4292W        W20366  14.657   1.314   4.208 -0.0052 -0.3234 -0.1701
 4293W        W20367   7.049   3.278  12.948 -0.1640  0.5335  0.0765
 4294W        W20368  13.734  16.403  11.952 -0.2108 -0.2061 -0.0727
 4295W        W20369  12.915  17.392   0.453  0.1956 -0.2107 -0.1053
 4296W        W20370   3.076  15.245   2.590  0.0301 -0.0359  0.3011
 4297W        W20371   5.485  14.820   4.376  0.0567  0.1815 -0.1931
 4298W        W20372   6.492   3.913  13.903 -0.1736  0.2639 -0.2760
 4299W        W20373  16.791   4.722   0.101  0.0295 -0.1324  0.0431
 4300W        W20374   3.319   2.196  12.344 -0.0453 -0.0339 -0.2844
 4301W        W20375   3.179  16.396  12.167  0.2334  0.1113  0.1177
 4302W        W20376  12.628  14.651   1.509 -0.0513  0.2743 -0.0750
 4303W        W20377   0.382  14.345  10.466 -0.1680 -0.0994  0.1467
 4304W        W20378  13.725  11.984  14.048 -0.4184 -0.0755  0.1938
 4305W        W20379  14.442  15.597   2.693 -0.0680 -0.1858 -0.4667
 4306W        W20380   6.914   5.025  15.762 -0.2628 -0.0211  0.1528
 4307W        W20381  13.168  14.320   4.693 -0.0297 -0.2041  0.1872
 4308W        W20382   5.610   9.585  12.674 -0.1565 -0.0996 -0.2595
 4309W        W20383   1.708  16.084   5.154  0.1310 -0.5409 -0.3344
 4310W        W20384  12.010   7.765   3.230  0.0781  0.0265 -0.2628
 4311W        W20385   0.375   6.489   5.059 -0.1638  0.0460  0.3535
 4312W        W20386  18.243   3.511   0.417  0.1492 -0.1954  0.0039
 4313W        W20387  18.500   3.297   4.565 -0.2181  0.3188  0.3075
 4314W        W20388   5.703   6.927   5.061 -0.1062  0.1396  0.0203
 4315W        W20389   4.141  18.197  11.519 -0.0020  0.0293  0.3433
 4316W        W20390   4.231   8.573   5.599 -0.2515  0.0407 -0.1243
 4317W        W20391  15.373   0.097   3.376 -0.0933 -0.0265 -0.0335
 4318W        W20392  10.570   1.511  11.315  0.0254  0.1901 -0.0444
 4319W        W20393   4.111  14.812  15.439 -0.2004 -0.0187 -0.0597
 4320W        W20394  11.340  16.111  13.716 -0.1443  0.1294 -0.1348
 4321W        W20395   3.334   2.249  15.169  0.1091 -0.2226 -0.1091
 4322W        W20396  14.969   4.152  14.225 -0.3078 -0.0763  0.0443
 4323W        W20397   4.751   1.382   4.723  0.3099 -0.1575  0.2437
 4324W        W20398  16.591  17.750  15.516  0.1091  0.0704  0.0511
 4325W        W20399   1.988  11.928   1.712  0.3117 -0.0528  0.1879
 4326W        W20400  15.804  14.161   1.181 -0.3132  0.2041  0.2414
 4327W        W20401   3.413   9.134   0.157  0.1053 -0.1105  0.0023
 4328W        W20402  15.542   7.661  12.209 -0.1664  0.1984  0.0903
 4329W        W20403   9.510  11.444   5.307  0.0267  0.2077 -0.1317
 4330W        W20404   9.280  11.308   4.780  0.2488 -0.1306 -0.0374
 4331W        W20405   2.983  17.721   5.086 -0.1162 -0.1575  0.0271
 4332W        W20406  13.475   0.928   3.445 -0.2289 -0.0722 -0.2066
 4333W        W20407  16.844   2.748   3.088 -0.0494  0.0176 -0.1496
 4334W        W20408  18.204   5.498  11.675 -0.0117  0.1329 -0.1041
 4335W        W20409   4.192   6.060  16.020 -0.2616 -0.2959  0.0936
 4336W        W20410   5.980   4.658   4.606 -0.0666  0.1195 -0.2327
 4337W        W20411  12.577  18.325  14.055  0.1798  0.1538  0.4140
 4338W        W20412   8.685   9.338   3.344  0.0228  0.1328 -0.2117
 4339W        W20413  18.378   7.395   0.696 -0.0725 -0.1282  0.3138
 4340W        W20414   9.103  10.346   3.300 -0.0725  0.1635  0.1064
 4341W        W20415  12.878   9.503  10.010  0.1250 -0.3727  0.0276
 4342W        W20416   5.308   5.485   0.321  0.0637 -0.2210 -0.2632
 4343W        W20417   7.444  13.027   1.447  0.0113 -0.1152  0.0416
 4344W        W20418   2.832   4.586  13.821  0.1151 -0.1437 -0.2053
 4345W        W20419   6.515  18.094  11.942 -0.0415 -0.3218 -0.1379
 4346W        W20420  11.920  15.180   1.009  0.3788 -0.2073  0.0235
 4347W        W20421  11.390  14.970  11.230  0.0654 -0.2767 -0.0127
 4348W        W20422   4.163   3.537  11.429 -0.2899 -0.2700  0.3058
 4349W        W20423   6.492   1.198   2.834  0.2776 -0.2899  0.0989
 4350W        W20424   4.129   1.166   0.904 -0.0343  0.1603  0.0667
 4351W        W20425  10.672  11.363  15.969 -0.2477  0.2290 -0.0473
 4352W        W20426  14.688   1.958  15.605  0.1547 -0.1184  0.0594
 4353W        W20427  16.178  16.974  15.333 -0.1194  0.0595  0.1387
 4354W        W20428   2.774  17.696   4.177  0.2838 -0.1901  0.1411
 4355W        W20429  14.911  16.282   5.415 -0.3597 -0.5892 -0.3905
 4356W        W20430   0.909   9.313  11.973 -0.1610 -0.1015  0.3035
 4357W        W20431  10.771  11.875   3.557 -0.1075 -0.2563 -0.1427
 4358W        W20432  11.625   3.748   3.626  0.1563  0.1957 -0.2602
 4359W        W20433   3.069   0.810   4.935  0.1234  0.0163 -0.5598
 4360W        W20434   8.320  13.500   1.212 -0.1552 -0.0691  0.1845
 4361W        W20435  14.795   2.323  14.590  0.0104 -0.1780  0.2176
 4362W        W20436   4.457  11.251  15.811  0.0958 -0.2556  0.0204
 4363W        W20437   0.067   2.157  11.772  0.1856  0.5303  0.0047
 4364W        W20438   1.290   4.415   3.103 -0.1494 -0.0398 -0.0725
 4365W        W20439   3.123  16.263  11.693 -0.0090  0.0488  0.1502
 4366W        W20440   7.653   4.360  15.308  0.0425  0.2716 -0.1706
 4367W        W20441   1.496   9.866  13.000 -0.5049 -0.0080 -0.0357
 4368W        W20442   8.171  12.583   3.777  0.1217 -0.0565 -0.1392
 4369W        W20443  14.293  11.601   0.247 -0.2049  0.0881  0.1530
 4370W        W20444  18.497  10.573   1.395 -0.1761 -0.0714  0.3900
 4371W        W20445   5.119   2.289   0.754  0.0112  0.0957 -0.0312
 4372W        W20446  11.052  10.426   1.101  0.2653 -0.3629 -0.0936
 4373W        W20447   0.160   6.618   3.461 -0.0924  0.1392  0.0267
 4374W        W20448   7.956  16.381  14.259  0.0383 -0.0727  0.1273
 4375W        W20449  17.561  14.257   1.985  0.1120  0.0015  0.0821
 4376W        W20450   7.513   8.640   5.575  0.0855  0.5115  0.0604
 4377W        W20451   6.974  12.890   4.644 -0.2566  0.1792  0.1914
 4378W        W20452  10.972   4.545   3.337 -0.1922  0.2970  0.2055
 4379W        W20453   9.613   0.065  12.600 -0.1087 -0.3211 -0.2692
 4380W        W20454  12.490  18.020  12.644 -0.3387  0.1625 -0.1955
 4381W        W20455   9.721  18.370   0.014  0.3397 -0.2123 -0.0986
 4382W        W20456   4.585  14.873   4.231  0.2389 -0.2551  0.2307
 4383W        W20457   6.693  12.413  11.558 -0.1264  0.0909 -0.1626
 4384W        W20458   8.277   6.545  13.757  0.1515 -0.0449 -0.1744
 4385W        W20459  17.820  17.593  13.108  0.3204  0.0643 -0.3405
 4386W        W20460  14.857   4.230  12.021  0.0610 -0.4444 -0.0550
 4387W        W20461   0.018   8.153  11.865  0.3380 -0.2973  0.1685
 4388W        W20462   6.276   9.516   1.105  0.1093  0.1605  0.0027
 4389W        W20463  10.966   3.749  13.273 -0.2573  0.1592 -0.0606
 4390W        W20464  11.335   4.889  11.020 -0.0038 -0.0328 -0.2780
 4391W        W20465   1.453   9.139  14.108  0.0446 -0.1751 -0.2423
 4392W        W20466   9.774  10.664  12.995  0.2176  0.1254 -0.1941
 4393W        W20467   6.032  16.999  11.481  0.0986 -0.0515  0.3315
 4394W        W20468   7.236   0.119   2.448  0.0140  0.5336 -0.2758
 4395W        W20469  16.217   3.434  14.980 -0.3276  0.1223 -0.4371
 4396W        W20470   7.063   3.216  12.060  0.4581 -0.3510 -0.0909
 4397W        W20471  10.264  13.194   4.667  0.0868  0.3443  0.0269
 4398W        W20472  14.503  15.481   3.202  0.1204 -0.2437  0.0530
 4399W        W20473   9.574  10.906  12.564 -0.1162  0.0686 -0.1273
 4400W        W20474  13.666  10.849  13.144 -0.1279  0.1332  0.0575
 4401W        W20475  11.563  17.203  15.123 -0.3361 -0.0709 -0.1135
 4402W        W20476  12.336   2.300  14.223  0.1483  0.0412  0.2163
 4403W        W20477   1.110  12.694  13.945 -0.2768  0.3873  0.1101
 4404W        W20478  17.868  16.933   0.537  0.1970 -0.1619  0.0842
 4405W        W20479  18.467  15.022  13.694  0.1608  0.1201  0.2825
 4406W        W20480   2.429  15.824   0.532  0.1363 -0.2561  0.3316
 4407W        W20481   8.690   0.693  12.244 -0.1484 -0.2434 -0.0886
 4408W        W20482   3.591  17.833  15.180 -0.0772  0.1139 -0.0827
 4409W        W20483  16.979   6.884   2.917 -0.0700 -0.1503 -0.1412
 4410W        W20484   3.256   4.953   4.440 -0.1981 -0.0397 -0.0461
 4411W        W20485  10.926  16.476   3.434  0.0022 -0.1859  0.5896
 4412W        W20486  16.484   3.364   5.196  0.2154  0.1429 -0.1257
 4413W        W20487  16.399   1.199   0.687  0.0449 -0.2972 -0.2046
 4414W        W20488   6.905   2.540  14.346  0.3592 -0.0025  0.0207
 4415W        W20489  13.322   7.250   0.628 -0.2796  0.1625  0.3131
 4416W        W20490   2.630  11.097   4.043 -0.1235  0.0181 -0.2683
 4417W        W20491   6.403  14.329  13.706  0.1400 -0.0131  0.1350
 4418W        W20492   3.143  17.159  14.929 -0.1488  0.0687  0.1027
 4419W        W20493  13.092   6.859   4.399 -0.2184  0.1466  0.0500
 4420W        W20494  15.742   3.527   0.425 -0.2034  0.0242 -0.2018
 4421W        W20495   6.737  18.322  11.547  0.2042 -0.1948 -0.2124
 4422W        W20496  14.919   9.360   0.144 -0.1864 -0.1507 -0.3624
 4423W        W20497   1.570   6.563  15.946  0.3365  0.2679 -0.1296
 4424W        W20498   2.292   0.693  14.110  0.1156  0.1392 -0.1395
 4425W        W20499   7.033   2.722  13.148 -0.2961 -0.2858  0.0619
 4426W        W20500   9.484   9.051   4.059  0.1553  0.0650 -0.1218
 4427W        W20501   7.807   0.300  14.688 -0.3824 -0.3462  0.1937
 4428W        W20502   8.824   3.646   0.061  0.2700  0.0042  0.0180
 4429W        W20503  18.372  13.324  15.349  0.0909 -0.1880 -0.0511
 4430W        W20504   6.820   6.809   1.511 -0.1762 -0.0022 -0.1620
 4431W        W20505  11.644   6.412   0.721 -0.1447  0.0277  0.0771
 4432W        W20506   2.376   3.519   0.877 -0.1094  0.1414 -0.3658
 4433W        W20507  13.280   8.155   4.366 -0.2739 -0.1546  0.4397
 4434W        W20508  12.763  10.104  15.077 -0.0759 -0.3188 -0.0529
 4435W        W20509   2.599   6.023  14.453 -0.3816 -0.1695 -0.0064
 4436W        W20510   8.957   9.893   0.780 -0.0075  0.1400 -0.0103
 4437W        W20511  18.526   0.246  14.547  0.2163  0.0016  0.0602
 4438W        W20512   0.937  11.948  15.449  0.0330 -0.0369  0.0821
 4439W        W20513  13.296   9.849  11.757  0.1268  0.1121  0.1790
 4440W        W20514  17.861   1.003   1.094  0.1383  0.0108  0.2444
 4441W        W20515   6.656   8.380  13.950 -0.2341  0.1739  0.0453
 4442W        W20516   9.674  10.061  15.798 -0.1156  0.3105  0.1554
 4443W        W20517   4.147  10.122   6.012  0.3713 -0.4145 -0.1567
 4444W        W20518  13.823   9.052   1.027  0.2173  0.1136 -0.0401
 4445W        W20519   2.305   4.155   3.271  0.1882 -0.0993 -0.2241
 4446W        W20520   8.793  13.773   4.973 -0.1539 -0.2426 -0.1162
 4447W        W20521   6.816  17.490  15.208 -0.1320 -0.2378 -0.1597
 4448W        W20522   8.801   5.744   5.910  0.3372  0.4202  0.2284
 4449W        W20523  15.179   6.605   5.001  0.0953 -0.0383  0.0846
 4450W        W20524   4.113  13.190  14.494 -0.0288 -0.0329  0.2163
 4451W        W20525   2.916  16.401  11.237  0.0325 -0.0015  0.1621
 4452W        W20526  13.661  13.191  15.597  0.4021  0.0339  0.2217
 4453W        W20527  13.734  17.798  14.360 -0.0583 -0.2738 -0.2974
 4454W        W20528  15.807  16.844   3.964 -0.0315  0.0224 -0.0302
 4455W        W20529   0.840  15.706   4.868  0.1977  0.1521 -0.3648
 4456W        W20530  14.979  13.141  15.164 -0.2494  0.3369  0.1604
 4457W        W20531   0.658  17.570   5.324  0.2519  0.0788  0.0412
 4458W        W20532  13.170   6.639  13.648  0.2007  0.1309  0.0442
 4459W        W20533  11.581  15.223  14.814  0.0851 -0.0901 -0.0184
 4460W        W20534   3.438  17.380   3.689 -0.2057  0.1260  0.2462
 4461W        W20535   8.501  12.702   2.463 -0.0479  0.1017 -0.3643
 4462W        W20536   6.480   5.611  11.802  0.0598 -0.0601 -0.0259
 4463W        W20537  12.610   5.005  11.224  0.2685 -0.1110  0.1420
 4464W        W20538   1.972  16.942   0.671 -0.1924  0.0930 -0.1489
 4465W        W20539  13.127   2.485   2.158 -0.0822 -0.2879  0.1309
 4466W        W20540   5.127   2.957   4.470  0.2202  0.3995  0.1976
 4467W        W20541   5.557   2.853  14.544  0.0843  0.2645  0.0003
 4468W        W20542  16.934  13.234   0.253 -0.4458  0.1866  0.0437
 4469W        W20543   0.157   1.125  15.489  0.1189 -0.0007 -0.0055
 4470W        W20544  10.789  17.998  10.780 -0.1618  0.1890  0.0116
 4471W        W20545   8.642   5.788   2.883 -0.2577  0.1939  0.0530
 4472W        W20546  10.048  18.044   3.422  0.2600  0.0926 -0.1347
 4473W        W20547  14.899   9.068  12.896 -0.0599 -0.2693  0.3493
 4474W        W20548   7.761   5.540  12.894 -0.1169 -0.2448 -0.0757
 4475W        W20549   6.001   7.325  13.112  0.3588  0.1168  0.1011
 4476W        W20550  14.559  12.967   5.354 -0.1212 -0.1305  0.1788
 4477W        W20551  12.984  16.823  14.995  0.0523 -0.3500  0.0351
 4478W        W20552  17.683   7.577   4.819  0.0577 -0.1169 -0.0017
 4479W        W20553  12.360   1.308   1.830 -0.1592 -0.1120 -0.0834
 4480W        W20554   7.451   4.069   4.762 -0.0620 -0.2310 -0.1755
 4481W        W20555  12.082   9.320  14.076 -0.1248 -0.0265 -0.1537
 4482W        W20556   9.728  18.523  13.082 -0.1094 -0.0371  0.1176
 4483W        W20557  14.793  18.055   3.490 -0.0343 -0.3154  0.4795
 4484W        W20558   2.576   6.372  11.225  0.1167  0.1222 -0.1882
 4485W        W20559  12.855  11.568   2.783 -0.1480 -0.0020 -0.0843
 4486W        W20560  11.698   3.171   5.014 -0.2826 -0.0291  0.3203
 4487W        W20561  12.827   2.847  14.631  0.0662 -0.0993 -0.3971
 4488W        W20562   6.733   2.679   0.811 -0.2499  0.2180 -0.0188
 4489W        W20563  12.143  12.064  12.093  0.0523 -0.2821  0.1408
 4490W        W20564   9.146  17.713   2.262 -0.1049  0.2369 -0.1911
 4491W        W20565   2.846   0.311  14.979  0.1710  0.0017 -0.2901
 4492W        W20566   4.825  17.642   0.559 -0.0570 -0.0185  0.6627
 4493W        W20567   0.719  13.830   0.569 -0.1330  0.3178 -0.1240
 4494W        W20568   1.535   5.920  12.743 -0.4929 -0.1690 -0.3597
 4495W        W20569   4.148   8.327   1.839  0.1346  0.2207 -0.3855
 4496W        W20570  14.318  10.746   2.469  0.0718  0.0491  0.1405
 4497W        W20571   1.517   5.191   5.209  0.3581 -0.0101  0.0069
 4498W        W20572   3.697   3.585   3.286  0.1068 -0.1078 -0.3426
 4499W        W20573  12.795  12.240  12.526  0.0381 -0.1536 -0.0458
 4500W        W20574   9.226  15.633  14.931 -0.2366  0.2903  0.1259
 4501W        W20575   8.946  10.377   1.974 -0.0103  0.1727  0.0527
 4502W        W20576  13.843  17.168   3.415 -0.2859  0.1727 -0.1330
 4503W        W20577   1.265  12.827   0.357 -0.1215 -0.2001  0.2067
 4504W        W20578  18.146   5.325   5.203 -0.0261  0.2838 -0.0285
 4505W        W20579  15.236   6.377  12.868  0.0957 -0.1188  0.2492
 4506W        W20580  16.061   8.289  14.160 -0.3642 -0.0616 -0.0477
 4507W        W20581   3.545   8.109  12.952 -0.0076  0.0925  0.1254
 4508W        W20582  15.409  12.065   0.652  0.1043  0.2422  0.1537
 4509W        W20583   1.621   6.409  11.353  0.4529 -0.0868  0.1777
 4510W        W20584   7.922   3.035  15.635 -0.1048  0.4633 -0.2119
 4511W        W20585   4.818  11.107  11.514  0.1933  0.2233  0.0880
 4512W        W20586   4.504  12.319   2.811 -0.0333 -0.1789  0.1028
 4513W        W20587  10.507   2.085   3.336 -0.0694  0.1103 -0.2368
 4514W        W20588  11.950  18.464   0.322  0.0445  0.0743  0.0857
 4515W        W20589  15.002  17.831  15.936  0.0917 -0.2553  0.0218
 4516W        W20590  17.881   0.700  10.430 -0.0447  0.1250 -0.0120
 4517W        W20591  16.537  17.223  10.795 -0.0497 -0.0354 -0.1074
 4518W        W20592   1.604  14.637  15.192  0.0913  0.1025  0.1692
 4519W        W20593   2.272   1.674   3.040 -0.2310  0.3376  0.2724
 4520W        W20594  14.021  16.930  12.823 -0.1311 -0.0876  0.1167
 4521W        W20595   8.432  10.959   1.389 -0.2037 -0.1217  0.0137
 4522W        W20596  14.124   8.994  15.045 -0.0107  0.1126 -0.1236
 4523W        W20597   6.279   3.399  13.619  0.1013 -0.1166 -0.1886
 4524W        W20598  11.879  11.452  11.710 -0.0897 -0.0892 -0.1927
 4525W        W20599   8.880  11.333  13.741 -0.3601 -0.5063  0.0826
 4526W        W20600  17.474   8.450  11.511  0.3703  0.1343  0.1590
 4527W        W20601  16.718  17.199  12.090 -0.1953  0.0654  0.0314
 4528W        W20602   4.208   5.402   1.226 -0.2897  0.0156  0.0217
 4529W        W20603   4.244   0.315   4.005 -0.1412  0.4036 -0.1858
 4530W        W20604  15.845   7.117  12.807 -0.0152 -0.1025  0.3408
 4531W        W20605  14.775   3.532   0.182  0.0340  0.2218  0.1200
 4532W        W20606   4.058   1.558  15.617  0.0939  0.0144  0.1340
 4533W        W20607  15.096  14.872  15.872 -0.2113 -0.1305 -0.3225
 4534W        W20608  15.409  12.858  16.006  0.0717 -0.0298  0.2190
 4535W        W20609  18.060  17.463   0.582  0.2476  0.1101  0.1547
 4536W        W20610   4.861  17.651  11.299  0.0469  0.2887 -0.1663
 4537W        W20611  12.953   2.107  13.473  0.0909  0.1379  0.1948
 4538W        W20612   0.145   6.473  15.892  0.0224 -0.0373 -0.3194
 4539W        W20613   5.157   4.530  11.337 -0.2042 -0.0149  0.1235
 4540W        W20614   9.896   7.105   3.730  0.1034  0.1651 -0.1465
 4541W        W20615  16.800   5.362  13.166 -0.0004  0.3477  0.3094
 4542W        W20616   7.778   3.650   3.017 -0.2092 -0.0085 -0.0541
 4543W        W20617  13.464   9.935  13.614  0.0962 -0.1320 -0.0704
 4544W        W20618  13.453  16.448  12.866  0.0305  0.5871 -0.0947
 4545W        W20619   5.544  11.364   2.922  0.1482  0.0239 -0.3000
 4546W        W20620   1.921   6.607  15.516  0.1256  0.0668 -0.0527
 4547W        W20621  12.669   9.735  10.715  0.0766  0.0501 -0.0342
 4548W        W20622  16.084   2.245   3.079 -0.1734  0.1103 -0.1165
 4549W        W20623   8.774  11.322   1.157  0.2838 -0.0251  0.2344
 4550W        W20624  18.385  13.360   2.778  0.1471  0.2963 -0.0067
 4551W        W20625  16.073   1.970   4.438 -0.3591 -0.2520 -0.0819
 4552W        W20626   4.144   1.723  12.716 -0.1102  0.0092 -0.1593
 4553W        W20627   9.666  16.464  15.030 -0.0326  0.2197 -0.1095
 4554W        W20628   0.028  17.360  14.149 -0.0425  0.1510 -0.2561
 4555W        W20629  16.010   5.362   0.823  0.1144 -0.3162 -0.0002
 4556W        W20630  14.956   6.636  13.219  0.3444  0.3413 -0.0360
 4557W        W20631   8.451   1.598   4.629  0.1382 -0.0373 -0.6602
 4558W        W20632  17.656   5.349  13.692  0.0088 -0.2961 -0.3334
 4559W        W20633   9.623   0.304   0.171  0.0225  0.1190 -0.0485
 4560W        W20634   2.376  17.853   3.882 -0.0623 -0.3115  0.2044
 4561W        W20635   2.637  17.115  13.689  0.3470  0.1115 -0.2353
 4562W        W20636  13.328  13.543  15.880 -0.0445 -0.0717  0.2422
 4563W        W20637   7.565   0.786   1.122  0.1870 -0.1718  0.1461
 4564W        W20638  15.905   9.798  15.654  0.0623  0.0793  0.1007
 4565W        W20639   2.510  11.379  15.376 -0.0596 -0.2288 -0.0327
 4566W        W20640   3.306   2.705   3.976  0.1255 -0.0601 -0.0177
 4567W        W20641  18.040   8.452   0.276 -0.0779 -0.1247 -0.2341
 4568W        W20642  12.066   9.266  11.339  0.0308  0.1713 -0.0031
 4569W        W20643  16.480  18.518   2.755  0.0139  0.2734 -0.0219
 4570W        W20644   2.546  11.206  13.454 -0.0454  0.0294  0.1868
 4571W        W20645   9.355   0.202  11.632  0.0034  0.4740  0.0762
 4572W        W20646  14.064  14.218   1.591 -0.1071  0.0194  0.1052
 4573W        W20647  18.530   2.830   4.363 -0.2057 -0.0441 -0.0312
 4574W        W20648   4.159  16.620  15.490  0.1427 -0.0905 -0.1327
 4575W        W20649   6.314   7.622   5.620  0.0813 -0.0654  0.0019
 4576W        W20650   0.006  18.155   4.744  0.5409  0.0690  0.0208
 4577W        W20651   8.312   9.516   4.941  0.1040  0.0365 -0.1005
 4578W        W20652   1.626  12.219   3.276 -0.2825  0.2965 -0.0714
 4579W        W20653   5.203   5.141   3.220  0.4367 -0.2400 -0.0145
 4580W        W20654  17.477  17.915  11.169 -0.0913  0.1073 -0.0218
 4581W        W20655   7.477   5.989   2.612  0.0114  0.1386 -0.4875
 4582W        W20656  13.991  15.997   2.795 -0.1489  0.1109  0.0093
 4583W        W20657  14.396   3.441  12.428 -0.0267 -0.1366  0.1032
 4584W        W20658   3.636  12.219   0.000 -0.0173 -0.0454 -0.0257
 4585W        W20659   2.696   8.417  13.200 -0.0155  0.0313 -0.1920
 4586W        W20660  18.024   6.361  14.670  0.0662  0.1029  0.2332
 4587W        W20661  15.573   5.462  15.664 -0.3370  0.0452  0.0028
 4588W        W20662   1.049   0.734  14.579 -0.0986  0.1189 -0.2109
 4589W        W20663   1.113   4.462   9.932 -0.0268  0.2105  0.1517
 4590W        W20664  18.084   4.675  11.516 -0.2942 -0.0762 -0.4590
 4591W        W20665   9.398   9.842  12.208 -0.1668 -0.1862 -0.0679
 4592W        W20666   3.023   7.183   0.197  0.2370 -0.0492  0.1674
 4593W        W20667   5.529  10.387  12.268  0.0666  0.3399  0.0363
 4594W        W20668  10.121   3.541  12.784 -0.2786 -0.0596  0.1524
 4595W        W20669   1.136  13.606   4.789  0.0946 -0.0161 -0.5858
 4596W        W20670   4.778  10.784   2.595 -0.0741  0.0595  0.1587
 4597W        W20671   7.801   2.688  11.702 -0.0634  0.1031  0.1073
 4598W        W20672   3.069   8.445  15.885 -0.0856  0.4541  0.0157
 4599W        W20673   0.900   9.413  15.387 -0.1244 -0.1807  0.0297
 4600W        W20674  15.477  13.941   1.468  0.2135 -0.1478 -0.0273
 4601W        W20675  13.004   7.264  11.293  0.3711  0.0044 -0.1092
 4602W        W20676   5.779   4.282   2.850  0.1241 -0.0262  0.2302
 4603W        W20677   2.561  13.038   2.116 -0.0498 -0.1770 -0.3049
 4604W        W20678   2.740   5.290   0.900 -0.5277  0.1397 -0.1585
 4605W        W20679   8.375   9.397  15.184 -0.1465 -0.1127  0.4680
 4606W        W20680  16.410   7.206   0.966  0.1675 -0.0667  0.3538
 4607W        W20681  17.933  18.329  12.955 -0.0429  0.0687 -0.0982
 4608W        W20682   0.650   1.077  14.495  0.1019  0.2355 -0.0891
 4609W        W20683   0.770   5.772   5.727  0.1153 -0.2249  0.0171
 4610W        W20684   2.653  12.875  12.294 -0.1060  0.5663  0.1051
 4611W        W20685  10.680  17.085  15.051 -0.4238  0.1297  0.3071
 4612W        W20686   5.270  15.062   5.233  0.0199  0.3293  0.0494
 4613W        W20687  11.100   6.941  13.689 -0.1620 -0.0195 -0.1374
 4614W        W20688   1.354   9.004   3.405  0.0251 -0.0234 -0.0614
 4615W        W20689   0.948   7.669   4.627 -0.0751 -0.6597 -0.1260
 4616W        W20690  17.591   6.406  13.109 -0.1315  0.2874  0.1366
 4617W        W20691   2.114   5.272  13.849 -0.1375  0.0273 -0.1757
 4618W        W20692   5.870   6.774   1.505 -0.2912  0.2491  0.1572
 4619W        W20693   4.759  16.773  11.905 -0.0192  0.3361 -0.1022
 4620W        W20694  13.506  13.760   3.286  0.1439  0.1830 -0.0470
 4621W        W20695   7.707  16.484  15.409  0.2379  0.1096  0.0685
 4622W        W20696   7.607  10.582   5.185  0.0845 -0.0010 -0.0534
 4623W        W20697   5.289   1.540  13.931  0.1251  0.5148 -0.1931
 4624W        W20698  16.477   0.069   1.628  0.0536  0.0221  0.2376
 4625W        W20699  14.263   9.785  13.833 -0.0058 -0.2968 -0.3651
 4626W        W20700  12.251   6.574  15.308 -0.1928  0.2809  0.1359
 4627W        W20701   1.223   8.699  14.888  0.0953  0.0923  0.0611
 4628W        W20702   4.867   5.211   4.694 -0.2633  0.0641  0.0016
 4629W        W20703  12.928  10.441  11.718  0.1137  0.0776  0.1647
 4630W        W20704   8.446   1.181   6.101  0.1023  0.1732  0.0872
 4631W        W20705  14.918   0.579   0.063 -0.3028  0.0277  0.0807
 4632W        W20706   2.966   2.028   4.569  0.1677 -0.3294 -0.0492
 4633W        W20707   6.454   1.545  12.580 -0.4414 -0.0068  0.1167
 4634W        W20708  15.668   8.744  15.950  0.1386  0.1128 -0.0583
 4635W        W20709  11.039   1.382  12.300 -0.1176  0.1869 -0.2153
 4636W        W20710  11.253   3.501   3.317 -0.0050  0.2033 -0.4586
 4637W        W20711   8.042  16.113  15.322 -0.0725 -0.2087 -0.0565
 4638W        W20712  13.078   3.027   2.269 -0.0005  0.1973 -0.1067
 4639W        W20713   0.235  18.484  15.239 -0.0230 -0.1008 -0.0997
 4640W        W20714   7.254  10.870   2.552  0.0656 -0.2016  0.0097
 4641W        W20715  12.055  15.916  11.952 -0.3090 -0.0669  0.1418
 4642W        W20716   7.823   8.046   0.230 -0.3736  0.3635  0.1237
 4643W        W20717   2.336   3.354   3.881 -0.3886 -0.3963 -0.0883
 4644W        W20718   0.302   6.051   4.246 -0.0615 -0.0520 -0.0263
 4645W        W20719   0.824  11.512  15.227 -0.3837  0.0915  0.0533
 4646W        W20720  14.613  17.589  15.728  0.0220 -0.4449 -0.0751
 4647W        W20721   7.704  13.788  14.727 -0.1370 -0.1651 -0.3390
 4648W        W20722   1.787   7.246  12.490  0.0462 -0.2937  0.0097
 4649W        W20723   1.709  12.406  15.700  0.0607 -0.3782 -0.0849
 4650W        W20724  14.973   3.463  13.553 -0.1694 -0.2464  0.1770
 4651W        W20725  10.451   7.401  12.311  0.1006  0.0017 -0.0120
 4652W        W20726   8.729  11.268   3.190 -0.0276 -0.4057  0.0273
 4653W        W20727  12.426  16.782   0.787  0.1175 -0.0181 -0.3202
 4654W        W20728  14.492   4.783   0.929 -0.0810  0.0976 -0.1945
 4655W        W20729   8.136   5.943   5.255 -0.1833 -0.1004  0.0931
 4656W        W20730   3.337  14.693   1.690  0.2583  0.2862 -0.1460
 4657W        W20731   1.866   8.607   4.218 -0.3034 -0.1050  0.0182
 4658W        W20732   0.064  17.565   2.751 -0.3012 -0.1356 -0.5704
 4659W        W20733   7.037   7.426   3.399 -0.2295 -0.2298 -0.0804
 4660W        W20734  17.510   4.028   3.035  0.0622 -0.3471  0.0800
 4661W        W20735   1.054   7.972   3.275 -0.4230  0.1475 -0.0090
 4662W        W20736   2.698  14.937   3.470  0.2527 -0.1385 -0.1558
 4663W        W20737   7.350   6.582   5.397  0.2916 -0.1152 -0.1625
 4664W        W20738   3.723   6.258   2.788 -0.0294 -0.0164  0.0342
 4665W        W20739   9.061  18.549   0.213  0.2397 -0.1279  0.0541
 4666W        W20740  12.895  15.058   4.015  0.3832 -0.1076  0.0776
 4667W        W20741  16.894   5.825   4.880 -0.1388  0.0934  0.5043
 4668W        W20742   8.934  13.256   4.858 -0.1270 -0.1557  0.0177
 4669W        W20743  16.075  18.158   4.247 -0.0127 -0.1430  0.4515
 4670W        W20744   6.445   3.543   3.963 -0.2609 -0.1607 -0.0333
 4671W        W20745   0.730  15.474   2.683 -0.1658  0.2257 -0.1236
 4672W        W20746  16.682  13.590   4.187  0.0225 -0.1064  0.2582
 4673W        W20747   6.305   1.463   3.722 -0.0650  0.2401 -0.0629
 4674W        W20748  13.703  15.785   1.045 -0.0754  0.0958 -0.1305
 4675W        W20749   9.289  15.235  14.014 -0.1828  0.4284 -0.2344
 4676W        W20750  14.236   4.354   3.265  0.0143 -0.0576  0.0521
 4677W        W20751  16.968  10.318  13.294  0.1937  0.0630  0.2825
 4678W        W20752   6.677   1.322   1.390  0.0268 -0.0618 -0.2611
 4679W        W20753   0.642   2.218   3.818  0.2006 -0.2714 -0.2711
 4680W        W20754   7.563  16.147   2.082 -0.2450 -0.1210  0.1665
 4681W        W20755  10.531  10.469  13.194 -0.3485 -0.0123 -0.0565
 4682W        W20756  10.190   4.959  11.204  0.0982 -0.2325  0.0263
 4683W        W20757   5.693   9.097  12.539  0.2588  0.2777  0.0483
 4684W        W20758   3.982  18.159   2.970 -0.0434 -0.0539  0.2541
 4685W        W20759  17.367   4.653  13.365  0.0060  0.0151  0.1696
 4686W        W20760  10.301   8.543   4.717  0.1991  0.0623  0.2854
 4687W        W20761  10.163  14.543  11.159 -0.0875  0.3180  0.1297
 4688W        W20762   8.658   5.627  12.352 -0.0016 -0.1053  0.0533
 4689W        W20763   2.373  11.972   1.229  0.3775 -0.4081 -0.1803
 4690W        W20764  13.824   1.765   2.825 -0.0920 -0.2449 -0.2388
 4691W        W20765  16.000   4.769   2.131  0.3331  0.1195  0.0942
 4692W        W20766   2.107   5.187  13.297  0.1014  0.3346  0.0761
 4693W        W20767   2.210  12.896   3.829  0.2346 -0.0536  0.5044
 4694W        W20768   3.186  10.975   0.968  0.0765  0.0844  0.1190
 4695W        W20769   3.483  11.615  15.567 -0.0464 -0.0231 -0.0148
 4696W        W20770   7.161   9.933   1.102  0.0289 -0.0308 -0.0019
 4697W        W20771  12.007   2.664  13.406  0.1843 -0.0746 -0.0310
 4698W        W20772   2.988   0.116  13.031  0.0054 -0.3171  0.1493
 4699W        W20773   9.533  13.768  11.482  0.0942 -0.0673 -0.0443
 4700W        W20774  15.838   9.438   4.409  0.2272 -0.0553  0.4107
 4701W        W20775  13.363  14.718   1.883  0.4157  0.0370  0.1123
 4702W        W20776  16.710  10.663   3.057 -0.0691  0.1927  0.0531
 4703W        W20777   3.461  17.477  12.794  0.2431  0.1062 -0.0874
 4704W        W20778  16.529   5.995   4.199  0.2725  0.0861  0.0833
 4705W        W20779   2.686  17.599   0.634  0.1455  0.0304 -0.0519
 4706W        W20780  11.169  11.487  15.827 -0.0684 -0.0852  0.1444
 4707W        W20781  12.081   8.543   3.057 -0.1673 -0.2635  0.4209
 4708W        W20782   9.921   2.098   1.272 -0.0622 -0.0578  0.0290
 4709W        W20783  16.270   5.784   4.750 -0.0261  0.1484 -0.0642
 4710W        W20784   7.115  11.696   5.839  0.0945  0.1740  0.1223
 4711W        W20785  12.620   4.818   5.092 -0.0146 -0.4949  0.0788
 4712W        W20786  13.951  16.152  14.213 -0.5147  0.4955  0.2652
 4713W        W20787  14.301   6.675   4.393 -0.0865  0.0242 -0.1401
 4714W        W20788  17.270   7.803  15.759  0.4308  0.0656 -0.0844
 4715W        W20789  16.128  11.331   4.635  0.0415  0.0730 -0.1759
 4716W        W20790   7.799  12.371   0.697 -0.2020 -0.1333  0.1327
 4717W        W20791  14.093  14.534  11.599 -0.1898 -0.4007 -0.0041
 4718W        W20792  18.222  14.997   5.419  0.0848 -0.0239  0.1154
 4719W        W20793  12.551  10.379  14.569  0.1800  0.1136  0.2076
 4720W        W20794   3.362  15.556   0.332  0.1340  0.0084  0.0409
 4721W        W20795  17.250  15.396  11.628 -0.1508  0.1962 -0.0018
 4722W        W20796  10.403   2.994  14.962 -0.0186  0.0346  0.0899
 4723W        W20797   2.403   8.837  15.184 -0.2482 -0.4543 -0.2272
 4724W        W20798   0.189   6.532  12.182 -0.1902 -0.1200 -0.1311
 4725W        W20799  13.631   2.991  14.936  0.0480  0.1057 -0.0437
 4726W        W20800   4.715   6.728  12.975  0.0142  0.0803 -0.5827
 4727W        W20801  17.217  11.480  15.635 -0.1963 -0.1412 -0.1659
 4728W        W20802   3.393  15.516  12.829  0.0653  0.0411  0.0154
 4729W        W20803   6.319  17.641  15.619  0.2699  0.0758  0.0344
 4730W        W20804   2.403   1.305  13.401  0.1299 -0.2271  0.1016
 4731W        W20805  17.349   8.269  12.703 -0.1002  0.0171 -0.0734
 4732W        W20806   1.717  18.216  13.100  0.0656  0.0669  0.2886
 4733W        W20807  15.211  14.065  11.286 -0.2601 -0.1898  0.3275
 4734W        W20808   3.291   8.061  15.142 -0.0765  0.1252  0.4216
 4735W        W20809   5.303   6.818   1.731 -0.2479 -0.1465 -0.0900
 4736W        W20810   6.104   6.652  10.571  0.2770  0.1429 -0.0251
 4737W        W20811   9.353   1.716   2.238  0.0068  0.2035  0.1393
 4738W        W20812  10.601   0.203  11.796  0.2391 -0.0249 -0.0266
 4739W        W20813   9.735   0.665  15.480 -0.1784  0.1437 -0.0875
 4740W        W20814   1.240  13.984   0.308 -0.0131  0.0927 -0.0866
 4741W        W20815   0.215   8.281   1.229 -0.2295  0.0811 -0.0789
 4742W        W20816  10.701   0.666   2.665  0.2731  0.0572 -0.0502
 4743W        W20817   1.472   1.039   0.896 -0.1004 -0.0074 -0.2371
 4744W        W20818  15.895   2.336   1.522 -0.0277 -0.1178  0.1674
 4745W        W20819  14.554   4.385   4.136  0.4041  0.0821 -0.1333
 4746W        W20820  12.318   4.576  15.078  0.2112 -0.1364  0.3040
 4747W        W20821   5.388  16.323   3.364 -0.1237  0.0939 -0.2543
 4748W        W20822  12.973   8.631   3.713 -0.3225  0.3705 -0.1165
 4749W        W20823  13.040  17.076   4.845  0.1414 -0.4354 -0.0593
 4750W        W20824  12.392   0.208   0.410  0.1925 -0.0547 -0.0489
 4751W        W20825   1.410   9.615  13.994  0.2499 -0.1465 -0.0594
 4752W        W20826   2.277  11.923   2.698 -0.2813 -0.0146  0.1554
 4753W        W20827  15.137  16.487  11.194  0.1307 -0.0126 -0.1324
 4754W        W20828  18.294   0.601  16.008  0.1296 -0.0794 -0.0565
 4755W        W20829  18.082  13.220  12.843 -0.0935  0.0533 -0.1681
 4756W        W20830   3.303  15.222   1.408 -0.1283 -0.1941  0.1769
 4757W        W20831   9.526  17.955  11.045 -0.0734 -0.2656  0.2806
 4758W        W20832  17.101  15.012  12.622  0.0852  0.1106 -0.0912
 4759W        W20833   3.176   0.641  10.949 -0.1116  0.1242  0.1431
 4760W        W20834  13.608   6.143   4.578  0.0435  0.1398  0.4982
 4761W        W20835   3.695   8.450   4.672 -0.3050  0.1214  0.4011
 4762W        W20836   7.370   8.559   4.900 -0.0961 -0.1295 -0.3854
 4763W        W20837   1.692  12.755   4.008  0.1452 -0.0090 -0.2291
 4764W        W20838   3.861  13.664   1.094 -0.2547 -0.1156 -0.1107
 4765W        W20839   3.121  11.222   4.135 -0.0212 -0.0536  0.3554
 4766W        W20840  11.328  10.279   2.852  0.3313 -0.0927 -0.1727
 4767W        W20841   9.458   8.701  13.834  0.0135 -0.0939 -0.2573
 4768W        W20842   7.196   7.510   4.364  0.1439  0.1617 -0.2201
 4769W        W20843   0.880  12.768   3.305  0.0455  0.0523  0.0493
 4770W        W20844   0.008  15.085   4.982  0.0511  0.4023 -0.0316
 4771W        W20845   2.896  10.284   1.217 -0.0754  0.0061 -0.3477
 4772W        W20846   2.700   0.808  14.365  0.1497 -0.1338  0.3873
 4773W        W20847  12.107   4.012  13.896 -0.0056 -0.1806 -0.1427
 4774W        W20848   1.380  15.353  13.473 -0.0419 -0.2333 -0.5435
 4775W        W20849   9.320   1.078  15.181  0.0645  0.3438 -0.2337
 4776W        W20850  12.089   5.669  10.730  0.0610 -0.0334  0.0543
 4777W        W20851   8.016   7.997   3.350  0.1032  0.1336  0.2051
 4778W        W20852   2.207   2.399  12.202  0.0685 -0.2724  0.2897
 4779W        W20853   5.012   6.092   4.532  0.1630 -0.1637  0.0309
 4780W        W20854  12.885  11.023   2.013 -0.1113  0.2985 -0.1051
 4781W        W20855   0.335   3.860  12.350 -0.2076 -0.1863 -0.0404
 4782W        W20856  13.363  18.068   0.981  0.0164  0.1373  0.2400
 4783W        W20857  15.925  11.935  11.514  0.0827 -0.2807  0.1094
 4784W        W20858  17.624  16.302   5.276 -0.2012 -0.0100  0.1792
 4785W        W20859   7.470   2.470  12.722 -0.0370  0.2343 -0.0772
 4786W        W20860   5.951   3.020   3.334  0.1604  0.1633 -0.1663
 4787W        W20861   1.629   5.941  12.068 -0.0264  0.1380 -0.1910
 4788W        W20862  11.196  10.373  11.813  0.0329  0.1167  0.3342
 4789W        W20863   3.661   6.724   1.935 -0.0181 -0.0149 -0.1657
 4790W        W20864  16.733  13.548   2.432  0.1853 -0.2900  0.1969
 4791W        W20865  16.316   0.001   0.022  0.1936  0.1490  0.1490
 4792W        W20866   5.329   2.751   5.218  0.4784  0.1298 -0.1016
 4793W        W20867   2.270  16.886  12.124 -0.4087  0.1545  0.2877
 4794W        W20868  13.062   5.673  12.808 -0.0074 -0.0510 -0.0126
 4795W        W20869  17.752   7.464  11.117 -0.3790 -0.2092  0.1698
 4796W        W20870   9.074  14.993  14.759  0.1259 -0.4502  0.0933
 4797W        W20871  13.675   3.202  12.992  0.2004 -0.1399 -0.0032
 4798W        W20872   7.772   1.345  12.278  0.1169  0.1066  0.0789
 4799W        W20873  15.460   0.666  12.427 -0.0532 -0.0814  0.1753
 4800W        W20874  18.353   4.802   5.029  0.4945 -0.3854  0.0553
 4801W        W20875  15.654   7.916  14.189  0.1266  0.3324 -0.0475
 4802W        W20876  13.530  15.916  13.951 -0.2429  0.0130 -0.1712
 4803W        W20877  18.216   9.056   3.291 -0.0467 -0.0093 -0.2144
 4804W        W20878  10.114  14.940   4.597  0.1435 -0.0332  0.2739
 4805W        W20879   3.874  11.072   1.537 -0.2853 -0.2194 -0.0978
 4806W        W20880  13.732   7.793  13.494 -0.2628  0.3395 -0.0386
 4807W        W20881   4.952   4.370   5.236  0.0959 -0.0422  0.1989
 4808W        W20882   3.453  15.788  14.631 -0.4151 -0.0319  0.0697
 4809W        W20883   1.106   6.993   1.005  0.1455  0.0810 -0.2016
 4810W        W20884  17.207   4.942   4.933  0.3710 -0.2837  0.2909
 4811W        W20885  12.931   3.977  12.136 -0.0561 -0.0234 -0.1779
 4812W        W20886   2.494  10.632   4.234  0.0952 -0.1406  0.0199
 4813W        W20887   3.501   3.860   2.480  0.0923 -0.2911 -0.1335
 4814W        W20888   1.043   5.873   2.128 -0.2336 -0.3322  0.1065
 4815W        W20889   0.198  10.662  15.959  0.0727  0.0513 -0.3474
 4816W        W20890  14.161   6.658   2.333  0.0164  0.1289 -0.0491
 4817W        W20891   7.349  15.483  15.438  0.1867 -0.1674 -0.4045
 4818W        W20892  13.920   7.453   2.846  0.3335  0.4283  0.1625
 4819W        W20893   5.216   4.782  12.743 -0.0485 -0.0818  0.1500
 4820W        W20894   7.170   1.331   4.439  0.2313  0.2272 -0.0273
 4821W        W20895   2.077   2.821   2.053 -0.1699  0.1998  0.0035
 4822W        W20896  16.854   5.657   3.575  0.0796 -0.0832  0.1340
 4823W        W20897  11.989  18.216  11.849 -0.3393  0.0067 -0.1399
 4824W        W20898   1.363  16.462   5.952 -0.1574 -0.2479 -0.1172
 4825W        W20899   0.667  13.800  13.056 -0.2887 -0.1664 -0.1772
 4826W        W20900   8.923  12.276  12.296  0.2936  0.0779 -0.0812
 4827W        W20901  17.230   0.816  12.344 -0.0637  0.0001 -0.0583
 4828W        W20902   0.923   1.476  13.440 -0.0961  0.0121  0.1975
 4829W        W20903   0.738   4.014   2.678 -0.1133 -0.0855  0.3453
 4830W        W20904  18.260   9.410   4.339 -0.1476  0.0356 -0.1548
 4831W        W20905   4.957  16.689  12.440 -0.0871 -0.1514 -0.0329
 4832W        W20906  10.777   8.512   4.590  0.0650  0.0583 -0.1089
 4833W        W20907  10.901   4.812   1.528  0.0637  0.0122 -0.0306
 4834W        W20908   6.994  14.807  10.594 -0.2530 -0.4041 -0.0650
 4835W        W20909   2.478   5.260  15.548 -0.2093  0.2103  0.2640
 4836W        W20910  15.429   7.062   2.502 -0.0380  0.0103  0.3484
 4837W        W20911   4.451  10.901  11.913 -0.4532 -0.1877 -0.3038
 4838W        W20912   3.822   4.197   0.335 -0.0456 -0.0080  0.0805
 4839W        W20913  13.996  11.125   5.274 -0.0332  0.0071  0.1102
 4840W        W20914   3.304  10.078   0.565 -0.1589  0.4278 -0.0036
 4841W        W20915   2.726  12.463   5.045  0.0405  0.3319  0.2074
 4842W        W20916   9.769   0.653  14.454  0.1850  0.0257  0.2106
 4843W        W20917   8.909   9.140   2.914  0.1019  0.1048 -0.3028
 4844W        W20918   9.778   6.704   4.776 -0.1080  0.2083 -0.0346
 4845W        W20919   6.683   6.684   2.961  0.3021 -0.4746 -0.0611
 4846W        W20920  15.715   4.992   5.657 -0.2215  0.1150 -0.3707
 4847W        W20921  17.396   5.264   3.705 -0.0651 -0.1752  0.2255
 4848W        W20922   6.090  10.646  10.858 -0.0853  0.1042 -0.0807
 4849W        W20923   4.582  18.403   1.539 -0.0138 -0.2657 -0.2298
 4850W        W20924  10.398   8.983  12.767 -0.2693 -0.1241  0.1252
 4851W        W20925   2.666   9.883  15.827  0.0896 -0.3411  0.3435
 4852W        W20926   2.109   1.842  12.725  0.3289  0.2194  0.1856
 4853W        W20927  13.563   7.013   4.308 -0.0283 -0.1606 -0.2051
 4854W        W20928   2.052  15.308   1.540 -0.0818 -0.0150  0.4349
 4855W        W20929  13.910   1.556  13.320  0.1174 -0.1366  0.0611
 4856W        W20930   4.131  11.054   4.890  0.2867 -0.6584 -0.2393
 4857W        W20931  13.923  13.660   3.637  0.3645  0.2083 -0.2905
 4858W        W20932   9.777  13.122   4.592  0.2474  0.0685 -0.2252
 4859W        W20933  14.494  12.062  12.958 -0.0009 -0.1524 -0.1399
 4860W        W20934   1.893   5.343   2.312  0.1124  0.3226  0.1603
 4861W        W20935   8.298   0.236  14.624 -0.3533 -0.0765 -0.1541
 4862W        W20936  16.206  13.651  11.007 -0.0970 -0.0340  0.0850
 4863W        W20937   9.056  14.955   0.156 -0.2886 -0.0518  0.0592
 4864W        W20938  15.628   8.959   1.592 -0.0636  0.2786 -0.1940
 4865W        W20939  17.105  17.154  11.794 -0.3060  0.0683 -0.0806
 4866W        W20940   2.409   9.817  11.588 -0.1128  0.0397 -0.0472
 4867W        W20941  12.288   4.023  12.138  0.0805  0.0072  0.2581
 4868W        W20942   3.982   7.824   3.125  0.1063 -0.0357 -0.1617
 4869W        W20943   9.926   0.367  11.092 -0.1391  0.3887 -0.5238
 4870W        W20944   9.318   7.386  15.804  0.0658  0.1934 -0.1730
 4871W        W20945  14.023  12.789   2.320  0.0643 -0.0403  0.4003
 4872W        W20946  17.331  14.550   3.971 -0.0492  0.3571  0.0352
 4873W        W20947  15.739  10.932  15.482  0.1287  0.0150 -0.0040
 4874W        W20948   8.147   7.006  13.407 -0.0985  0.0036 -0.1447
 4875W        W20949  16.084  10.326   4.229 -0.0781  0.0321 -0.0988
 4876W        W20950   1.819  13.771  15.234  0.2794  0.0819 -0.4202
 4877W        W20951   9.744  11.668  13.264  0.4361  0.1234  0.1057
 4878W        W20952  14.303   5.657  13.826 -0.2166 -0.0487 -0.0337
 4879W        W20953  14.951  14.775   0.340 -0.3150  0.1340  0.0736
 4880W        W20954  15.543  12.140  11.324 -0.1345  0.0780  0.0347
 4881W        W20955   4.754   7.431   2.223  0.1720  0.1342  0.0190
 4882W        W20956  13.202  13.650   2.275  0.1957  0.2976 -0.0047
 4883W        W20957  14.956   0.498   2.277  0.0537 -0.0757  0.0997
 4884W        W20958   0.715   5.276  10.985 -0.1106 -0.1481 -0.2384
 4885W        W20959  10.788  10.819  10.113 -0.1131  0.1852 -0.0910
 4886W        W20960   9.365   0.163   5.401 -0.0586  0.0122  0.1340
 4887W        W20961  15.721   6.612  14.293  0.0641  0.4373  0.0826
 4888W        W20962  12.809   1.552   3.835  0.4557 -0.1729 -0.1482
 4889W        W20963  13.629  16.235   5.218 -0.0701 -0.1244 -0.0975
 4890W        W20964   6.625  12.592   4.432 -0.1642  0.2504 -0.0230
 4891W        W20965   8.843  13.884   3.263  0.2483 -0.1581 -0.3840
 4892W        W20966   4.700   5.768   2.063  0.0102 -0.0239 -0.1247
 4893W        W20967  15.424   8.527   4.876 -0.3965 -0.2936  0.1402
 4894W        W20968  13.883   6.212   6.098  0.2354  0.2735 -0.2988
 4895W        W20969  15.498   0.888  14.834  0.1292 -0.2207  0.2034
 4896W        W20970   8.773   8.477   4.384 -0.1689 -0.1567  0.2506
 4897W        W20971   0.738  12.687  14.847  0.1391  0.1930 -0.0449
 4898W        W20972  11.142   7.221   4.349  0.0745 -0.0065 -0.0003
 4899W        W20973  16.742  16.165   0.500 -0.3592  0.2036 -0.2312
 4900W        W20974   3.707   2.873  13.535 -0.0979  0.0888 -0.0449
 4901W        W20975   0.718   3.154  13.437 -0.4300 -0.1006 -0.2143
 4902W        W20976  12.267   0.058  14.356  0.0300  0.1476  0.2516
 4903W        W20977   5.468   1.443   1.305  0.0465 -0.0822  0.2123
 4904W        W20978   0.184   8.897  15.118 -0.5432  0.1771 -0.1719
 4905W        W20979  16.990   4.781   6.419 -0.1391 -0.1241  0.2417
 4906W        W20980   5.882   1.625   9.839  0.2194  0.0906 -0.1380
 4907W        W20981   9.241   1.593  12.672  0.0768  0.1046 -0.0573
 4908W        W20982  12.872  14.196   5.474 -0.0454  0.0155 -0.0058
 4909W        W20983  14.876   9.553   5.351  0.2156  0.0465  0.0523
 4910W        W20984   2.470   2.454  11.059  0.0510  0.1526 -0.1908
 4911W        W20985   0.253   1.910   4.213 -0.0817  0.1789 -0.0608
 4912W        W20986   7.109   7.104   4.704  0.1101 -0.2521 -0.0135
 4913W        W20987  12.878  16.027  14.536  0.1614 -0.0040  0.1737
 4914W        W20988   3.227   7.089   1.383  0.1546 -0.1629 -0.0123
 4915W        W20989  10.644   3.299  14.586  0.0911  0.1794 -0.0256
 4916W        W20990  14.706   6.132   0.189 -0.0013  0.1352 -0.0424
 4917W        W20991   9.763  15.929   3.106  0.3992  0.1084 -0.2886
 4918W        W20992   7.478   1.797   4.392 -0.0283 -0.1382 -0.1770
 4919W        W20993   0.837   1.252  11.620  0.2969  0.1128  0.3059
 4920W        W20994  13.113  13.479   5.921  0.0069  0.1812 -0.0699
 4921W        W20995   3.162  16.423  15.185  0.1972 -0.4755  0.3934
 4922W        W20996  17.724   7.043  12.788 -0.0954  0.0023  0.1070
 4923W        W20997  10.165  13.194   2.818  0.3066  0.1135  0.1601
 4924W        W20998   6.355   1.886   5.088  0.2578 -0.1893 -0.1344
 4925W        W20999   3.496   0.283   4.232 -0.2146  0.1359  0.2259
 4926W        W21000  13.968   5.297  13.785 -0.3317  0.1711  0.0066
 4927W        W21001   5.499   7.583  14.871  0.2010  0.0001  0.0908
 4928W        W21002   3.563   2.758  14.029 -0.0932 -0.0426  0.2027
 4929W        W21003   8.106   7.518  16.018  0.0312  0.0484 -0.1541
 4930W        W21004   6.141  16.942   1.937  0.2166  0.1282  0.1017
 4931W        W21005   1.346   9.265  10.709 -0.3246 -0.2411 -0.0777
 4932W        W21006  12.198   7.356   4.531  0.1238  0.1301 -0.2358
 4933W        W21007   0.164   1.470   1.234  0.1823 -0.0506 -0.0633
 4934W        W21008   9.779   0.864  10.943  0.2366 -0.0392  0.0513
 4935W        W21009   8.041   6.845  12.899 -0.1111 -0.0048  0.3134
 4936W        W21010  14.655  12.612   1.265  0.0650 -0.0952 -0.0795
 4937W        W21011   6.129  11.035   5.717 -0.0236  0.0906 -0.0644
 4938W        W21012   8.653   4.047   0.384 -0.1101 -0.0192  0.0366
 4939W        W21013   9.992   5.103  13.907 -0.2045  0.0888  0.1512
 4940W        W21014   7.476  10.425   0.553 -0.1868 -0.1191  0.0034
 4941W        W21015  17.874  13.765  12.047 -0.0855  0.1203  0.0894
 4942W        W21016   5.764   0.305  11.228 -0.1014 -0.0530 -0.3080
 4943W        W21017   9.114   5.718   4.074 -0.0111 -0.0472  0.2125
 4944W        W21018  10.724   3.133  15.337 -0.0330 -0.1287  0.3197
 4945W        W21019   1.349  13.134   1.661  0.0020  0.0247 -0.3612
 4946W        W21020   2.718   6.218   0.545 -0.3235 -0.1065 -0.0201
 4947W        W21021   1.310   9.906   5.056 -0.0784  0.1601 -0.0977
 4948W        W21022   1.858   3.771  11.654 -0.1708  0.1079  0.0438
 4949W        W21023  11.416  17.354   3.286 -0.0127  0.2450 -0.1472
 4950W        W21024  16.556   5.038  11.388  0.1186 -0.2315 -0.1108
 4951W        W21025  10.157   1.420   2.196 -0.0031  0.1380 -0.3052
 4952W        W21026  17.209  14.816   2.841 -0.1497 -0.0016  0.1227
 4953W        W21027   0.654   9.517  13.845  0.1387  0.3198 -0.0266
 4954W        W21028  10.315   8.395   5.329  0.2022 -0.3451 -0.1469
 4955W        W21029   9.005  16.352   5.272  0.0945  0.1540  0.0400
 4956W        W21030   9.921   7.691  14.681  0.2597 -0.2103  0.1658
 4957W        W21031  14.926  13.522   2.807  0.0589 -0.0265 -0.0770
 4958W        W21032  14.555  13.127  13.384 -0.0241  0.2763 -0.4374
 4959W        W21033  12.038  14.695   0.696  0.1108 -0.0144 -0.1642
 4960W        W21034  12.714   4.430  12.215 -0.3327 -0.0088 -0.0641
 4961W        W21035  11.590   7.937  14.674  0.0775 -0.4115 -0.0255
 4962W        W21036  14.214   7.941  15.909  0.0217  0.0836 -0.1610
 4963W        W21037  16.721  17.821   1.465 -0.3024  0.3027 -0.1885
 4964W        W21038   7.342   6.305  15.137 -0.1341  0.0549 -0.1486
 4965W        W21039  10.022   0.590   0.504  0.0423 -0.0009 -0.0823
 4966W        W21040  15.422  14.992   0.218 -0.3091  0.2756  0.0600
 4967W        W21041   0.172   2.509   1.444 -0.0294 -0.0047 -0.2145
 4968W        W21042  13.872  16.433   3.052 -0.1039 -0.2663 -0.1951
 4969W        W21043   6.523  15.373  11.296 -0.0571  0.2359 -0.0733
 4970W        W21044   1.255  10.060  13.934 -0.0848  0.0317 -0.0875
 4971W        W21045   8.077  18.050  11.678 -0.0538 -0.0627  0.0533
 4972W        W21046   8.629   4.577   0.368  0.2392  0.1190  0.1215
 4973W        W21047  17.495   4.084   2.050  0.1852 -0.0052 -0.1418
 4974W        W21048   1.480  14.421  13.052  0.1179 -0.0892  0.1484
 4975W        W21049  14.393   5.908   3.548 -0.1346 -0.0448 -0.1620
 4976W        W21050   9.047   1.842   3.900  0.0082 -0.0325 -0.5113
 4977W        W21051   0.832   2.870  14.425  0.0622 -0.2777 -0.1732
 4978W        W21052  15.887   0.664   0.984 -0.1542  0.2067  0.0145
 4979W        W21053  10.556   2.108   0.697 -0.2823  0.0867 -0.0506
 4980W        W21054  12.645  18.080  15.095  0.1959 -0.4516  0.0846
 4981W        W21055  17.734   1.022   3.030 -0.3370  0.3070 -0.0866
 4982W        W21056  14.801  12.758   2.823  0.0738 -0.1886  0.3360
 4983W        W21057  10.878   7.522   1.322 -0.2079 -0.1410 -0.1381
 4984W        W21058   5.197   7.369  15.442 -0.0183 -0.1999 -0.0732
 4985W        W21059   5.454   1.098   4.092 -0.0450 -0.3950  0.2295
 4986W        W21060  15.509   6.201   3.015  0.0047 -0.2208 -0.2564
 4987W        W21061  13.055  16.448  12.470 -0.0829 -0.0288  0.1584
 4988W        W21062   0.637   4.300   0.690 -0.3727 -0.0576  0.2385
 4989W        W21063  11.434   6.249  11.135 -0.0233  0.0016  0.1983
 4990W        W21064  17.370   6.874  13.932 -0.1635  0.0293  0.1069
 4991W        W21065   8.118   9.346  10.887 -0.0130 -0.2417 -0.4870
 4992W        W21066   6.024  18.529   1.567  0.0528 -0.1265 -0.1760
 4993W        W21067   0.155  12.370   2.276  0.0510 -0.1334  0.3265
 4994W        W21068  13.204  17.426  11.144 -0.0886 -0.5084  0.3352
 4995W        W21069  17.930   9.582  14.457 -0.2898 -0.0635 -0.3645
 4996W        W21070  14.580  11.689  13.884  0.0382  0.0963  0.0509
 4997W        W21071   5.166  11.478   0.165  0.1865 -0.0363 -0.0228
 4998W        W21072  16.606  11.186  12.297  0.0258 -0.1283  0.2375
 4999W        W21073  17.593  17.664   4.735  0.1573  0.0011  0.0890
 5000W        W21074   3.089  17.470  14.565 -0.2982  0.1345  0.0242
 5001W        W21075  11.287  12.941  15.020 -0.3043  0.3338 -0.2563
 5002W        W21076  15.317   8.946   5.146 -0.0860 -0.1861 -0.1992
 5003W        W21077   3.500   8.712  14.625  0.2853 -0.0799 -0.1397
 5004W        W21078   5.502   5.469   3.557  0.0121  0.0512 -0.0869
 5005W        W21079  13.293   1.113  12.520  0.1023 -0.1583  0.0939
 5006W        W21080  15.649  13.133   0.852 -0.1124 -0.1546  0.1730
 5007W        W21081   2.449   4.335  12.765 -0.0584  0.0825 -0.0446
 5008W        W21082   0.517   5.657  11.273 -0.1207  0.2382  0.1554
 5009W        W21083  14.678  14.748  13.461  0.1686  0.0086 -0.1830
 5010W        W21084   6.034  11.117   3.028 -0.1004  0.3482 -0.0457
 5011W        W21085  17.846  11.643   5.277 -0.1807 -0.3000 -0.5768
 5012W        W21086  12.963   0.190  11.069 -0.0094 -0.1762 -0.0463
 5013W        W21087  17.416  13.988   4.723 -0.0995  0.0822 -0.0243
 5014W        W21088   1.678  11.284  14.458  0.3486  0.2143  0.0654
 5015W        W21089   4.426   1.697   3.911  0.0861  0.1157  0.0276
 5016W        W21090   6.987  13.478  12.238  0.2781 -0.2513  0.1695
 5017W        W21091  16.473   5.921  12.911 -0.2064  0.2408  0.2144
 5018W        W21092   0.568  16.678  11.158 -0.2175  0.2111  0.0136
 5019W        W21093  10.448   4.967   4.340 -0.0633  0.2726  0.2175
 5020W        W21094  16.812   0.118  14.204  0.0693 -0.0350  0.3553
 5021W        W21095   3.206  16.925   3.848 -0.1333 -0.2206  0.1526
 5022W        W21096  14.594   2.682  11.904  0.0353  0.0259 -0.2675
 5023W        W21097   0.751   6.484  12.524 -0.0219  0.1500  0.1730
 5024W        W21098   4.329   7.976  14.020 -0.3054  0.2413  0.0150
 5025W        W21099   6.992   1.853  13.830 -0.0781 -0.0096 -0.0031
 5026W        W21100   9.698   5.287  13.592  0.0422  0.0142  0.2742
 5027W        W21101   8.208   1.046  10.989  0.1694 -0.1004 -0.1942
 5028W        W21102   5.412   3.371  14.916 -0.2322 -0.0931 -0.1442
 5029W        W21103  13.725  16.193   2.428 -0.0094 -0.0945  0.0313
 5030W        W21104  13.807  14.191  14.424  0.0403  0.0602 -0.1834
 5031W        W21105   2.845   5.231   3.265  0.1942  0.0109 -0.2716
 5032W        W21106   8.931  14.977  13.222 -0.1151  0.1578 -0.5118
 5033W        W21107   1.048   8.298   0.350 -0.0280  0.1933 -0.3384
 5034W        W21108   9.002   1.066  15.928  0.1063 -0.1134  0.2120
 5035W        W21109  13.294  10.679   2.334  0.5391  0.2162  0.1661
 5036W        W21110  13.274   3.330  15.829 -0.1949  0.1195  0.2633
 5037W        W21111  12.552  14.452   2.341  0.2701 -0.1752  0.2264
 5038W        W21112   8.055   6.056  14.507 -0.2341  0.0327 -0.1667
 5039W        W21113  11.980   4.868  14.819  0.2691  0.0758 -0.0999
 5040W        W21114  11.287  13.341   0.825 -0.1454 -0.2214 -0.0182
 5041W        W21115  18.475  12.552   4.453  0.2911 -0.2685 -0.3891
 5042W        W21116  11.790  10.974   4.194 -0.0988 -0.1087 -0.1224
 5043W        W21117   8.646  15.162   1.040 -0.1219 -0.2412  0.0757
 5044W        W21118  14.465  16.197  15.383  0.4002  0.1244 -0.3962
 5045W        W21119   0.545   4.129   5.155  0.0530 -0.0180 -0.1194
 5046W        W21120   1.896  14.449  11.293 -0.0195 -0.3476 -0.4764
 5047W        W21121  17.688   3.393  12.665 -0.0939 -0.2640  0.2009
 5048W        W21122   2.148   0.695   2.331 -0.1620 -0.1727  0.1118
 5049W        W21123  14.732   5.910  11.360  0.2030 -0.1162  0.0434
 5050W        W21124   0.850   2.905   0.782  0.0020  0.0295 -0.2056
 5051W        W21125   5.944  15.509  15.472 -0.0078 -0.0125 -0.0711
 5052W        W21126   3.969   2.787  11.833  0.1364 -0.0997  0.1476
 5053W        W21127  17.727   0.519   0.986 -0.0511  0.1447 -0.1914
 5054W        W21128  13.028   5.893  12.321 -0.2097  0.1158 -0.0822
 5055W        W21129  12.433   0.279  15.700 -0.1066 -0.1593 -0.1060
 5056W        W21130   5.929   6.550   4.486  0.1227  0.0006  0.2738
 5057W        W21131   0.771  17.031   1.579 -0.0747 -0.1526 -0.1064
 5058W        W21132   3.403   5.471   4.552  0.0974 -0.0957  0.2333
 5059W        W21133   2.350   0.969   1.706 -0.1863  0.2823  0.4099
 5060W        W21134   9.145   5.565  15.007  0.1983  0.2292 -0.1590
 5061W        W21135   5.060  16.845   5.347  0.1237  0.1701 -0.1478
 5062W        W21136   0.614   0.377   3.056 -0.0801 -0.0634  0.0381
 5063W        W21137  10.828  18.539   4.031 -0.2059  0.0787  0.2618
 5064W        W21138  15.469   7.966  15.428  0.0454  0.3607  0.1479
 5065W        W21139   7.405  16.552  12.037 -0.3306  0.0545 -0.0055
 5066W        W21140   8.071   6.780   4.871 -0.0236 -0.2729 -0.1028
 5067W        W21141   0.060   9.147   4.659  0.0782  0.0729  0.0386
 5068W        W21142   1.736   3.343  13.391  0.0818  0.0789 -0.0528
 5069W        W21143   8.321   1.651   0.030 -0.1180 -0.0966 -0.1342
 5070W        W21144  17.774   9.897  15.150  0.2046 -0.1616 -0.1963
 5071W        W21145   9.846   2.610  12.497 -0.1384  0.0586  0.1576
 5072W        W21146  14.358  10.649   0.031 -0.2415 -0.4889 -0.0302
 5073W        W21147  12.545   3.105  12.576  0.1683 -0.0406 -0.3369
 5074W        W21148   4.478   1.322  14.324  0.1155  0.1821  0.1968
 5075W        W21149   6.547  10.405  14.697 -0.3300 -0.0045 -0.1686
 5076W        W21150   4.346  13.090  12.601  0.0038  0.3097  0.1091
 5077W        W21151  17.650  16.352  13.361  0.0741 -0.1523 -0.0309
 5078W        W21152  10.371  10.367  15.037 -0.0123 -0.1411  0.3234
 5079W        W21153  17.152  18.497  15.245  0.0104  0.2422  0.0013
 5080W        W21154  10.161  11.559   2.998 -0.0803  0.0733 -0.2615
 5081W        W21155   9.989  16.866  12.355  0.1679  0.3510  0.0813
 5082W        W21156   6.861   6.872   5.085  0.2104 -0.3201  0.0471
 5083W        W21157  10.786   3.562   0.160 -0.2225  0.2118  0.3718
 5084W        W21158  13.860   2.590  11.344 -0.0223  0.0370  0.0410
 5085W        W21159   6.561   1.864   1.672  0.1473  0.0649  0.0191
 5086W        W21160   9.964   4.336  15.586  0.3009  0.0614  0.1466
 5087W        W21161  15.570   8.161   4.259 -0.3938 -0.2768 -0.2673
 5088W        W21162   0.039   2.340  15.136 -0.1052  0.0944 -0.1163
 5089W        W21163   9.429   5.475   5.198  0.2076 -0.3388 -0.2230
 5090W        W21164  14.774   9.614  11.900 -0.2244 -0.2124  0.3272
 5091W        W21165  17.217  14.262  13.091  0.0653  0.3024 -0.2106
 5092W        W21166   9.748  14.627  12.283 -0.1801  0.0552 -0.0187
 5093W        W21167  11.253   4.785  14.211 -0.2427  0.1288  0.2112
 5094W        W21168   7.124  16.495  14.452 -0.2536  0.2479  0.1155
 5095W        W21169   3.185  10.704   3.823 -0.3915  0.2947  0.2604
 5096W        W21170  10.533  17.542  11.660 -0.0590 -0.0588 -0.2168
 5097W        W21171  14.575   0.764   0.739  0.1020  0.1755 -0.0416
 5098W        W21172  18.216  16.017   1.760 -0.0971  0.2146 -0.1423
 5099W        W21173   3.910  16.188   5.290 -0.3290 -0.3066 -0.1919
 5100W        W21174  10.946  10.217   1.552  0.0526 -0.1258 -0.1091
 5101W        W21175  17.719  11.662  15.664 -0.0438  0.0783  0.1751
 5102W        W21176   5.357  14.325   3.798  0.1356 -0.1220  0.2153
 5103W        W21177   4.037  17.527   0.451 -0.1193 -0.1015 -0.1024
 5104W        W21178   9.507  14.873  11.602  0.0403 -0.2608  0.1594
 5105W        W21179  13.916   5.809  12.502  0.0443  0.3482 -0.0793
 5106W        W21180  10.353  14.539  12.454  0.1112 -0.4167  0.1290
 5107W        W21181   5.869  11.563   0.995 -0.1143  0.1547 -0.0794
 5108W        W21182   4.954   0.592  15.898  0.0491  0.2347  0.0996
 5109W        W21183  16.702   2.588  13.772  0.0072 -0.0691  0.2452
 5110W        W21184   9.078  11.365  12.303  0.0775 -0.3541  0.0990
 5111W        W21185  13.944  11.759   5.792  0.1472 -0.0778  0.4091
 5112W        W21186   5.361  14.859   3.742  0.1616  0.1744 -0.2591
 5113W        W21187   1.774   2.639  15.761 -0.1054 -0.2001  0.0660
 5114W        W21188   1.708   5.092  13.640 -0.1628 -0.2199  0.3383
 5115W        W21189   0.421   0.255   1.219 -0.5525 -0.2144 -0.1588
 5116W        W21190   2.302   2.431   2.884 -0.4327  0.1477 -0.1923
 5117W        W21191   4.269  13.222   0.235 -0.0224  0.0893 -0.3411
 5118W        W21192   1.147   0.588   0.177 -0.0234  0.0471  0.0035
 5119W        W21193   6.075   4.315  13.028 -0.0026 -0.1993 -0.2730
 5120W        W21194  15.899   2.937  11.196  0.0297 -0.0169  0.0388
 5121W        W21195   3.768  14.062  13.474  0.1953  0.3393 -0.0260
 5122W        W21196   9.924   2.671   5.152  0.1676 -0.2387 -0.0003
 5123W        W21197  10.979   5.598   0.329 -0.0151 -0.1055 -0.0695
 5124W        W21198   4.667  15.606   5.029 -0.0559  0.2119 -0.0092
 5125W        W21199  11.363  12.069   3.578  0.0547  0.2345  0.0912
 5126W        W21200   6.896   0.343   6.006 -0.2116 -0.0606 -0.1022
 5127W        W21201   4.587   2.045  12.885  0.0009  0.1870 -0.1221
 5128W        W21202  10.721  10.975  12.245 -0.3638  0.1708  0.0962
 5129W        W21203  16.989  12.771  13.422 -0.1549  0.0724 -0.1811
 5130W        W21204   4.910   2.674   1.453 -0.3192  0.2693 -0.2349
 5131W        W21205   0.039  12.539  11.349  0.2184  0.0462  0.1600
 5132W        W21206  18.124  11.273  12.936 -0.1556 -0.0438 -0.0495
 5133W        W21207  11.849   6.634   5.490  0.2305  0.1350 -0.0073
 5134W        W21208   5.415  13.308  14.313 -0.4787  0.3903  0.0382
 5135W        W21209  18.203   1.498  13.420  0.2787  0.0176  0.3235
 5136W        W21210  13.793   4.129   1.390  0.4306 -0.0183  0.0821
 5137W        W21211   8.755   4.729  11.741 -0.0172 -0.0504  0.0491
 5138W        W21212  16.606  17.670  12.373 -0.3149  0.2731  0.1175
 5139W        W21213   6.713   9.416   3.260 -0.1560 -0.3849  0.1860
 5140W        W21214  13.998  17.881  14.801 -0.1274 -0.0924 -0.1821
 5141W        W21215   3.448  13.548   2.395  0.1770  0.2353 -0.0797
 5142W        W21216  11.793   8.316   4.441  0.1149 -0.1225  0.3155
 5143W        W21217   8.360   4.659   3.411 -0.1702  0.1863  0.2481
 5144W        W21218   5.455   5.259   4.763  0.0617  0.1643  0.0305
 5145W        W21219   4.549   4.960  15.481  0.0122  0.1610  0.2038
 5146W        W21220  13.516  14.266  12.015  0.1440  0.2603 -0.1996
 5147W        W21221   1.225   9.116   2.332 -0.0850 -0.3345  0.0590
 5148W        W21222   0.566  14.097   1.902 -0.0171  0.0269 -0.1350
 5149W        W21223   6.233  12.215   1.835 -0.0333  0.3487  0.1941
 5150W        W21224  14.453  14.715  11.990 -0.0199 -0.3359  0.1259
 5151W        W21225  17.997   9.568   1.038 -0.2063 -0.0550  0.3803
 5152W        W21226  13.476   1.868  11.179 -0.5047  0.1813  0.1396
 5153W        W21227   5.848   5.326   2.982  0.1880  0.4152 -0.1223
 5154W        W21228   9.558   7.933   4.048  0.0616  0.1772 -0.2431
 5155W        W21229   2.749   2.742  14.149  0.1584  0.0174 -0.0328
 5156W        W21230  17.750   3.733   3.806 -0.0261 -0.0167  0.2395
 5157W        W21231   1.132   1.372   3.527 -0.0196 -0.0160 -0.0468
 5158W        W21232  14.386  14.299  13.318 -0.1406  0.1932  0.0592
 5159W        W21233   7.903   4.108   1.966 -0.1379 -0.4427 -0.1202
 5160W        W21234   4.333  17.292  12.666 -0.1230  0.0398 -0.2999
 5161W        W21235  16.551   2.753  15.968 -0.2667  0.2638 -0.2089
 5162W        W21236   9.791  18.259   3.028  0.0525 -0.1278  0.2009
 5163W        W21237   2.429  11.076   1.538  0.1161 -0.1711 -0.0857
 5164W        W21238   2.260   0.482   1.737 -0.0887  0.2047 -0.0063
 5165W        W21239   8.240   1.993  11.057 -0.2811  0.1812 -0.0189
 5166W        W21240  14.082  11.090   0.133  0.0845  0.0021  0.2621
 5167W        W21241  12.170  18.106   4.957  0.1525  0.0074  0.0697
 5168W        W21242   8.663  12.764  14.809 -0.1990  0.1212  0.0314
 5169W        W21243  15.142  11.587   2.601  0.2629  0.2587  0.2017
 5170W        W21244  11.370   6.374   2.085  0.1860  0.2521  0.1900
 5171W        W21245  14.982   8.184   1.503 -0.1722 -0.2809  0.0732
 5172W        W21246  17.282   7.326   4.547 -0.0605 -0.1568  0.0625
 5173W        W21247  11.159  14.259   5.149  0.2000  0.1727 -0.1791
 5174W        W21248   4.822   8.165   0.545 -0.0575 -0.0322 -0.5037
 5175W        W21249   2.008   3.803  11.169 -0.2076 -0.0501 -0.4062
 5176W        W21250  12.522  17.864  13.744 -0.4857  0.2401 -0.2231
 5177W        W21251   4.150  12.477  11.215  0.1212 -0.0193  0.4265
 5178W        W21252  17.530  11.571  14.766  0.2070  0.1985 -0.3201
 5179W        W21253   8.063  17.300  11.291 -0.3039 -0.0623  0.0096
 5180W        W21254  14.542   5.266   3.245  0.1117  0.1467 -0.2467
 5181W        W21255  17.004   6.292  14.603  0.1059  0.0034 -0.0726
 5182W        W21256   8.814  17.627  13.344  0.1257  0.1210 -0.0453
 5183W        W21257   6.878   8.622   2.980  0.0008  0.0864  0.2513
 5184W        W21258  16.171   1.892   1.654 -0.1235  0.0070  0.0856
 5185W        W21259  14.323   6.181   5.827  0.0948  0.0477  0.3435
 5186W        W21260   5.046   8.183   1.887  0.1530 -0.1325  0.1812
 5187W        W21261  15.380  18.255   1.206  0.0362 -0.0096 -0.1221
 5188W        W21262  14.875   9.981  11.178 -0.1609 -0.1566 -0.2987
 5189W        W21263   1.498   9.941   0.401 -0.4422  0.0111  0.4266
 5190W        W21264   0.471  11.896   4.815 -0.1604  0.0352  0.0851
 5191W        W21265   2.936   3.309   5.054 -0.0838  0.2313  0.2188
 5192W        W21266   7.898  14.712  11.717 -0.1576  0.2367  0.0813
 5193W        W21267  14.227  15.718  15.954  0.1482  0.3055  0.4915
 5194W        W21268  14.957   4.714   5.352 -0.2591  0.0582 -0.3196
 5195W        W21269  15.063  17.123   9.963 -0.1179  0.1701 -0.0322
 5196W        W21270  13.977  10.524   4.002 -0.1070 -0.0384 -0.0522
 5197W        W21271   9.980  17.575   2.143  0.2978  0.0686  0.0476
 5198W        W21272   0.973  12.197   1.663  0.0373  0.1280 -0.0584
 5199W        W21273   4.609   2.064   4.811 -0.1986 -0.3002  0.2324
 5200W        W21274   9.553   7.472  11.504  0.2892 -0.0739 -0.0579
 5201W        W21275   2.637   0.325   4.518 -0.2889  0.0296 -0.0265
 5202W        W21276  15.855  15.739  12.986 -0.2078  0.0561  0.0958
 5203W        W21277  10.054   8.596   0.205  0.1379  0.4525 -0.0547
 5204W        W21278   5.405   6.787   4.033 -0.5321  0.0061  0.1557
 5205W        W21279  13.540   5.436  13.478 -0.0697  0.1528 -0.2283
 5206W        W21280   2.740   5.074   1.373 -0.1098 -0.2640  0.3349
 5207W        W21281   5.898   7.706   5.979 -0.0679 -0.1889  0.0572
 5208W        W21282  16.803   7.082   4.370  0.0536 -0.0071 -0.1441
 5209W        W21283  17.787   6.821   5.545  0.1936  0.1137 -0.0136
 5210W        W21284   2.042   4.225  14.250  0.0170  0.0612 -0.0595
 5211W        W21285   6.659   6.140   2.562  0.2487  0.0998 -0.3272
 5212W        W21286   4.628   8.719  13.713  0.0094  0.1066 -0.4214
 5213W        W21287   9.358   2.642   0.613  0.2206 -0.3592 -0.3001
 5214W        W21288   9.594  14.999   4.480  0.1338  0.0037 -0.3249
 5215W        W21289   3.581   8.413   1.924 -0.0976 -0.1664 -0.0924
 5216W        W21290  15.950  18.110   4.768  0.0556  0.0085  0.1445
 5217W        W21291  17.426  10.865   2.658 -0.3340 -0.1655 -0.0661
 5218W        W21292   4.553   4.843  14.277  0.0045 -0.0254 -0.1619
 5219W        W21293   8.328   4.637   3.964 -0.2305  0.1622  0.0962
 5220W        W21294   7.468  12.342   2.830 -0.0076 -0.0734 -0.3517
 5221W        W21295   1.991  11.426  15.540  0.0539  0.2203 -0.0447
 5222W        W21296   5.947   2.532  11.216  0.1092  0.0407 -0.5025
 5223W        W21297   8.115   4.656   2.181  0.2316  0.0183  0.3623
 5224W        W21298  17.717   6.118   0.369 -0.1528  0.0170 -0.0493
 5225W        W21299  13.981  14.918  11.909 -0.1078  0.1614  0.0215
 5226W        W21300  12.474   1.357  15.819 -0.4283 -0.1862  0.1273
 5227W        W21301   3.774   8.388  14.377  0.0619 -0.0381 -0.1236
 5228W        W21302   1.399   5.987   6.183  0.0699 -0.1823 -0.0431
 5229W        W21303   5.066   4.669  12.200  0.0546  0.2121  0.1469
 5230W        W21304   4.967   9.494   4.923  0.3599 -0.1896  0.0628
 5231W        W21305  10.275  15.996   3.359 -0.0889  0.2274  0.1761
 5232W        W21306   3.119   4.847   0.700  0.1930 -0.0161 -0.0047
 5233W        W21307  12.314  17.503   3.361 -0.0129  0.2695  0.0638
 5234W        W21308  14.348  14.108  12.458  0.0355 -0.2531  0.0932
 5235W        W21309  12.270   1.833  15.969  0.1218  0.0636  0.1230
 5236W        W21310  17.582   2.910  12.910  0.0519 -0.0291  0.0477
 5237W        W21311   9.554   7.110   2.106 -0.0921  0.4526  0.1519
 5238W        W21312   3.659  13.010  14.535  0.0307 -0.0712 -0.2634
 5239W        W21313  15.327   0.997   9.665 -0.1613  0.2895  0.0513
 5240W        W21314   2.581  18.395  13.181 -0.4309  0.2070  0.0835
 5241W        W21315  10.611   8.549   2.088 -0.1076 -0.2722 -0.0265
 5242W        W21316  15.540  15.466   2.054  0.4646 -0.0603  0.1661
 5243W        W21317   9.790   1.520  12.596  0.3081  0.0948  0.1280
 5244W        W21318   3.361  10.379   2.959  0.0804  0.0834  0.1585
 5245W        W21319  13.833   5.924  12.945 -0.1368  0.0180  0.0099
 5246W        W21320   8.326  18.304  12.000  0.0911 -0.0097 -0.1975
 5247W        W21321   6.495  16.269   0.303  0.4333 -0.3594  0.0388
 5248W        W21322  16.255  14.552   4.913  0.1130 -0.0886  0.1222
 5249W        W21323  17.482  14.662  14.676 -0.1709 -0.2693  0.1242
 5250W        W21324   6.302   2.882  15.765  0.0326  0.0522  0.0398
 5251W        W21325   6.342  11.920  14.354 -0.3758  0.0386 -0.0845
 5252W        W21326  14.512   5.802   2.370 -0.1442 -0.0339  0.2917
 5253W        W21327   7.743   5.563  15.689  0.1230  0.2333 -0.1265
 5254W        W21328   9.184  17.842   3.789  0.0307  0.1395 -0.2330
 5255W        W21329  13.743  11.906   2.724 -0.0167  0.0594 -0.1306
 5256W        W21330   8.306  11.411  16.022  0.1456 -0.0797 -0.2661
 5257W        W21331   6.823  11.417   1.792 -0.3903 -0.3002  0.3005
 5258W        W21332   2.823   4.783   2.690  0.1848  0.0042  0.0147
 5259W        W21333  15.279  11.129   5.055 -0.0941 -0.1733 -0.0555
 5260W        W21334  14.360  13.555   0.761  0.0797  0.0976  0.1102
 5261W        W21335  15.730   6.901  11.375 -0.0989 -0.2799  0.0362
 5262W        W21336   1.617   5.849   0.676 -0.0499  0.0627  0.4490
 5263W        W21337  18.118   3.618   3.296 -0.1237  0.0507 -0.0817
 5264W        W21338   3.943   6.101   0.893  0.1447 -0.0817 -0.2963
 5265W        W21339   7.709  11.981   4.123 -0.2003  0.0786  0.2968
 5266W        W21340  13.567  14.581  13.024 -0.0570 -0.0649  0.1111
 5267W        W21341   0.000  11.463   0.356 -0.2784  0.1009  0.1468
 5268W        W21342  15.794   0.177   2.093 -0.0957 -0.0914  0.2930
 5269W        W21343  14.644   6.852  12.342 -0.1644  0.0617  0.1061
 5270W        W21344   3.750  12.648  11.880  0.0241  0.0836  0.0210
 5271W        W21345  15.586   8.851   1.028  0.3074  0.4823 -0.2190
 5272W        W21346  10.712   9.027  12.038 -0.1052  0.0873  0.2807
 5273W        W21347  16.779  16.271  11.048  0.0628  0.1918  0.0835
 5274W        W21348   8.133   6.800   6.268  0.2737  0.0336 -0.0318
 5275W        W21349  16.843   8.116  15.564 -0.0122 -0.0299  0.0272
 5276W        W21350   0.516   0.293  13.902  0.2094  0.0267 -0.3978
 5277W        W21351  12.714  12.641   4.959  0.1023 -0.0676 -0.2872
 5278W        W21352   4.998   4.310   1.111  0.0001  0.1204 -0.1241
 5279W        W21353  10.517  16.333  14.654  0.0906  0.0531  0.0839
 5280W        W21354   9.497  13.165  15.311  0.1784 -0.0279 -0.0591
 5281W        W21355   4.925  17.956  14.496  0.2920 -0.2165  0.0076
 5282W        W21356   7.047  12.232  15.826 -0.1107  0.4965 -0.0238
 5283W        W21357  12.451   8.828   4.875 -0.2138 -0.1702 -0.0249
 5284W        W21358  16.793   5.362  14.532  0.0457 -0.0384  0.0465
 5285W        W21359   7.303  17.454   4.224  0.1478 -0.0458  0.1143
 5286W        W21360   5.293  12.518  12.249  0.3987 -0.1635  0.3519
 5287W        W21361  17.782   9.367   2.934 -0.0639 -0.1933  0.0338
 5288W        W21362   4.083  12.550   1.037 -0.1495 -0.3382 -0.0198
 5289W        W21363   5.639   7.784   1.388 -0.0507 -0.0626 -0.0398
 5290W        W21364   0.461   2.588  14.086  0.1234  0.1932 -0.1998
 5291W        W21365   5.271  12.847   3.904 -0.0448  0.3184 -0.1305
 5292W        W21366  16.788   2.304   5.170 -0.0247 -0.1765 -0.2914
 5293W        W21367   0.408   5.274  14.257  0.0516  0.0139 -0.0774
 5294W        W21368   9.458   7.962   2.287 -0.2420  0.1718 -0.1496
 5295W        W21369  17.321   5.369   0.504 -0.1296 -0.2955  0.0656
 5296W        W21370  10.107   4.137  10.892 -0.3680  0.1313 -0.0714
 5297W        W21371   1.746  16.440   0.630 -0.0637  0.1832  0.1427
 5298W        W21372  15.510  12.158   2.811  0.2037  0.3055 -0.1290
 5299W        W21373   8.052   0.164   0.034  0.0736 -0.0723  0.4355
 5300W        W21374   5.215   3.924   1.372  0.1362  0.0332  0.0664
 5301W        W21375   0.756  16.001   1.986  0.2205  0.0303 -0.0817
 5302W        W21376  11.243  18.112   3.836  0.1716  0.1042  0.3441
 5303W        W21377   3.936   4.926   3.661  0.0586 -0.3107  0.2836
 5304W        W21378  10.181  11.421  14.306  0.0126  0.0050 -0.1067
 5305W        W21379   1.389  13.950  13.266 -0.1935  0.2404  0.0133
 5306W        W21380  15.674   7.264   3.968 -0.0305 -0.3806 -0.2501
 5307W        W21381   1.298  11.207   5.775  0.0999  0.3910  0.2079
 5308W        W21382  18.038  14.446   2.051  0.1498 -0.0535  0.1082
 5309W        W21383  16.668   0.633   5.159  0.0925 -0.0345  0.1196
 5310W        W21384   4.049   9.985   2.879 -0.0787  0.1149 -0.2989
 5311W        W21385   5.362  13.521   0.881  0.2065  0.0480 -0.0107
 5312W        W21386   5.865  18.532   3.090  0.4984  0.0319 -0.3082
 5313W        W21387   4.386  10.084  14.995  0.1058 -0.1342 -0.1596
 5314W        W21388   2.720  14.469  10.286 -0.0500 -0.3614 -0.0215
 5315W        W21389   4.576  18.522   5.600  0.1595 -0.0751  0.0281
 5316W        W21390  15.509   3.128   4.758  0.1192 -0.0896  0.6481
 5317W        W21391  12.153  15.366   2.088  0.0326  0.0943  0.0843
 5318W        W21392   6.698   6.882  13.047 -0.0427 -0.2109 -0.1293
 5319W        W21393  15.195  13.884   1.025 -0.0310  0.4505 -0.3621
 5320W        W21394  17.116   2.375  12.087  0.0855 -0.0384 -0.2681
 5321W        W21395  16.982   8.858   4.305 -0.0684  0.1046  0.1371
 5322W        W21396   2.984   6.477  10.537 -0.2215  0.1321 -0.2853
 5323W        W21397   3.348   9.508  12.408  0.0188 -0.0334  0.2944
 5324W        W21398   3.869   8.720  11.708 -0.3434 -0.6043  0.0063
 5325W        W21399   9.307  17.420   0.371  0.0248 -0.0811 -0.3971
 5326W        W21400   2.898   5.115  13.488  0.0719  0.0075 -0.0481
 5327W        W21401   1.255  11.813   5.249  0.0189  0.2554 -0.1188
 5328W        W21402   5.083   5.536   4.431  0.3892  0.0748  0.2327
 5329W        W21403   8.258   2.414   1.644 -0.0718  0.0575  0.0767
 5330W        W21404  14.555   9.963   2.847 -0.1240 -0.1274 -0.1428
 5331W        W21405   4.138   9.679   1.604  0.1672 -0.0302  0.0142
 5332W        W21406   3.123   0.094   1.429  0.3621  0.1404 -0.0197
 5333W        W21407   2.077   3.932  12.828 -0.2469  0.2438 -0.2216
 5334W        W21408   5.336  17.132  15.241  0.1272 -0.3999 -0.0549
 5335W        W21409   7.896   7.476   3.450  0.0453 -0.1814  0.0765
 5336W        W21410  13.869   4.432   1.826  0.2543 -0.0541 -0.1204
 5337W        W21411  15.389  11.682   5.048  0.0647  0.2219  0.0918
 5338W        W21412  16.787  10.137   2.976  0.0155  0.4722 -0.3498
 5339W        W21413   6.833   6.875  13.555  0.3582 -0.0419 -0.3277
 5340W        W21414   7.868  11.881  14.697  0.0674 -0.0763 -0.4054
 5341W        W21415  17.240  11.955   3.956  0.0701 -0.0537  0.2896
 5342W        W21416   6.544  10.516  15.984  0.0862  0.3930 -0.0483
 5343W        W21417  15.412  17.762  10.643  0.1766  0.2518 -0.3934
 5344W        W21418  15.817   2.681   1.052  0.1523  0.0008 -0.3534
 5345W        W21419  16.812  14.619  11.635 -0.1021 -0.0668 -0.1582
 5346W        W21420  11.464   9.679   4.169 -0.0115 -0.1331  0.3240
 5347W        W21421  13.626   1.346   2.092  0.1401  0.2213 -0.1127
 5348W        W21422  18.054   6.895   1.922  0.2742 -0.1048 -0.2176
 5349W        W21423   2.655   3.453   0.477  0.2634 -0.0497 -0.1206
 5350W        W21424  11.073   8.427   0.023  0.1657  0.0736  0.3757
 5351W        W21425   2.041   9.245   0.204 -0.0555  0.0169 -0.0461
 5352W        W21426   5.611  16.875   3.102  0.4532 -0.0480  0.1928
 5353W        W21427  14.384   4.071  11.204 -0.2094 -0.2629 -0.2120
 5354W        W21428  16.318  16.845   5.305  0.0607  0.0395 -0.3272
 5355W        W21429  14.544   4.143  15.107  0.5116 -0.0351  0.3237
 5356W        W21430   6.017  10.352   1.649  0.2617  0.3670  0.0237
 5357W        W21431  15.196  13.158  14.680 -0.0290 -0.0231 -0.0416
 5358W        W21432   0.755   2.364  13.020  0.0390 -0.0961  0.2174
 5359W        W21433  16.239  14.360   2.367  0.1935 -0.0056  0.3997
 5360W        W21434  14.525  17.762   1.981  0.1321  0.0248 -0.0542
 5361W        W21435  17.489   4.143   3.572 -0.1559 -0.2473  0.0213
 5362W        W21436  12.300   9.215   1.936 -0.2157  0.1116  0.3351
 5363W        W21437  15.711   6.895  13.411  0.1502 -0.1093  0.2833
 5364W        W21438  13.290  15.165  13.023  0.1868 -0.1132 -0.2899
 5365W        W21439  15.051   7.786   3.746 -0.1333 -0.0993  0.1888
 5366W        W21440  10.945  13.009  11.376 -0.3871  0.2037  0.0188
 5367W        W21441   2.742   8.025   0.006  0.0189  0.0634 -0.1134
 5368W        W21442   5.074  16.589   4.925 -0.3702  0.0492 -0.1292
 5369W        W21443   4.564   9.591   5.978  0.1480  0.1891  0.0703
 5370W        W21444  11.967   3.965   0.101  0.3476  0.1938  0.0645
 5371W        W21445   1.905   7.356  15.416  0.0952  0.3896 -0.1178
 5372W        W21446   6.943  10.688   2.999  0.0126 -0.0585 -0.4255
 5373W        W21447   4.270  17.051   3.032  0.0095  0.0993 -0.2163
 5374W        W21448  13.151  17.306   4.057  0.2282  0.0458  0.0312
 5375W        W21449  16.922  17.229   5.188 -0.2026  0.0646  0.3171
 5376W        W21450   8.985  13.572   2.503 -0.1117 -0.2751  0.1643
 5377W        W21451  15.472   7.014   1.044 -0.4575 -0.2917 -0.1367
 5378W        W21452  17.512  12.293   2.470  0.0846  0.0573  0.1249
 5379W        W21453   5.582   4.981  12.415  0.0152  0.2029  0.2369
 5380W        W21454   4.156   6.055   2.994 -0.0442 -0.3771 -0.2220
 5381W        W21455  15.310   2.682   3.621  0.2026 -0.1007 -0.0735
 5382W        W21456   0.491   7.416   1.548 -0.0928 -0.3852  0.1771
 5383W        W21457   8.919   8.346  10.820  0.1167 -0.0453  0.4812
 5384W        W21458   0.344  13.374  11.555  0.1391 -0.1765  0.1996
 5385W        W21459  14.798   9.137   2.980  0.0121  0.2374 -0.0527
 5386W        W21460   7.456   7.171  15.577 -0.0610 -0.1330  0.0415
 5387W        W21461  17.095   7.911   4.318  0.0537  0.0756  0.0445
 5388W        W21462  13.852   0.350   0.992  0.0102  0.3144  0.3588
 5389W        W21463   6.219  14.159   4.051 -0.2783 -0.1461 -0.1981
 5390W        W21464  15.133  13.774  11.707 -0.0360  0.0170  0.2341
 5391W        W21465  13.510  12.725  13.510  0.0887  0.0106  0.1724
 5392W        W21466   0.411  15.145  13.509  0.0179 -0.0661  0.0111
 5393W        W21467   7.866   6.762   5.463 -0.1221 -0.1206 -0.0666
 5394W        W21468  12.594  12.077   1.547  0.1002  0.1990 -0.1815
 5395W        W21469  10.958  14.854  11.459  0.0799  0.0389 -0.0208
 5396W        W21470   4.135   6.545  13.635 -0.2533 -0.1166 -0.0910
 5397W        W21471   7.776  17.400   0.317  0.1794  0.0047 -0.2405
 5398W        W21472   7.065   1.766   4.773  0.1888 -0.0146 -0.0385
 5399W        W21473  11.332   7.016   1.423  0.1152 -0.0350 -0.0198
 5400W        W21474   9.453  14.207   0.577 -0.0779 -0.0138  0.1979
 5401W        W21475  10.084   7.202   0.928 -0.2939 -0.1979  0.0638
 5402W        W21476  10.891   9.631  11.463  0.0370 -0.3377  0.1788
 5403W        W21477  15.330  17.397   4.377 -0.1025 -0.2502 -0.1173
 5404W        W21478  15.001  12.655  13.036  0.0512 -0.0185 -0.0442
 5405W        W21479  14.587   9.909   2.001 -0.2580 -0.0087  0.5482
 5406W        W21480  13.428   8.952  11.729 -0.0422 -0.0809 -0.0091
 5407W        W21481  14.483  10.878   1.357 -0.0101  0.0484  0.0661
 5408W        W21482  14.910   0.209   4.173  0.0813  0.2868  0.0415
 5409W        W21483   9.310  16.585  10.971  0.3902 -0.5434 -0.0126
 5410W        W21484  15.773  17.817  15.137 -0.1127  0.0838 -0.2337
 5411W        W21485   7.534   7.879   3.208  0.0441  0.0179 -0.4374
 5412W        W21486   8.738   4.728   4.952 -0.2198 -0.1352 -0.0982
 5413W        W21487  13.930   0.179   2.331 -0.0578 -0.0059  0.0421
 5414W        W21488   3.970  18.471   4.239 -0.0363 -0.0775  0.1375
 5415W        W21489   8.213  13.708   1.806 -0.0432  0.1054  0.0706
 5416W        W21490   4.920  15.980  14.347 -0.0347  0.2039  0.1203
 5417W        W21491   3.743   3.953   2.073  0.1128 -0.1188 -0.4239
 5418W        W21492  16.769   6.720   3.319  0.1853 -0.4130 -0.1872
 5419W        W21493  14.309  18.383  10.828  0.2435 -0.2807 -0.1223
 5420W        W21494  14.162   2.782   3.291  0.1858 -0.1712 -0.0269
 5421W        W21495   7.969  14.560  11.103 -0.1355  0.1818  0.4200
 5422W        W21496   6.897   5.469   3.041  0.0262 -0.2350  0.1632
 5423W        W21497  11.918  14.216   3.366  0.0352  0.0532 -0.1938
 5424W        W21498   0.204  15.471   1.891  0.0776  0.1332  0.0750
 5425W        W21499   5.866  16.324   4.447 -0.0963  0.2529 -0.0611
 5426W        W21500  12.059  14.062  13.845 -0.1897 -0.3542  0.1262
 5427W        W21501   0.536   9.811  15.526  0.0895 -0.1688  0.1257
 5428W        W21502   0.528  12.803   5.662 -0.3399 -0.1933  0.3200
 5429W        W21503  13.647   0.744   4.881 -0.2291  0.0483 -0.0798
 5430W        W21504   5.843   4.215   3.365  0.0142  0.0368 -0.4581
 5431W        W21505   1.469   8.407   1.816 -0.1980 -0.1392 -0.1577
 5432W        W21506  13.564   2.186  11.577  0.0789 -0.2636  0.0535
 5433W        W21507  18.338  16.432  13.753 -0.1109 -0.2593 -0.1590
 5434W        W21508   0.550  11.664   2.744 -0.1512 -0.1128 -0.0006
 5435W        W21509  13.711   3.876  15.008 -0.2285 -0.1359 -0.0889
 5436W        W21510   6.707   1.778  15.047 -0.0715  0.0077  0.0038
 5437W        W21511  12.248  14.451  10.469 -0.2437 -0.1089 -0.2852
 5438W        W21512  13.353  16.562  10.787  0.1280 -0.1784 -0.2809
 5439W        W21513   8.847  16.654   0.867 -0.3206  0.1892 -0.1649
 5440W        W21514   9.198  15.132   2.345  0.0146 -0.1131 -0.1969
 5441W        W21515  17.144   9.128   5.403  0.1472  0.0963 -0.0506
 5442W        W21516   7.331   6.028  13.607  0.3399  0.1315 -0.0515
 5443W        W21517  18.321  11.264  15.071  0.4086  0.2044  0.2829
 5444W        W21518  18.145   0.783  11.672 -0.2012 -0.0514  0.2437
 5445W        W21519   8.749   1.711  14.623 -0.1063  0.1713 -0.0698
 5446W        W21520   5.236   9.219  14.678  0.1414 -0.1638 -0.0584
 5447W        W21521   3.013   5.428   5.818 -0.1381  0.1461  0.0745
 5448W        W21522   9.311  11.844  12.418 -0.2932 -0.1777 -0.0289
 5449W        W21523  10.576   1.640   3.607  0.0079 -0.1496 -0.3402
 5450W        W21524   7.209   0.747  15.065 -0.4886 -0.1534 -0.0080
 5451W        W21525  13.215  16.675   1.752 -0.1661 -0.4254 -0.5597
 5452W        W21526   9.605   3.978   2.543  0.1356 -0.0950 -0.4302
 5453W        W21527  16.712   5.595  11.271 -0.0951 -0.2331 -0.0133
 5454W        W21528   4.155  16.400   3.791 -0.2849 -0.1309 -0.2682
 5455W        W21529  12.939   4.638   3.380  0.2211 -0.1096 -0.0462
 5456W        W21530   6.465   1.122  14.776 -0.0340  0.0423 -0.1299
 5457W        W21531  11.492  13.256  12.661  0.1323 -0.4024  0.1568
 5458W        W21532  17.859  10.232   4.375 -0.3971  0.1376 -0.1760
 5459W        W21533  11.679   8.281   2.716 -0.2632  0.0219  0.0645
 5460W        W21534  18.128  13.906   2.170 -0.0028 -0.0309 -0.0149
 5461W        W21535   7.263   9.652   3.965 -0.3025  0.1411  0.2737
 5462W        W21536  14.511   4.817   5.159  0.0559 -0.0953 -0.1545
 5463W        W21537   3.316   8.482   5.522  0.0752 -0.1246 -0.1033
 5464W        W21538   6.396   2.264  15.523  0.2405 -0.2014 -0.1071
 5465W        W21539   4.095  15.497  13.973  0.0077  0.0695  0.1310
 5466W        W21540   7.774   0.448  12.729  0.0730 -0.3383  0.1831
 5467W        W21541   8.941  18.048   1.876  0.0598  0.0714  0.2325
 5468W        W21542  15.898   9.064   6.144 -0.0179  0.0511 -0.3019
 5469W        W21543   6.528   3.904   2.140  0.0294 -0.1152 -0.1819
 5470W        W21544   5.403  14.088   5.223 -0.2857  0.2239 -0.1315
 5471W        W21545  16.317   5.841   1.147 -0.1151 -0.2146 -0.0236
 5472W        W21546  17.090   3.386   1.478  0.2605 -0.2663  0.2933
 5473W        W21547   1.438   4.856   0.869  0.1064  0.1472 -0.0697
 5474W        W21548   6.934   4.397  12.403  0.0029 -0.0846 -0.1167
 5475W        W21549   1.182  15.440   5.708  0.1277  0.1084  0.0966
 5476W        W21550   0.644   2.724  15.621 -0.2563 -0.1490 -0.1059
 5477W        W21551   6.441   7.741   1.458  0.0312  0.0465  0.0689
 5478W        W21552   4.071   5.683  15.030  0.0108 -0.1340 -0.3145
 5479W        W21553   4.445  10.091   2.526  0.0852  0.0753  0.1321
 5480W        W21554  12.033   2.818   3.465  0.2621  0.0283 -0.1414
 5481W        W21555   9.684   1.691  15.817  0.0170  0.2405 -0.0294
 5482W        W21556  12.763  15.070  12.930 -0.0029  0.1325  0.1159
 5483W        W21557  13.214   2.341   3.212  0.0623  0.0418  0.0357
 5484W        W21558   2.088   1.246   3.842 -0.1024  0.0998  0.1988
 5485W        W21559  16.396   5.840  11.637  0.2099 -0.2757 -0.2138
 5486W        W21560   6.972   1.890   0.442  0.0045 -0.0271 -0.0520
 5487W        W21561  15.121  14.330   3.168  0.2023  0.2257 -0.1526
 5488W        W21562  18.048  12.749  14.655  0.2927 -0.1936  0.0942
 5489W        W21563  18.071   6.975   3.692  0.0674 -0.0649  0.1176
 5490W        W21564   3.252   1.437   0.232  0.1900  0.1947  0.3794
 5491W        W21565   1.128   0.948  13.569 -0.0203  0.0671  0.2876
 5492W        W21566   6.213   1.644   1.219  0.0765  0.2966  0.0235
 5493W        W21567  15.889  18.410   6.238 -0.2564  0.0014  0.2096
 5494W        W21568  17.305  10.843  15.593 -0.5421 -0.2662  0.0632
 5495W        W21569   8.085   4.914  15.855  0.0802 -0.0746 -0.4051
 5496W        W21570  10.931   1.744   1.770 -0.1206  0.2324 -0.2468
 5497W        W21571   0.236  16.607  12.752 -0.0800 -0.1001 -0.1285
 5498W        W21572  14.274  17.938  15.181 -0.1246 -0.0359 -0.1128
 5499W        W21573   4.072   3.033  12.649  0.1188  0.2051 -0.1287
 5500W        W21574   1.584  18.515   2.959  0.0572 -0.1946 -0.0346
 5501W        W21575  12.381   1.138   5.099 -0.2898 -0.1167 -0.1110
 5502W        W21576  12.339  16.736   2.235 -0.0226 -0.0879 -0.0071
 5503W        W21577   7.352   7.755   3.739  0.2175 -0.2080  0.0813
 5504W        W21578   0.674  13.945   4.996  0.3101 -0.1831 -0.2944
 5505W        W21579  10.284  16.186   0.902  0.0672 -0.1844 -0.4770
 5506W        W21580   4.740   6.849   2.274 -0.0290  0.2182  0.0670
 5507W        W21581  15.187  10.909   4.599 -0.2404 -0.2436  0.0964
 5508W        W21582   3.263   7.233  11.185  0.1722 -0.1909 -0.0591
 5509W        W21583  15.129   3.666  14.050  0.0844 -0.4494  0.2850
 5510W        W21584  16.992   8.830  13.301  0.2428 -0.0226  0.0688
 5511W        W21585  16.147  16.836   3.528  0.3175 -0.3556  0.0840
 5512W        W21586   2.005   5.460   4.540 -0.3091  0.0315 -0.2979
 5513W        W21587  13.797   3.776   1.797  0.1960  0.0966  0.0695
 5514W        W21588  18.530   3.892   0.706 -0.2229  0.3401  0.1106
 5515W        W21589   2.078   2.938  13.134  0.3548  0.2202 -0.0915
 5516W        W21590   5.488  10.297   3.424  0.4866  0.0314  0.0077
 5517W        W21591   5.156  13.401   2.456 -0.2338  0.0434  0.1032
 5518W        W21592  16.614   9.512   4.861  0.2568  0.1769 -0.0343
 5519W        W21593   0.509   1.154   0.270 -0.0052  0.2502 -0.2647
 5520W        W21594  17.813  11.148  13.480 -0.1312 -0.1500 -0.1248
 5521W        W21595   1.774   6.989  11.701 -0.0974 -0.2342 -0.1294
 5522W        W21596   3.247  16.618  12.607 -0.2832 -0.2523 -0.0956
 5523W        W21597   5.055  12.529  15.581  0.1409  0.0883  0.2774
 5524W        W21598  12.904  14.570  14.987 -0.0260 -0.1275 -0.1153
 5525W        W21599   3.517   4.141  15.553 -0.1637  0.6608 -0.0258
 5526W        W21600  11.385  15.286  13.583  0.1617 -0.0558  0.1188
 5527W        W21601  13.219   4.619  12.184  0.1899 -0.0632 -0.1642
 5528W        W21602   7.318   0.814   0.478 -0.1679  0.1769 -0.4352
 5529W        W21603  17.630  10.101  12.831  0.1134  0.2109 -0.0182
 5530W        W21604   6.571  12.057   1.429 -0.3225 -0.0850  0.1043
 5531W        W21605   7.650  10.421   3.554 -0.0923  0.0426 -0.3201
 5532W        W21606   9.134  11.539   1.444  0.0253  0.0054  0.2706
 5533W        W21607  17.416   5.833   0.654 -0.1217 -0.2049  0.1261
 5534W        W21608  13.937  17.996  11.038  0.2281  0.1172  0.0417
 5535W        W21609   6.989   3.447  11.620 -0.2969 -0.2276 -0.0088
 5536W        W21610  15.613   9.641  12.482  0.3525  0.0827  0.2084
 5537W        W21611   5.318  16.444   1.697 -0.2488  0.0190 -0.1254
 5538W        W21612   3.210   3.160   1.147  0.1528  0.0340 -0.0139
 5539W        W21613  14.900   6.806   3.752  0.1518  0.0388  0.0559
 5540W        W21614  17.048  11.492  13.846  0.1887  0.0182 -0.1220
 5541W        W21615  16.529  15.245   0.307 -0.1955  0.4036 -0.0102
 5542W        W21616   8.712  13.712  11.759  0.0119 -0.0147  0.0336
 5543W        W21617   1.799   6.318   2.679  0.1669 -0.1884  0.0345
 5544W        W21618   2.375  16.512   2.166 -0.1175  0.4359 -0.0274
 5545W        W21619  13.026   9.175   4.685 -0.2327 -0.3029 -0.0959
 5546W        W21620   3.216   2.338   5.444 -0.0297  0.3365  0.1574
 5547W        W21621   5.450  16.838  11.273  0.0296  0.0583  0.1111
 5548W        W21622  15.157  18.015   0.754 -0.0955 -0.1776  0.1520
 5549W        W21623  11.845  15.387   2.503  0.3064  0.1505 -0.3657
 5550W        W21624   1.825   5.651  15.244  0.0455  0.1529 -0.0344
 5551W        W21625  13.473  17.539   3.710  0.0420  0.2688 -0.0288
 5552W        W21626   6.623   2.976  12.839  0.1411 -0.1415 -0.3149
 5553W        W21627  15.029   9.262   4.868  0.2278 -0.2136 -0.0143
 5554W        W21628   0.008  15.412  12.869  0.2223  0.0852 -0.2391
 5555W        W21629   7.187  10.662   3.724 -0.1652  0.1069 -0.0688
 5556W        W21630  12.154   0.887  15.889 -0.3033 -0.3307 -0.0815
 5557W        W21631  15.413   1.709   2.578 -0.1759 -0.0571 -0.1693
 5558W        W21632   0.675   3.036  11.602  0.1377 -0.1472 -0.1608
 5559W        W21633   0.706  18.190   2.094  0.2058  0.2006 -0.2506
 5560W        W21634   1.364   4.049  11.680  0.2985  0.3928 -0.1317
 5561W        W21635   7.204   5.179   3.685  0.0521 -0.0801  0.0422
 5562W        W21636  16.961   4.992  14.172 -0.0267 -0.3223  0.1668
 5563W        W21637   7.837   5.713   2.265 -0.4040  0.0204 -0.1314
 5564W        W21638   4.491  15.776  14.163  0.1311 -0.0177  0.0536
 5565W        W21639  11.856  16.178   3.642  0.0001  0.1867 -0.0897
 5566W        W21640  12.028   1.754  15.037  0.0636 -0.0062 -0.1755
 5567W        W21641   0.251   0.030   2.839 -0.0354  0.0060 -0.1364
 5568W        W21642  12.242   0.782   4.779  0.0445 -0.3548 -0.0847
 5569W        W21643   6.796   3.110   1.096  0.2322  0.0295  0.0876
 5570W        W21644   5.632  13.955  11.369 -0.1875  0.4417 -0.0604
 5571W        W21645   9.886  13.145  14.971  0.1370 -0.2491 -0.0064
 5572W        W21646  14.459  10.617   5.775  0.3563  0.0200  0.0582
 5573W        W21647  13.314  14.519   2.810  0.1848  0.3609  0.1037
 5574W        W21648   4.759   1.614  15.078 -0.2897 -0.1203  0.0448
 5575W        W21649   9.385  15.105   5.431 -0.0295 -0.0746  0.2517
 5576W        W21650   6.257   6.436   0.673 -0.0519  0.1812  0.0502
 5577W        W21651  15.399   4.149  12.026 -0.0763 -0.1075 -0.2437
 5578W        W21652   7.646  12.741   2.584  0.1470 -0.0523 -0.1915
 5579W        W21653   5.249   4.855  14.474  0.0190  0.3085  0.1330
 5580W        W21654   5.530  17.955  14.449  0.1948  0.0180 -0.3009
 5581W        W21655   6.108  14.541   2.383 -0.1088  0.1316 -0.0519
 5582W        W21656  17.356  12.903   1.791  0.2355  0.2131  0.2564
 5583W        W21657   3.742  16.944   0.998 -0.4388 -0.0883 -0.1866
 5584W        W21658  13.123  14.004   1.306  0.2560 -0.2482  0.1357
 5585W        W21659   2.140  13.246  11.224  0.0397  0.0766  0.0369
 5586W        W21660  16.351   3.884  14.028  0.3840 -0.1537  0.4626
 5587W        W21661  12.782   7.586  11.659 -0.2343 -0.3846  0.0160
 5588W        W21662  13.302  11.009  15.552 -0.2485 -0.0635 -0.0127
 5589W        W21663   6.220   0.264   0.315 -0.3166 -0.0514  0.0143
 5590W        W21664  14.274  17.487  12.651  0.1580  0.0290  0.2784
 5591W        W21665  14.078   9.536   3.123  0.2414 -0.0827 -0.4027
 5592W        W21666  15.218  12.811  13.486 -0.1233 -0.2139  0.0559
 5593W        W21667  17.445   8.951  11.874  0.0196 -0.1891 -0.0253
 5594W        W21668   1.505  17.244  14.079 -0.0536  0.0378  0.0011
 5595W        W21669  14.758   4.585  15.612  0.1737 -0.3264 -0.2064
 5596W        W21670   2.101   0.710  16.025 -0.1320 -0.2327 -0.0751
 5597W        W21671  10.866  17.824  12.882 -0.1414 -0.3003 -0.2518
 5598W        W21672   5.340  16.301   5.632  0.2150  0.0181  0.1576
 5599W        W21673   7.737  18.382   2.235 -0.0617 -0.0161  0.1804
 5600W        W21674  11.337  13.971  14.235  0.1914 -0.0842  0.0603
 5601W        W21675  13.863  15.334  12.347  0.1230 -0.2614  0.1302
 5602W        W21676  15.021   9.141  14.145  0.1496 -0.0610 -0.2039
 5603W        W21677  13.999   4.113  16.007  0.1138 -0.4522 -0.2619
 5604W        W21678  17.762   7.620  15.526 -0.1519 -0.1131 -0.0178
 5605W        W21679  17.265  11.077   2.110  0.2226 -0.3550  0.0504
 5606W        W21680  10.183  15.924  10.905 -0.0919 -0.0840 -0.0995
 5607W        W21681  18.257  12.479  12.300 -0.0293 -0.0870 -0.0397
 5608W        W21682  12.781  13.426   2.273 -0.0511 -0.2108 -0.0079
 5609W        W21683   0.597  16.493   0.756 -0.0714 -0.3050 -0.0007
 5610W        W21684   8.718  11.992  13.119  0.0872  0.0034 -0.0021
 5611W        W21685   9.591   6.244   4.729 -0.2251  0.1436  0.0716
 5612W        W21686  13.718   0.170  15.993  0.2322 -0.0877 -0.0841
 5613W        W21687   7.293  17.390  14.978  0.2178  0.1649 -0.0941
 5614W        W21688   3.224  10.589   4.778  0.1827  0.0629 -0.1655
 5615W        W21689   0.299  15.365   3.224 -0.3116 -0.0946 -0.1044
 5616W        W21690  16.177  10.682  15.651  0.2148  0.0466 -0.1515
 5617W        W21691   1.432   5.495   1.491  0.3350  0.1079 -0.1550
 5618W        W21692   6.739   2.645  15.518  0.3002  0.4596  0.0428
 5619W        W21693  13.684  11.061  15.882 -0.1909 -0.1938 -0.1636
 5620W        W21694  10.483   2.592   1.652 -0.1885  0.0317 -0.2699
 5621W        W21695   8.375  18.569   4.580  0.0850  0.0295 -0.1253
 5622W        W21696   4.042   4.642  15.018  0.4336  0.0820 -0.0185
 5623W        W21697  12.478  11.074   3.083  0.2187 -0.1828  0.0089
 5624W        W21698  12.410   0.704   5.445 -0.1710  0.0903  0.1767
 5625W        W21699  12.834  10.715   2.684 -0.2764  0.0192  0.3086
 5626W        W21700  16.103  18.378  12.639 -0.0885  0.0800 -0.1655
 5627W        W21701   3.327   0.372   3.771 -0.0866 -0.1928  0.1823
 5628W        W21702  10.273   1.335   4.803  0.0957  0.0194 -0.0043
 5629W        W21703  16.972   7.858   3.330  0.1196 -0.3478 -0.1623
 5630W        W21704  12.696   8.930   4.380  0.3073  0.0133 -0.1289
 5631W        W21705   3.453   9.811   5.304 -0.2004  0.2448  0.4179
 5632W        W21706   8.146   7.308   1.083 -0.3401 -0.0898  0.2426
 5633W        W21707   2.998  15.167  15.301  0.1720 -0.0846  0.3881
 5634W        W21708   2.693   5.802   0.906  0.0386  0.2504 -0.1361
 5635W        W21709  14.823  15.028   0.770 -0.1558  0.1405  0.1099
 5636W        W21710  16.754   7.406   2.756  0.0939 -0.0384 -0.0793
 5637W        W21711  14.645   8.872  13.899 -0.5174  0.2469 -0.0120
 5638W        W21712  10.573  18.231  11.674 -0.4815  0.0679  0.3439
 5639W        W21713   1.853   6.412  11.802 -0.1617  0.1584  0.0952
 5640W        W21714  15.343   4.712  14.449 -0.3144 -0.0825  0.1935
 5641W        W21715   2.461   2.004   2.600 -0.0169 -0.3748 -0.1385
 5642W        W21716  10.095   0.295   5.567  0.1972  0.0022 -0.3225
 5643W        W21717  16.173   5.967   1.724  0.1481 -0.0833 -0.1089
 5644W        W21718   3.450   7.861   1.271  0.1514 -0.1323 -0.0324
 5645W        W21719   6.297  10.338  12.712 -0.0533 -0.0591 -0.0003
 5646W        W21720  18.290  12.345   0.314  0.0983  0.3531  0.3435
 5647W        W21721   6.871   5.999   3.171 -0.2287 -0.4258  0.0686
 5648W        W21722   5.106  13.275  13.434 -0.0101 -0.2689  0.4272
 5649W        W21723   7.053  10.444   1.539  0.1075 -0.4038 -0.0144
 5650W        W21724  15.521  10.188   4.928 -0.0426  0.0334  0.1471
 5651W        W21725   2.757  12.532   0.877  0.5619 -0.1922  0.1551
 5652W        W21726   7.371  17.552   2.790  0.1206 -0.1977  0.2631
 5653W        W21727   3.140  16.930  13.561 -0.0477  0.1005  0.0264
 5654W        W21728   2.602  18.051  13.640 -0.0760  0.0377  0.0701
 5655W        W21729  17.930  15.683   4.948  0.0508 -0.1683  0.0229
 5656W        W21730  11.971  17.010   0.588  0.1335  0.2641 -0.0635
 5657W        W21731   8.020  13.480   2.735  0.2769 -0.0906 -0.0835
 5658W        W21732   8.317   3.258   1.339 -0.4106  0.3787 -0.0230
 5659W        W21733  16.335  18.114   1.395  0.5084  0.2722  0.0463
 5660W        W21734  12.158   3.307   4.177 -0.0197 -0.1579  0.0407
 5661W        W21735   8.234  14.987   3.425  0.0260 -0.0662  0.2330
 5662W        W21736   4.238   5.672   4.176 -0.0843 -0.1119 -0.0813
 5663W        W21737   4.708  11.161   5.563 -0.0708 -0.1493 -0.0112
 5664W        W21738  13.494  13.697  15.221  0.1796  0.1792  0.0568
 5665W        W21739  11.856   9.774  15.272 -0.1067  0.1652 -0.1234
 5666W        W21740   8.142  12.534  13.847 -0.1227 -0.1882  0.2567
 5667W        W21741  15.330  10.443   4.163  0.0385  0.0404 -0.1517
 5668W        W21742   9.669  11.929   1.784  0.3421 -0.0211 -0.1173
 5669W        W21743  12.204  16.557   4.390  0.0239  0.5418  0.0949
 5670W        W21744  11.490   8.853   1.173  0.0896 -0.2405  0.0408
 5671W        W21745  16.732   1.530   0.887 -0.1038  0.0891 -0.0133
 5672W        W21746   8.059  16.613  13.753 -0.1254  0.3532 -0.1977
 5673W        W21747   5.975   0.979  15.756 -0.0619 -0.0043  0.1191
 5674W        W21748   5.872   0.633   2.268  0.0509 -0.0986 -0.4266
 5675W        W21749   9.020   2.194  13.515 -0.3235 -0.0269  0.1077
 5676W        W21750   8.956   7.625   1.477  0.0141 -0.0936  0.0857
 5677W        W21751  12.635   7.604  11.194  0.3449 -0.1687  0.2839
 5678W        W21752  14.847   3.558  15.732  0.0908  0.0919  0.1608
 5679W        W21753   1.278   4.543   5.599  0.2303 -0.3443  0.0760
 5680W        W21754   4.516   4.068   1.160 -0.1160 -0.2921 -0.3978
 5681W        W21755  16.725   0.430   0.995 -0.2129  0.0138  0.2516
 5682W        W21756  15.981   5.571  14.824  0.0828  0.1948 -0.2596
 5683W        W21757   9.855   0.244   2.795 -0.0922  0.1398  0.0035
 5684W        W21758   7.464  10.034  13.682 -0.0343  0.0695 -0.1063
 5685W        W21759  17.457  17.539  13.838 -0.0903  0.1784 -0.0417
 5686W        W21760  11.753   7.515  11.417  0.0682 -0.3043  0.1272
 5687W        W21761   6.014   9.974   5.542  0.0532  0.2259 -0.0636
 5688W        W21762  17.331   0.904  15.062 -0.2222  0.0817 -0.0360
 5689W        W21763  10.169   6.038   5.520 -0.0806 -0.1852  0.2662
 5690W        W21764  18.133   2.803  15.180  0.0188 -0.0211  0.1810
 5691W        W21765   9.867   9.333  13.474 -0.1684 -0.2184 -0.0003
 5692W        W21766  12.086  12.127  13.424  0.1457  0.1656  0.3258
 5693W        W21767   6.053   2.107   4.690 -0.0601 -0.3066  0.3782
 5694W        W21768  16.137   6.324   2.082 -0.3097 -0.1639 -0.0161
 5695W        W21769   6.556   7.465   6.007 -0.0538  0.2873  0.0024
 5696W        W21770  13.421  12.622  11.221  0.0159 -0.1543 -0.0741
 5697W        W21771   7.288   4.761  15.493 -0.1895  0.0502 -0.3459
 5698W        W21772  13.094  12.387   4.737 -0.0502 -0.0310  0.0931
 5699W        W21773   6.026   8.753   2.133 -0.0388  0.2929  0.1517
 5700W        W21774  15.777  11.945  13.527 -0.2210 -0.0322  0.2759
 5701W        W21775  17.612  16.447   5.741  0.0216  0.1802  0.0692
 5702W        W21776   9.456   2.500  13.602  0.0005  0.2502 -0.1366
 5703W        W21777   6.047   1.062   2.023  0.1025  0.1501 -0.0255
 5704W        W21778  11.660  12.254  12.188  0.4098  0.1190  0.1047
 5705W        W21779  11.142   3.241  13.399  0.2133  0.1460  0.1546
 5706W        W21780   8.951   4.790  13.942  0.1325  0.1259  0.4185
 5707W        W21781   6.763  13.313  13.044 -0.1300 -0.0954 -0.5501
 5708W        W21782  16.864   9.994   0.107 -0.0083  0.0697  0.2373
 5709W        W21783  15.613   2.031   2.270 -0.0187  0.0050  0.0007
 5710W        W21784   0.730   4.618  15.977 -0.1794  0.3076  0.0667
 5711W        W21785   8.553  16.994   2.803 -0.2853 -0.2373  0.0005
 5712W        W21786  13.244  15.795   4.303 -0.0237 -0.3488  0.2682
 5713W        W21787   5.839   3.749  11.926  0.0739  0.1655 -0.0369
 5714W        W21788   3.960  16.246  11.996  0.0475  0.1534 -0.2684
 5715W        W21789   1.812   9.872  12.375 -0.2591  0.0617 -0.5125
 5716W        W21790  11.151   9.356  15.811  0.1624 -0.0801  0.2688
 5717W        W21791   8.806   0.690   5.421  0.0267  0.0493 -0.2361
 5718W        W21792   7.461   9.415  14.280 -0.1079  0.0107 -0.1692
 5719W        W21793   9.486   1.418   1.729 -0.1265  0.3196  0.1407
 5720W        W21794  13.193   2.561   4.535 -0.0211 -0.0479 -0.1571
 5721W        W21795  15.443   9.921   1.025  0.2541 -0.1277 -0.0607
 5722W        W21796   6.690  13.077   0.307 -0.1401 -0.0783  0.2207
 5723W        W21797  16.005   2.455   4.509  0.3773  0.0613  0.1915
 5724W        W21798   5.857   3.146  14.896  0.0920 -0.0355  0.0147
 5725W        W21799   3.722   8.971   4.133 -0.1320 -0.2193 -0.1550
 5726W        W21800   7.811   1.498  14.427 -0.1860 -0.0922 -0.1772
 5727W        W21801   7.826  14.089  13.919 -0.0942  0.4605  0.0475
 5728W        W21802   2.265  18.235   1.323  0.0685 -0.1615  0.1479
 5729W        W21803  18.120   7.270   2.290 -0.0638 -0.0633 -0.2151
 5730W        W21804   5.799  10.600   2.129  0.2288  0.1957  0.1296
 5731W        W21805  15.213   7.298   0.709 -0.0245 -0.0076 -0.1341
 5732W        W21806   7.077   5.126  13.646  0.0983  0.2478  0.2733
 5733W        W21807   2.949   0.231  11.274  0.2284  0.1538 -0.1120
 5734W        W21808  13.763  10.313  15.144  0.4826 -0.0440 -0.0122
 5735W        W21809   5.371  12.049   3.983  0.0412  0.0702  0.0419
 5736W        W21810   7.854  14.700   0.825  0.1152 -0.0291 -0.0706
 5737W        W21811  14.688  18.183  12.202  0.2614 -0.0617 -0.2214
 5738W        W21812  13.396  15.463   0.731 -0.0064 -0.0952 -0.0940
 5739W        W21813  14.308   4.430  15.764  0.2298 -0.2221 -0.0977
 5740W        W21814  12.531  13.910  11.961  0.0575 -0.0998 -0.1897
 5741W        W21815   8.317   0.638   5.275  0.1027 -0.2380  0.1261
 5742W        W21816   2.621  13.137  11.353 -0.2046 -0.1891  0.1790
 5743W        W21817  14.175  15.102   4.857 -0.3107 -0.3712  0.0458
 5744W        W21818  11.503   6.896   0.810  0.1049 -0.0093 -0.2460
 5745W        W21819  12.775  14.310  15.964 -0.0849 -0.2977  0.1724
 5746W        W21820   9.181  16.906   1.133  0.0416 -0.0972 -0.4506
 5747W        W21821   4.197  12.648  12.163  0.0825 -0.0354 -0.3597
 5748W        W21822   5.924   5.135   4.507  0.0838  0.0327 -0.1555
 5749W        W21823  11.465   6.029  15.616 -0.1980 -0.1087 -0.1911
 5750W        W21824  18.199   6.832   4.187 -0.3211 -0.1587 -0.1077
 5751W        W21825  10.045  16.141   3.841 -0.2402 -0.1283  0.0929
 5752W        W21826  10.319   8.470  11.595  0.0070 -0.3393  0.0634
 5753W        W21827  11.415  11.559   1.555 -0.4578 -0.1382  0.0416
 5754W        W21828  15.631  10.693   2.073  0.1449  0.1962  0.0617
 5755W        W21829   2.364   9.125   2.454 -0.1912  0.4843  0.2050
 5756W        W21830   3.687   8.426  15.130  0.1889 -0.2121  0.0393
 5757W        W21831   4.879   0.515  13.345 -0.0453 -0.1033  0.2920
 5758W        W21832   3.750   6.199   3.311  0.1770 -0.0291  0.1223
 5759W        W21833  12.194   3.978   0.532  0.1248 -0.3149 -0.0859
 5760W        W21834   5.961   3.756   2.810  0.1395 -0.1214 -0.0736
 5761W        W21835  11.994   4.381   2.672  0.2234 -0.1792  0.2808
 5762W        W21836   6.648  12.376   3.917  0.0928 -0.3607 -0.2510
 5763W        W21837  15.861  16.161  14.392 -0.4266 -0.0058  0.0588
 5764W        W21838  15.490   2.572  12.773 -0.3278  0.0029  0.0691
 5765W        W21839  10.441   8.497  12.154 -0.3804 -0.2332 -0.3865
 5766W        W21840   3.754   8.750  13.763 -0.0136  0.4415  0.1022
 5767W        W21841  13.707  15.543   1.915  0.2021 -0.1619  0.0219
 5768W        W21842  15.116  18.518  13.621 -0.1608  0.1008  0.0223
 5769W        W21843   2.556   9.720  15.395  0.4535 -0.1624  0.0946
 5770W        W21844  16.617  16.196  12.428 -0.1580 -0.0859 -0.0657
 5771W        W21845   6.698  10.146   4.139 -0.0483  0.1397 -0.5164
 5772W        W21846   1.401   5.912  15.875  0.1633  0.4471 -0.0500
 5773W        W21847   7.150   6.997  14.243  0.0474 -0.1777 -0.0607
 5774W        W21848  12.548  15.963  15.681 -0.3420 -0.3931  0.2157
 5775W        W21849   0.352  17.383  15.516  0.2232  0.0551  0.2229
 5776W        W21850  16.982   2.437   1.364 -0.0546 -0.2227  0.1276
 5777W        W21851   0.901  16.737  12.152  0.0185  0.4394 -0.1448
 5778W        W21852  12.561  16.024   0.694 -0.1092 -0.1260  0.0806
 5779W        W21853   1.388   7.805   5.606  0.0470  0.3490  0.2460
 5780W        W21854  10.907   3.840  12.794  0.1157  0.0419  0.2978
 5781W        W21855  17.602  12.764   0.892  0.2981  0.1235 -0.2358
 5782W        W21856  15.016   1.431   1.711  0.1071 -0.1876  0.1441
 5783W        W21857   6.386  16.739  15.663 -0.1455  0.1053 -0.1023
 5784W        W21858   3.518   9.722  15.538 -0.0792 -0.1936 -0.2937
 5785W        W21859   9.846  14.186  15.615  0.1808  0.0492  0.0191
 5786W        W21860   4.659  12.732  12.489  0.0989 -0.1755  0.2142
 5787W        W21861  14.455   3.876   3.842 -0.1956 -0.0306  0.0135
 5788W        W21862   2.636   6.202   1.379 -0.0135 -0.2637  0.1005
 5789W        W21863  16.341   4.393  15.244 -0.1645 -0.2916  0.2603
 5790W        W21864   8.057   6.542   0.595 -0.0067  0.0149 -0.1575
 5791W        W21865   6.764  12.685  16.005 -0.1905 -0.2307 -0.2258
 5792W        W21866  11.926   2.647   0.333 -0.1475 -0.1417  0.1081
 5793W        W21867   2.446   8.372   0.696 -0.0563  0.0739  0.2508
 5794W        W21868   7.552  12.385   5.317 -0.1316  0.0615 -0.0726
 5795W        W21869  12.717  14.240   1.181  0.2085 -0.2641  0.0074
 5796W        W21870   8.926   5.895  12.679  0.0540  0.1466  0.2535
 5797W        W21871  10.538  12.293   2.771 -0.0497  0.0822 -0.1166
 5798W        W21872   7.589  11.872   2.566 -0.1560 -0.2690 -0.1766
 5799W        W21873  15.413   3.635  12.225  0.3078  0.2260 -0.0931
 5800W        W21874   7.558   4.691   3.077  0.2912 -0.0950 -0.1741
 5801W        W21875   5.342   7.114  14.556  0.6030  0.1473  0.0529
 5802W        W21876  13.852  13.843   4.999  0.0899 -0.3550  0.1462
 5803W        W21877   1.215   8.451   3.169  0.1317  0.1009 -0.4306
 5804W        W21878   1.518   2.673  14.867 -0.1932  0.3787  0.0740
 5805W        W21879  16.806   5.329   4.834  0.0169 -0.0859  0.0051
 5806W        W21880  10.975  13.826   2.563 -0.1318  0.1023 -0.1185
 5807W        W21881  12.845  15.724  14.891  0.3357  0.0473 -0.0800
 5808W        W21882  16.887   6.779  13.875 -0.0266 -0.2669  0.3061
 5809W        W21883   2.946   2.127   5.888 -0.1255  0.1734 -0.2928
 5810W        W21884   0.510  18.013   3.259 -0.1231  0.1753 -0.0008
 5811W        W21885   2.412   7.654  15.210  0.0235 -0.0509 -0.0040
 5812W        W21886   2.218   6.300  14.769  0.0822 -0.0335  0.1167
 5813W        W21887  11.910   8.803  11.685 -0.0749  0.2191 -0.0624
 5814W        W21888  10.447  12.343  13.006 -0.1456 -0.4365  0.0431
 5815W        W21889   8.931  11.519   0.725 -0.1686  0.1291 -0.1522
 5816W        W21890   2.308  11.270   2.882  0.1582  0.2359  0.4542
 5817W        W21891   0.673   7.916   0.439  0.0379  0.0968  0.1906
 5818W        W21892   3.324   2.121  15.674 -0.0865  0.1201 -0.1221
 5819W        W21893   5.805  15.935   4.736 -0.2252  0.0859  0.0144
 5820W        W21894  11.252   9.060  13.499  0.3208 -0.1263  0.1107
 5821W        W21895  17.322  15.727   4.551  0.0390 -0.0015 -0.2003
 5822W        W21896   3.689  16.249  10.922  0.0723  0.2962  0.1944
 5823W        W21897  17.754  17.673   2.885 -0.2407 -0.2151  0.0902
 5824W        W21898   8.718   1.293  13.833  0.1487 -0.1213 -0.0060
 5825W        W21899  16.436   9.419  14.183 -0.2883 -0.0930  0.0554
 5826W        W21900  14.771  18.115  14.982 -0.2162  0.1394 -0.0319
 5827W        W21901   1.228  12.392   4.529 -0.3690 -0.1472 -0.0188
 5828W        W21902   5.019  11.638  11.294  0.4267 -0.2160  0.1193
 5829W        W21903  18.026   1.423  15.370  0.2035 -0.2964 -0.2116
 5830W        W21904   5.213  17.183   2.766 -0.2933  0.3497  0.0704
 5831W        W21905  17.871   7.228  15.789  0.2366  0.3282 -0.3111
 5832W        W21906  13.339  12.359   3.746 -0.0844  0.0187  0.1429
 5833W        W21907   3.087   0.281   2.825  0.1587  0.2917  0.0305
 5834W        W21908  13.488   0.296   4.805 -0.0423  0.3339  0.0079
 5835W        W21909   9.157   3.304  11.440  0.0840  0.1277  0.3967
 5836W        W21910   0.902   2.908  13.839  0.2392  0.0776 -0.3725
 5837W        W21911   6.981   6.229   0.816  0.1161  0.3047  0.2582
 5838W        W21912   9.028  16.153   0.971  0.0544  0.0378 -0.1458
 5839W        W21913   5.065   4.154  12.396 -0.0216 -0.0142 -0.3677
 5840W        W21914  10.401  13.326  15.115  0.1818  0.1368 -0.0344
 5841W        W21915  11.627   5.661  14.526  0.2728 -0.3355  0.0110
 5842W        W21916  11.772  15.269  13.074  0.0466  0.1962 -0.0999
 5843W        W21917   4.392   7.784  13.485 -0.1077  0.4417  0.0676
 5844W        W21918  17.322  18.367   4.458 -0.0807 -0.0895  0.0447
 5845W        W21919  13.387   8.380   0.453  0.0481 -0.2285 -0.2022
 5846W        W21920  16.356   0.756  14.304  0.0664  0.1612  0.0159
 5847W        W21921   0.831   5.199   1.522 -0.2004 -0.2225 -0.0155
 5848W        W21922  11.983  17.299  11.651  0.0952 -0.1115  0.0804
 5849W        W21923   8.500  10.862  11.057 -0.2416  0.0465 -0.1027
 5850W        W21924   4.789  17.131  12.678 -0.0204 -0.1845 -0.2687
 5851W        W21925   9.426   2.909  11.109 -0.1000  0.1536  0.1500
 5852W        W21926  13.831  10.272  14.516 -0.1962 -0.0796  0.3655
 5853W        W21927  11.160   1.677   4.748  0.1009 -0.1893  0.1385
 5854W        W21928   7.694   5.449   6.424 -0.1886 -0.0284  0.1469
 5855W        W21929   7.575  13.826   4.265 -0.0139  0.2403 -0.0610
 5856W        W21930   1.696  11.859   5.039  0.1035  0.1753 -0.0339
 5857W        W21931   3.213  17.993   4.405 -0.1363 -0.1480 -0.0713
 5858W        W21932   1.105   8.698   2.098  0.0029 -0.1359 -0.2718
 5859W        W21933   5.090  18.036   0.610 -0.2635  0.1115  0.1564
 5860W        W21934   0.642   7.801   2.917  0.1099 -0.1523 -0.1007
 5861W        W21935  12.986  16.840   0.584 -0.0086 -0.1755  0.1731
 5862W        W21936  18.178   8.150  12.129 -0.1435  0.1732 -0.1327
 5863W        W21937   4.017  14.152  12.194 -0.2551 -0.1161 -0.0881
 5864W        W21938   0.149   7.384  15.220  0.0997 -0.5212  0.0371
 5865W        W21939  18.060  11.428   4.842  0.0341 -0.1215  0.0845
 5866W        W21940   3.348  11.594   3.843 -0.1806  0.2269  0.3884
 5867W        W21941   8.265  18.228   2.414  0.1804  0.1179  0.0311
 5868W        W21942  15.732  11.329   2.304 -0.3020 -0.2135 -0.2409
 5869W        W21943  12.286   1.277   4.606  0.2040  0.0399 -0.1681
 5870W        W21944   4.372   9.910   2.058 -0.1335 -0.0641  0.0632
 5871W        W21945   6.013  18.179   0.569 -0.1414 -0.2003  0.1929
 5872W        W21946  12.601  17.809   2.679 -0.1123 -0.0106 -0.1226
 5873W        W21947  17.119  16.807  14.538 -0.2087 -0.0465 -0.1325
 5874W        W21948   9.372   9.101  13.521  0.2508 -0.1186  0.1035
 5875W        W21949   6.130  15.179   3.042 -0.1919  0.3023 -0.2859
 5876W        W21950   7.361  10.480  13.997  0.0185 -0.2736 -0.0989
 5877W        W21951   4.358   3.946  13.135 -0.0999 -0.2245  0.1797
 5878W        W21952  15.164   8.645   0.184 -0.1242 -0.1428  0.1908
 5879W        W21953   1.074   1.247   4.540  0.3689  0.1368 -0.0268
 5880W        W21954   5.454  12.656   0.819  0.0478  0.0692 -0.0259
 5881W        W21955  10.770   9.338  12.700 -0.4658 -0.3248  0.0793
 5882W        W21956   3.130   5.726   0.674 -0.0534  0.0680  0.0788
 5883W        W21957  12.200   3.007  15.304  0.0127 -0.1349 -0.1907
 5884W        W21958  15.605   1.237  13.456 -0.3813 -0.2055 -0.3673
 5885W        W21959  10.690  10.023   4.985 -0.0252 -0.1841  0.0746
 5886W        W21960  14.050  16.603   5.194  0.1816 -0.0030 -0.1543
 5887W        W21961  14.170  15.824  11.826  0.0662 -0.0676 -0.0765
 5888W        W21962  13.519   7.995   3.338 -0.1245 -0.1649 -0.1651
 5889W        W21963   2.965  10.265   5.193 -0.1288  0.3825 -0.3127
 5890W        W21964   3.137   5.111   5.163  0.1705 -0.0831  0.4073
 5891W        W21965   8.223  11.212   2.447  0.3925 -0.0258 -0.0924
 5892W        W21966   0.465  16.575   3.894  0.1461 -0.4183 -0.4019
 5893W        W21967   5.920  14.411  13.457 -0.0349  0.0975 -0.2404
 5894W        W21968  17.294  16.297  11.160 -0.0144  0.2668 -0.1012
 5895W        W21969   8.791   9.297  13.745 -0.0625 -0.0167 -0.3628
 5896W        W21970  16.129   3.018  15.893 -0.1085 -0.1784  0.1656
 5897W        W21971  10.721   0.238   2.339 -0.2082  0.2807 -0.1433
 5898W        W21972   4.079  17.639  14.478  0.2119  0.0213 -0.3122
 5899W        W21973   8.204   1.971   3.640  0.1096 -0.0106 -0.1360
 5900W        W21974   8.210   2.196   5.420  0.0407  0.0193 -0.2352
 5901W        W21975   0.312  10.776   2.402 -0.0785  0.1931  0.0594
 5902W        W21976  14.761  18.134  13.292  0.0621 -0.1201  0.0579
 5903W        W21977  10.495  18.262   4.834  0.3867 -0.2251 -0.2317
 5904W        W21978  15.147   2.974  10.835  0.0168 -0.0602 -0.0692
 5905W        W21979   0.434  12.228   5.615 -0.0763 -0.3416  0.4794
 5906W        W21980   1.188   1.598  11.662 -0.0181  0.1850  0.0380
 5907W        W21981  16.414   3.904  15.093  0.1175 -0.0352 -0.1039
 5908W        W21982   1.383   7.966   2.912  0.0325  0.5698 -0.0891
 5909W        W21983  12.291   9.576   5.150  0.4206  0.0753 -0.3158
 5910W        W21984  10.539   2.691   5.068 -0.2761 -0.1587  0.2757
 5911W        W21985  16.599  10.114   4.151 -0.1059  0.0698 -0.1851
 5912W        W21986  14.635   4.057  15.661  0.1275  0.2579  0.0739
 5913W        W21987   9.641   3.798  13.316 -0.0914  0.1726  0.1058
 5914W        W21988  12.004   6.380   1.527 -0.0109 -0.0211 -0.1039
 5915W        W21989  16.831   9.878  11.774 -0.0329  0.0630 -0.0776
 5916W        W21990  15.816  16.552   3.342 -0.0918  0.0223  0.0782
 5917W        W21991   0.492  12.061   2.460 -0.2882  0.1572  0.0355
 5918W        W21992   8.157  15.777   1.707 -0.0622 -0.0590  0.0113
 5919W        W21993   0.680  10.849  15.983  0.1270 -0.1296  0.2989
 5920W        W21994   2.745   7.503   2.723 -0.1896  0.0865 -0.4239
 5921W        W21995  14.401   6.620  11.588 -0.0285  0.1316  0.2967
 5922W        W21996  14.149   5.544  12.876 -0.0092  0.1927 -0.1933
 5923W        W21997  11.980  13.239   1.162  0.1346  0.1565 -0.0555
 5924W        W21998   4.671   4.426   4.331  0.0929 -0.4038 -0.0157
 5925W        W21999  16.336  12.646   3.110 -0.3801 -0.0075  0.0618
 5926W        W22000  16.323  12.384   4.758  0.0508  0.1140  0.0152
 5927W        W22001  16.582   3.095  15.064  0.0757  0.0149 -0.1325
 5928W        W22002   6.123  15.728   1.142 -0.2221  0.0525  0.0118
 5929W        W22003  18.171   9.466  15.027  0.1714 -0.1258  0.1874
 5930W        W22004  15.837   0.631   3.304  0.6064  0.0900 -0.1026
 5931W        W22005   6.143   8.938   2.611 -0.1103 -0.1880  0.0658
 5932W        W22006   0.043   9.506   2.742  0.3372 -0.2182  0.2349
 5933W        W22007   6.841   7.802  14.437  0.0453  0.1985 -0.1302
 5934W        W22008  16.469  10.428   1.693 -0.1536 -0.0577  0.0213
 5935W        W22009   6.471   4.390  12.678  0.1879  0.1580 -0.0365
 5936W        W22010  12.270  14.300   0.288  0.0694  0.1447  0.4422
 5937W        W22011   8.620  12.311  15.753 -0.2577 -0.0075  0.1552
 5938W        W22012   7.176  14.602  11.010 -0.1533  0.0280  0.0278
 5939W        W22013   8.495  16.419  14.009 -0.3462  0.0162  0.0980
 5940W        W22014   9.923   8.138   0.168  0.2136  0.1751  0.0253
 5941W        W22015  17.327   9.583   2.942 -0.0262 -0.1383 -0.1902
 5942W        W22016   1.212   9.216  15.047 -0.1672  0.3451 -0.4291
 5943W        W22017  10.270   9.019   4.498 -0.0888  0.5185 -0.1769
 5944W        W22018   7.105  16.981  11.499  0.1898 -0.0917  0.5472
 5945W        W22019   6.337   7.639   4.858 -0.2990 -0.0302  0.2540
 5946W        W22020   1.886   1.179  13.216  0.2172 -0.0656  0.1428
 5947W        W22021   1.833   7.689   4.722  0.0237  0.1518 -0.1153
 5948W        W22022  14.969  16.858   3.692  0.5084  0.3730 -0.3844
 5949W        W22023  11.837  15.095  13.574 -0.0060  0.2388  0.3093
 5950W        W22024  18.472  14.337  15.432 -0.1106 -0.1975 -0.0006
 5951W        W22025   5.501  10.017   1.739 -0.0329  0.0047 -0.0202
 5952W        W22026   6.130  12.301   2.351  0.2145 -0.2194 -0.1691
 5953W        W22027   9.956  14.009  11.642  0.1136  0.1773 -0.1358
 5954W        W22028  10.338  13.028   0.520 -0.0900  0.3486  0.2208
 5955W        W22029  10.168   8.297  15.327 -0.1435 -0.2690  0.1497
 5956W        W22030  11.220  11.562   2.557  0.3106 -0.1097  0.3196
 5957W        W22031   0.875  13.355   3.806  0.0852  0.0476  0.0750
 5958W        W22032   4.623   6.997   2.813 -0.2319 -0.0722  0.1274
 5959W        W22033   7.249   7.601   2.932  0.3403  0.0549 -0.4622
 5960W        W22034   5.942   1.091  13.545  0.0376  0.3713  0.3235
 5961W        W22035  18.156   8.524   5.517 -0.1881 -0.0467  0.0787
 5962W        W22036   5.503   9.823  15.963 -0.1127  0.0995  0.2781
 5963W        W22037   1.178  14.539   1.376  0.1786 -0.0371 -0.0070
 5964W        W22038   5.623  17.302  13.503 -0.0963  0.2405 -0.0776
 5965W        W22039   0.324   9.658  11.298  0.0058  0.3114  0.0743
 5966W        W22040  12.316  11.659  11.750 -0.0774 -0.1630 -0.2774
 5967W        W22041   7.063  18.350   4.243  0.0116  0.0281 -0.0308
 5968W        W22042  15.067  15.535   1.780 -0.1620 -0.0089 -0.0987
 5969W        W22043  15.817  14.803  13.467 -0.0170 -0.4093  0.0138
 5970W        W22044   7.178  17.259  15.474  0.0572 -0.2590 -0.1189
 5971W        W22045   3.400   8.808  15.873  0.0679  0.2019 -0.1169
 5972W        W22046  17.235  14.735   4.397 -0.1039 -0.1487 -0.0821
 5973W        W22047  11.852  12.181  13.855 -0.1427  0.0165 -0.3303
 5974W        W22048   8.856  16.424  14.340 -0.2650 -0.0601 -0.0708
 5975W        W22049   4.998   9.487   1.243 -0.1915 -0.1491 -0.1223
 5976W        W22050  14.374  17.872   3.786  0.1543 -0.1264  0.2583
 5977W        W22051   5.806   3.483   0.177 -0.0112 -0.0721 -0.0064
 5978W        W22052   6.160   9.881   2.471  0.2374 -0.2095  0.4381
 5979W        W22053   9.391  16.898   3.009 -0.1853 -0.1097 -0.0227
 5980W        W22054   7.788  17.199   2.865  0.2471  0.1974 -0.2019
 5981W        W22055   3.565   5.036   4.848 -0.1401 -0.1904  0.1645
 5982W        W22056   4.019   3.718  14.692  0.1105  0.3444  0.1967
 5983W        W22057   5.351   1.176   3.115  0.0224 -0.2033 -0.0004
 5984W        W22058   4.100  11.052   3.955  0.1368 -0.0122 -0.0234
 5985W        W22059  14.703   6.764   4.677 -0.3059  0.0542  0.0134
 5986W        W22060  16.473  11.783  12.241 -0.0853  0.1270  0.3144
 5987W        W22061  16.221   7.200   5.488 -0.4380  0.0744  0.0560
 5988W        W22062   5.044  10.598   2.172  0.0985 -0.1941  0.0344
 5989W        W22063   8.260  16.600   0.696 -0.3880  0.1669  0.3527
 5990W        W22064   5.026   3.191  11.043  0.1416  0.0855 -0.2164
 5991W        W22065  10.016   0.920   4.749 -0.2182 -0.2636 -0.1768
 5992W        W22066   1.791   3.091  15.063 -0.0268  0.0885  0.1658
 5993W        W22067   8.351   6.812   5.305 -0.1103 -0.1393 -0.0279
 5994W        W22068   0.696  16.245  11.704 -0.2693 -0.0084  0.1018
 5995W        W22069  14.420   7.578   4.467 -0.1364 -0.0463 -0.1365
 5996W        W22070  15.486  17.120  15.665 -0.0244 -0.2021 -0.0443
 5997W        W22071  11.585   1.855  14.604  0.4665 -0.3740 -0.0139
 5998W        W22072  10.748   3.935  11.644  0.1180  0.0765 -0.0725
 5999W        W22073  11.238   7.425  14.669 -0.0001 -0.0684  0.0058
 6000W        W22074   0.880   9.624  11.515 -0.0819 -0.0213 -0.1806
 6001W        W22075   3.291  10.475  12.326 -0.1092 -0.0125  0.1798
 6002W        W22076   6.567   2.955  14.194  0.2388 -0.1384 -0.1460
 6003W        W22077  15.378   4.377   0.743 -0.2395 -0.1008  0.2615
 6004W        W22078  14.750   1.179  10.374 -0.3295  0.3026  0.2587
 6005W        W22079  12.831   8.489   0.008 -0.1251  0.0457 -0.1136
 6006W        W22080  14.499  11.117   5.682 -0.1618  0.0163  0.1654
 6007W        W22081  12.062  11.371   0.393 -0.1335 -0.1778 -0.1357
 6008W        W22082   9.755   3.079   4.222  0.2911  0.0440 -0.1325
 6009W        W22083   6.724  13.979   2.045  0.0068 -0.0663 -0.1507
 6010W        W22084   4.796  17.819   3.253 -0.2432  0.0457  0.1656
 6011W        W22085  14.662  16.295  11.165 -0.2918  0.3995  0.0992
 6012W        W22086   2.281   0.780   0.724 -0.0199 -0.1501 -0.0726
 6013W        W22087   5.191   0.915  12.133  0.0375 -0.1421  0.1787
 6014W        W22088  11.808  12.358  11.114 -0.0139  0.1309 -0.0064
 6015W        W22089  12.449   3.642   3.224  0.2071 -0.1324 -0.3381
 6016W        W22090  17.444  13.820  11.798  0.0975  0.1368 -0.3249
 6017W        W22091   5.393   2.029  13.781  0.0179  0.3028  0.1941
 6018W        W22092   7.709  11.637  15.658 -0.1555  0.1863  0.2909
 6019W        W22093  11.095   4.316  14.046 -0.1208 -0.1888 -0.0455
 6020W        W22094   3.721   6.700  13.047  0.1794 -0.2940  0.0085
 6021W        W22095  11.368  10.381   3.878  0.2384 -0.0162 -0.1678
 6022W        W22096   3.513  18.330   4.069  0.0421  0.1828 -0.3401
 6023W        W22097   3.961   7.455   3.527  0.0613  0.0174 -0.0476
 6024W        W22098  16.416   3.028   4.851 -0.1474  0.0263  0.0489
 6025W        W22099  15.318  13.884  12.292 -0.3325 -0.1064  0.1771
 6026W        W22100  14.333   4.790   2.928 -0.0315 -0.0176  0.2608
 6027W        W22101  15.650  16.128   5.394  0.1394  0.0510 -0.0371
 6028W        W22102  16.200  16.469  15.344 -0.3083 -0.0549  0.4553
 6029W        W22103   2.011  10.707  15.900 -0.0298  0.0702 -0.1924
 6030W        W22104  10.129   1.536   3.900  0.1318 -0.0958 -0.0610
 6031W        W22105   6.038   7.479  14.987  0.2878  0.3497 -0.0397
 6032W        W22106  17.423  13.207   2.964 -0.0116 -0.1519  0.2228
 6033W        W22107  17.267  14.596   3.324 -0.1877 -0.2843 -0.1915
 6034W        W22108  13.488   4.127   0.366 -0.2536 -0.1236  0.3218
 6035W        W22109   1.991  13.280  13.493 -0.0771  0.2977 -0.1645
 6036W        W22110  15.772   1.961   0.569  0.1802 -0.2743  0.0288
 6037W        W22111   8.183  13.978  14.790 -0.1812 -0.1138  0.2191
 6038W        W22112   0.607  16.466  12.459  0.0760 -0.1096 -0.1673
 6039W        W22113  11.611   5.721  13.207 -0.0935  0.0003  0.0642
 6040W        W22114  12.865  10.108   6.251 -0.0654 -0.3888 -0.2052
 6041W        W22115   4.725  15.827  12.699  0.1423 -0.4176  0.2145
 6042W        W22116   1.452   8.931  11.905 -0.1437  0.2081 -0.0870
 6043W        W22117   4.860  16.548  14.497  0.0043 -0.0965 -0.0207
 6044W        W22118  11.306  13.929  10.106 -0.0829 -0.0191  0.0430
 6045W        W22119  10.314   7.841  15.591 -0.0824  0.0454  0.1021
 6046W        W22120   5.339   5.866   4.779 -0.0885  0.2066 -0.0229
 6047W        W22121   6.781   4.760   0.210  0.0463 -0.0606 -0.3690
 6048W        W22122  11.539  16.788   0.861 -0.2993  0.3989 -0.2780
 6049W        W22123   2.699  17.913   5.504 -0.0236 -0.2845 -0.2543
 6050W        W22124  15.065   1.521   4.959  0.2155  0.1740  0.0398
 6051W        W22125  17.063   7.836   2.440  0.0869  0.0687  0.1208
 6052W        W22126   7.331  10.063   1.552 -0.0727 -0.0673 -0.1187
 6053W        W22127  18.454  15.790  14.437 -0.1837 -0.0195  0.1559
 6054W        W22128  12.659   9.018  16.016 -0.1835 -0.3094  0.1820
 6055W        W22129  13.591   8.404  15.479  0.0733 -0.1415 -0.4226
 6056W        W22130  16.787  13.724   1.802 -0.1854 -0.3011 -0.0648
 6057W        W22131  12.677   7.407  14.227 -0.2734 -0.1603  0.2987
 6058W        W22132   2.418   4.077   5.061  0.0813 -0.0541  0.0023
 6059W        W22133  13.038  18.424   4.940  0.2161  0.0662 -0.0124
 6060W        W22134   5.794  15.249  13.003  0.1769  0.3268  0.0931
 6061W        W22135  12.371   8.352  14.456  0.0940  0.0028  0.1546
 6062W        W22136   8.395   3.845   1.807  0.0010 -0.0607 -0.1778
 6063W        W22137   7.635   4.321  15.906 -0.3429 -0.1126  0.3738
 6064W        W22138   2.754   5.473  15.143  0.1585 -0.1682  0.2388
 6065W        W22139  12.308  10.013  15.235  0.1423  0.0944  0.0738
 6066W        W22140  11.957   7.901   5.607 -0.1743  0.2072  0.1851
 6067W        W22141  14.028   0.188  13.809  0.2467 -0.0402 -0.0509
 6068W        W22142   3.756   8.431  13.277 -0.0985  0.1313  0.0690
 6069W        W22143   3.279   7.233   0.624 -0.2071 -0.2979  0.0603
 6070W        W22144   6.865   1.253   4.783 -0.3185 -0.3126  0.1931
 6071W        W22145   9.005  18.006  11.457 -0.0781 -0.2792 -0.2868
 6072W        W22146  10.207  11.448  12.927 -0.2259  0.1989  0.2787
 6073W        W22147   4.480   0.981   3.144  0.4130 -0.1353  0.1461
 6074W        W22148  13.264  12.251   2.787 -0.2029 -0.0290  0.0768
 6075W        W22149   2.092   1.562  11.628  0.0648 -0.1857  0.2689
 6076W        W22150   5.767  13.563   5.085 -0.0743 -0.0958  0.0342
 6077W        W22151   6.265  10.376   5.728 -0.0612  0.3571 -0.1318
 6078W        W22152   8.459  15.494  14.292  0.0973 -0.0822 -0.2494
 6079W        W22153  14.885   0.918   1.813 -0.1153 -0.1696  0.1786
 6080W        W22154   3.114   4.267   3.734 -0.2232  0.0467 -0.0448
 6081W        W22155   3.475  10.790  12.977 -0.0878 -0.0326  0.1115
 6082W        W22156   3.806  16.268  14.266 -0.1574 -0.1390 -0.2724
 6083W        W22157  10.802  16.737  14.752  0.1579  0.3229  0.1150
 6084W        W22158   2.296  15.255  11.177  0.0944 -0.0583  0.1121
 6085W        W22159  16.735  15.364  12.562 -0.0640 -0.0581  0.0178
 6086W        W22160  13.962  13.230   9.954 -0.1832  0.1396 -0.0255
 6087W        W22161   5.426   2.657   4.733  0.0709  0.1189 -0.1389
 6088W        W22162   9.691  13.001   2.610  0.0509  0.2369 -0.1919
 6089W        W22163   9.293  14.688  11.109 -0.1860  0.1450 -0.0381
 6090W        W22164  17.180   4.831   1.286  0.1248  0.3382  0.3943
 6091W        W22165   2.430  11.071   5.880  0.1633 -0.0747  0.3212
 6092W        W22166   5.356   6.955   3.565 -0.2478  0.0938 -0.2550
 6093W        W22167  11.991   5.223   4.032  0.5473 -0.2515  0.3158
 6094W        W22168  17.637   3.301   4.515 -0.4555  0.0093 -0.2996
 6095W        W22169   5.215  15.514   5.888  0.1672 -0.1766  0.0490
 6096W        W22170  15.676   1.995  10.760 -0.0857  0.3841 -0.1225
 6097W        W22171   7.304  14.084  15.118 -0.0405  0.3337 -0.4142
 6098W        W22172  13.329   3.095  14.565 -0.2117 -0.2486  0.0981
 6099W        W22173   7.621   1.170   5.285  0.1392 -0.0420  0.1747
 6100W        W22174  12.964  14.607  12.796 -0.2685 -0.2193 -0.0836
 6101W        W22175   7.837  10.961   9.953  0.1136  0.1509 -0.0743
 6102W        W22176   5.397  12.675   2.308 -0.2546 -0.2720 -0.3367
 6103W        W22177   3.572  12.391  14.137 -0.3592  0.2018 -0.2779
 6104W        W22178   3.872   4.628  11.557  0.0314  0.0678  0.0710
 6105W        W22179   1.447   5.422  15.681  0.3020 -0.3043 -0.0344
 6106W        W22180   9.229   6.151   1.123  0.0844 -0.0339  0.0038
 6107W        W22181   9.098  16.304   0.513 -0.3002  0.0960 -0.0458
 6108W        W22182  10.369  12.090   1.306 -0.1256 -0.2414 -0.1905
 6109W        W22183   5.324  10.939   0.180 -0.1247  0.1201  0.3022
 6110W        W22184  11.329  13.352   3.064 -0.2738  0.2159  0.1072
 6111W        W22185  14.652   5.239   1.107 -0.2296  0.1535 -0.3077
 6112W        W22186   5.774  14.662   0.154 -0.3595  0.0035  0.4222
 6113W        W22187  12.560  14.349  12.636  0.0599  0.0991 -0.0057
 6114W        W22188   7.447   9.393   1.043  0.1717 -0.0302  0.1690
 6115W        W22189  17.988  17.050   3.818 -0.0207 -0.2113 -0.0263
 6116W        W22190  11.864   1.795   5.345  0.3041  0.1247  0.2124
 6117W        W22191  12.219   1.224   3.135  0.2453 -0.1903  0.0905
 6118W        W22192   0.460   5.732   0.101  0.1469  0.1964  0.2363
 6119W        W22193   7.807  12.578   0.062  0.1188 -0.1052 -0.3316
 6120W        W22194  17.575   7.400  14.104  0.1920  0.1064 -0.3204
 6121W        W22195   8.835   7.865  13.173 -0.2132 -0.1036  0.1965
 6122W        W22196   0.752   7.226   5.431 -0.1704  0.3602 -0.2415
 6123W        W22197  15.122   0.531   3.883 -0.1159  0.0384  0.0118
 6124W        W22198  17.270  14.494  11.469  0.1137 -0.1741  0.1483
 6125W        W22199  12.983  13.933   4.442  0.3310  0.3545 -0.1949
 6126W        W22200   3.948  11.332  15.759  0.1830 -0.0910 -0.2274
 6127W        W22201   6.923  18.474   3.380 -0.0797 -0.0962 -0.0525
 6128W        W22202  13.035  12.291   5.310  0.0152 -0.0162 -0.1122
 6129W        W22203  16.535  10.379  15.837  0.0218  0.0763 -0.0654
 6130W        W22204   8.838  12.753  15.759 -0.0629  0.0135  0.2000
 6131W        W22205   8.487   6.630   0.781  0.0607  0.4354 -0.0707
 6132W        W22206  10.279   3.508   5.197  0.0213  0.1250  0.0081
 6133W        W22207  18.256   7.838  12.516  0.0453  0.0774 -0.0455
 6134W        W22208  16.586   4.674  14.104 -0.0403 -0.0530  0.3707
 6135W        W22209  17.640  14.679  13.168 -0.4253  0.0166  0.3057
 6136W        W22210  15.002   3.217   0.779  0.0674 -0.2125 -0.4593
 6137W        W22211  16.907  17.514  13.347  0.1553  0.1590 -0.0088
 6138W        W22212   4.515  16.807  15.801  0.0436 -0.2377  0.1198
 6139W        W22213   9.663   2.045   3.463  0.0470  0.2273 -0.1349
 6140W        W22214   0.423   9.862   5.063  0.0675  0.0067  0.2538
 6141W        W22215  17.778   0.084   4.397 -0.0544 -0.1210  0.2965
 6142W        W22216  18.151   9.905   1.936  0.0833 -0.0414 -0.0188
 6143W        W22217   9.084   8.135  15.064 -0.2009  0.0024  0.0456
 6144W        W22218   8.085  15.082   4.138 -0.1056 -0.0958 -0.0297
 6145W        W22219   2.086  11.759  11.759  0.0821  0.3031 -0.3268
 6146W        W22220   8.087  12.234   0.326 -0.0495  0.3437  0.1627
 6147W        W22221   5.925   6.043   5.019  0.0575 -0.0369  0.1307
 6148W        W22222   8.721  16.107   4.110  0.1065  0.0453 -0.2361
 6149W        W22223   0.266  11.663   2.282 -0.2169  0.1213  0.0940
 6150W        W22224   6.539   0.043   1.468  0.2105 -0.1485  0.2508
 6151W        W22225  12.730   3.841  14.972  0.0370  0.1183  0.2489
 6152W        W22226   2.898   5.428  13.100  0.2072 -0.0422  0.3052
 6153W        W22227   2.399  10.505   3.216  0.1162  0.1719  0.0433
 6154W        W22228  16.138   2.013  13.537 -0.0292  0.2162 -0.0642
 6155W        W22229   6.557  14.781  15.586 -0.1246 -0.3832 -0.4450
 6156W        W22230   9.835  17.102   3.225 -0.1161  0.0524 -0.2428
 6157W        W22231   2.804   3.344   3.729 -0.3066  0.0822 -0.1589
 6158W        W22232  11.930   1.779  14.174  0.1115  0.2415  0.2437
 6159W        W22233   7.324   1.734   3.371  0.1446 -0.0722  0.3796
 6160W        W22234   3.804  11.770   4.561  0.1285 -0.0921 -0.1415
 6161W        W22235  15.293   1.585   4.524 -0.0191 -0.0520 -0.3054
 6162W        W22236   1.993  16.865   4.737  0.0962  0.1051 -0.1117
 6163W        W22237   8.839   7.133   2.830  0.3045 -0.0183 -0.2260
 6164W        W22238  12.640   1.905   0.598  0.1850 -0.1023  0.1314
 6165W        W22239   6.348  13.622  14.459 -0.0560  0.1095  0.1318
 6166W        W22240   2.183  15.408  14.499 -0.0932  0.0109 -0.1653
 6167W        W22241   5.468   2.652  15.570 -0.0277 -0.2453  0.2499
 6168W        W22242  11.056   6.739   1.878 -0.0105  0.0638 -0.1454
 6169W        W22243   9.222   7.800   0.660  0.0556  0.1394  0.0638
 6170W        W22244   5.443  14.270  15.856  0.3696 -0.0153  0.0165
 6171W        W22245  12.130   6.501   3.347 -0.1279 -0.0665 -0.2312
 6172W        W22246   6.898  14.725  13.086 -0.0629  0.2031  0.1399
 6173W        W22247  17.114   0.795  13.483  0.0852  0.0887  0.3773
 6174W        W22248   0.299   2.140   0.194  0.0214 -0.0605  0.2552
 6175W        W22249   8.219  17.390   2.581 -0.1887 -0.1294 -0.0749
 6176W        W22250  14.334   4.777   3.859  0.0673  0.1919 -0.2333
 6177W        W22251  15.150  10.676  11.376  0.0664  0.0227  0.2465
 6178W        W22252  10.396   2.952   1.310 -0.1699 -0.1234  0.0701
 6179W        W22253  13.819   0.492   3.116  0.2437  0.1605  0.2044
 6180W        W22254  14.632   4.738   3.389 -0.0065 -0.0929  0.3154
 6181W        W22255  12.505  14.693   2.810 -0.0441 -0.1335  0.0931
 6182W        W22256   3.656   5.847  15.204  0.1248 -0.0004  0.1437
 6183W        W22257   4.235  11.948   0.927 -0.0145  0.0256 -0.2016
 6184W        W22258   2.066  14.452   4.680 -0.0155  0.0086  0.1236
 6185W        W22259  17.036  11.038   2.895  0.1765  0.2476 -0.1762
 6186W        W22260  12.528   7.743   5.267 -0.0520  0.0633 -0.2506
 6187W        W22261  17.755  13.186  13.718 -0.0495 -0.3025  0.0193
 6188W        W22262   6.035   2.709   1.379 -0.2929  0.1106  0.1473
 6189W        W22263   3.665  11.703  12.894 -0.1991  0.0317  0.0131
 6190W        W22264  11.542   2.429   1.296 -0.0497  0.0180 -0.3780
 6191W        W22265  15.473   1.370  11.662  0.0010  0.0414 -0.1593
 6192W        W22266   6.092   5.703  13.175  0.0423 -0.1644 -0.0787
 6193W        W22267  14.032  12.765  13.082  0.2944  0.3212 -0.0024
 6194W        W22268   8.507  11.341   0.696  0.1037  0.0881  0.1520
 6195W        W22269  13.180   2.383  14.436  0.2593 -0.3087 -0.0703
 6196W        W22270  12.369  17.939   3.695 -0.3684  0.0519  0.0046
 6197W        W22271   9.785   3.697  11.510  0.1737  0.1553  0.2009
 6198W        W22272  10.549   1.622  12.309  0.2533  0.0493 -0.3176
 6199W        W22273   7.315   3.801   1.582  0.1004 -0.1568 -0.1437
 6200W        W22274   0.269  12.120   4.287  0.0138  0.1708  0.3309
 6201W        W22275   8.299   0.130  14.029 -0.2241  0.0549 -0.1187
 6202W        W22276   9.466   2.837   0.094 -0.1621  0.3036 -0.2240
 6203W        W22277   5.470  12.830  15.031 -0.0356 -0.0095 -0.4169
 6204W        W22278  12.212  15.372   0.076  0.0835 -0.1893  0.1164
 6205W        W22279   9.108   6.108   4.484 -0.1611  0.1260  0.4960
 6206W        W22280  13.638   5.442  14.233 -0.2603 -0.2644 -0.0419
 6207W        W22281   6.163   3.004  14.537 -0.0880 -0.2402 -0.0275
 6208W        W22282   8.381   9.492  14.046 -0.0407 -0.0138  0.1217
 6209W        W22283   2.270   4.978  15.212 -0.1657 -0.3124 -0.0809
 6210W        W22284   0.860   4.205   0.165  0.2209  0.1296 -0.2732
 6211W        W22285   6.744   6.783  14.070  0.2222  0.2284  0.0080
 6212W        W22286  12.091  11.709  13.813  0.2057  0.0943  0.1186
 6213W        W22287   8.066   6.696  14.695 -0.3654  0.0906  0.0882
 6214W        W22288   7.134  11.011  11.663  0.0338  0.3591 -0.2171
 6215W        W22289  15.070   7.927  12.098 -0.2550 -0.2338  0.0185
 6216W        W22290   5.139  17.181  11.126  0.1347  0.1795  0.0645
 6217W        W22291   1.105  17.202  15.821  0.1633 -0.1224 -0.2806
 6218W        W22292  10.757   3.941  10.824 -0.0172 -0.0003  0.4010
 6219W        W22293  17.970   6.656   1.363  0.0706  0.0770 -0.0086
 6220W        W22294  18.133  15.554  13.191  0.0489 -0.4340 -0.0378
 6221W        W22295   7.853   5.864  11.737 -0.1119  0.0683 -0.1120
 6222W        W22296  11.146  15.033   0.499  0.0975  0.3099 -0.2601
 6223W        W22297  10.859  10.225  13.534  0.1369  0.2909  0.1605
 6224W        W22298  14.537  13.883  15.026  0.1587 -0.0289  0.2724
 6225W        W22299   9.130  14.296   1.071 -0.1047 -0.1031  0.2024
 6226W        W22300  18.565  12.642   5.035 -0.1809 -0.0992  0.1952
 6227W        W22301  10.106  15.692  15.720 -0.1786  0.2053  0.2302
 6228W        W22302   3.191  15.091   4.573 -0.3045  0.0215 -0.0432
 6229W        W22303   2.160  15.524  10.757  0.1824 -0.1550 -0.1257
 6230W        W22304  14.724  11.002  11.428 -0.0509 -0.1845 -0.1100
 6231W        W22305  14.116   5.453   0.052 -0.0243  0.2927  0.3443
 6232W        W22306  10.225   6.787   0.648  0.1593  0.2606 -0.0269
 6233W        W22307   4.297  14.394   5.906  0.2532 -0.2546  0.0598
 6234W        W22308  10.504  12.872  11.566 -0.1670  0.0828 -0.4017
 6235W        W22309  12.377  17.587   5.016  0.0879 -0.0102 -0.2762
 6236W        W22310  11.524   7.085  11.731  0.0284 -0.0064 -0.0305
 6237W        W22311   5.235   7.793   0.269  0.0878 -0.0187 -0.1784
 6238W        W22312   2.513   9.705   2.490  0.0377  0.0236 -0.2984
 6239W        W22313  10.832  13.244   0.238  0.1257 -0.0472 -0.0501
 6240W        W22314  14.348  14.531   1.137 -0.2075  0.1442 -0.0365
 6241W        W22315  14.817  10.950   2.465 -0.0908 -0.1116  0.0331
 6242W        W22316  15.047  10.131  14.901  0.1730  0.0680  0.0416
 6243W        W22317  17.588  16.872   0.155 -0.0800 -0.0538  0.1048
 6244W        W22318   8.540  11.653   2.293 -0.1016  0.1160 -0.0432
 6245W        W22319   2.550   4.864  11.150  0.1260 -0.0263 -0.0812
 6246W        W22320  10.502   1.927   5.638 -0.0195  0.1188  0.0388
 6247W        W22321   9.207  17.920  12.020  0.0269  0.1334  0.1698
 6248W        W22322   0.948  15.605  13.477  0.0143  0.0022 -0.2013
 6249W        W22323  15.034  12.746   1.750 -0.2563 -0.0505 -0.0131
 6250W        W22324   3.982  16.670   2.400 -0.1796  0.1306  0.1248
 6251W        W22325  16.480   3.069  10.984  0.0185 -0.3173  0.0784
 6252W        W22326   8.486   9.717  12.933 -0.0336 -0.1814  0.2440
 6253W        W22327  15.106  14.196   1.680 -0.0747 -0.0194 -0.2346
 6254W        W22328   0.346  17.035  14.055 -0.3135 -0.1568 -0.0164
 6255W        W22329   6.576  17.208   0.542 -0.1218 -0.0237  0.1386
 6256W        W22330  12.109  14.567  15.311  0.3122 -0.1191 -0.1657
 6257W        W22331   6.543   1.656   0.421 -0.3172 -0.3498  0.1554
 6258W        W22332   6.362   6.188  14.035 -0.2581 -0.3284 -0.0752
 6259W        W22333  10.506   7.772  12.668 -0.2001 -0.2245 -0.2550
 6260W        W22334   6.971   0.913  14.692 -0.0763  0.1035  0.0769
 6261W        W22335  10.142   8.255  13.477 -0.4002  0.1108  0.1561
 6262W        W22336  14.443  17.189  11.176 -0.0153  0.0431  0.2275
 6263W        W22337   4.546  17.791   1.178 -0.1253  0.1190  0.0255
 6264W        W22338   2.510   2.899   0.638 -0.0276  0.4651 -0.0334
 6265W        W22339   6.871   2.133  15.692  0.2297  0.0214 -0.1627
 6266W        W22340   5.803   1.526   0.931 -0.1729  0.0730  0.0628
 6267W        W22341  12.456  14.440   5.327 -0.3595 -0.0445 -0.5584
 6268W        W22342   1.094  16.532  12.546  0.2018 -0.3077 -0.2452
 6269W        W22343  11.150  16.357  13.051  0.3291 -0.2269 -0.0255
 6270W        W22344   7.567   8.160   3.617  0.2052  0.5398  0.3960
 6271W        W22345   1.016  13.561   4.259  0.1178  0.1529  0.2051
 6272W        W22346  13.961  16.867   3.889  0.2583  0.2156  0.1266
 6273W        W22347   3.812  10.340  10.831  0.0978  0.0355  0.0502
 6274W        W22348   7.501   3.300   0.448 -0.1508  0.1624 -0.0327
 6275W        W22349   3.099  16.047   2.055 -0.0125  0.2069  0.0919
 6276W        W22350  13.268   7.543  15.131  0.2183  0.1159  0.1473
 6277W        W22351  15.140  10.733  13.336  0.0974 -0.1263 -0.1745
 6278W        W22352   9.233  12.064  13.892 -0.1236 -0.1236 -0.1253
 6279W        W22353   6.744   3.302  13.838 -0.0239 -0.0658  0.4993
 6280W        W22354  11.051   3.151   0.779 -0.1071 -0.0548  0.2899
 6281W        W22355   2.423   0.445  12.803  0.2640  0.0036  0.0693
 6282W        W22356  16.561  11.251  12.833 -0.0037  0.1903  0.1398
 6283W        W22357  14.569   0.647   5.312 -0.3053  0.0429 -0.2936
 6284W        W22358  14.359   6.992   1.859 -0.0337 -0.2558  0.0564
 6285W        W22359  18.561  13.859  14.882  0.0096 -0.0301  0.0815
 6286W        W22360   2.220  16.332   0.340 -0.2016  0.0863 -0.1301
 6287W        W22361   8.841  12.367   1.981  0.1843 -0.0720 -0.0758
 6288W        W22362   1.551   7.018  13.798 -0.0600 -0.0592  0.2037
 6289W        W22363  11.924  14.692  11.387  0.0843 -0.2009  0.1388
 6290W        W22364  12.598   8.693   2.981  0.1881  0.0930 -0.0237
 6291W        W22365   7.515   2.425  14.917 -0.0237 -0.0973 -0.5978
 6292W        W22366   8.330   8.439   1.730 -0.0483  0.2428  0.3512
 6293W        W22367  10.177   6.204  13.031 -0.3847  0.1691  0.0234
 6294W        W22368  10.200  12.337   4.402  0.0242 -0.0319  0.2017
 6295W        W22369  11.867  17.754  11.428 -0.3487 -0.1714 -0.1945
 6296W        W22370   2.512   1.564  13.933  0.1704 -0.0547  0.1358
 6297W        W22371   0.324  10.764   4.323  0.1385  0.0606 -0.2922
 6298W        W22372  15.279  18.201  15.724 -0.0793 -0.1391  0.2956
 6299W        W22373   2.859   6.683   4.386  0.0840  0.1494  0.3119
 6300W        W22374  14.762   3.891  11.539 -0.2504  0.1053  0.1061
 6301W        W22375   4.119   9.619  11.965 -0.3770 -0.0490 -0.1088
 6302W        W22376  11.208   5.179   5.243 -0.1998  0.1754 -0.2741
 6303W        W22377  12.669   5.211   0.038 -0.1688 -0.0112 -0.0676
 6304W        W22378  10.576   3.097   5.333  0.2609 -0.2365  0.1430
 6305W        W22379   5.882   5.285  14.908 -0.0427 -0.0869  0.0946
 6306W        W22380   3.288  10.575  15.020  0.0533  0.0356 -0.1002
 6307W        W22381  11.744   4.320  12.610 -0.3736  0.3719 -0.0655
 6308W        W22382  15.405   9.179   2.385  0.1457  0.1054  0.0561
 6309W        W22383   6.257  12.369  12.224  0.1281 -0.3803  0.5005
 6310W        W22384   7.799  13.968   5.141 -0.0924 -0.0728 -0.0450
 6311W        W22385   6.425  12.843   0.647 -0.1889  0.0691  0.2401
 6312W        W22386  13.661  13.733   2.462 -0.1416  0.0588 -0.0468
 6313W        W22387   0.868   1.709  12.491  0.0347  0.2174 -0.1709
 6314W        W22388   3.780   3.118  15.387 -0.2201 -0.1895  0.4856
 6315W        W22389   0.877  11.338   0.166 -0.2274  0.2105 -0.2215
 6316W        W22390  16.019   1.044  15.658  0.1719 -0.2504  0.1543
 6317W        W22391   2.047   3.032   4.675 -0.0074 -0.0655  0.0012
 6318W        W22392   3.713   2.178   5.506  0.2201  0.2240 -0.0893
 6319W        W22393  11.383   0.720  12.017  0.0540 -0.0311  0.0443
 6320W        W22394  11.244  18.388   2.366 -0.1526 -0.3936 -0.1961
 6321W        W22395   1.432   6.827   3.756 -0.0637  0.0114 -0.2713
 6322W        W22396  16.211   6.245  11.348  0.0005 -0.1483  0.0485
 6323W        W22397   0.059  15.758   3.400 -0.1786 -0.0082 -0.0509
 6324W        W22398   9.460   8.436   3.184 -0.1090 -0.2685  0.0958
 6325W        W22399   1.245   8.341   3.724 -0.2011  0.4860 -0.2784
 6326W        W22400   1.334   2.102  14.331 -0.1096  0.0968 -0.1089
 6327W        W22401  13.479  10.352   3.961  0.1454 -0.1196  0.1983
 6328W        W22402  18.319  13.114   3.214  0.0815  0.1877 -0.4031
 6329W        W22403  16.099   1.765  14.602  0.0649 -0.1521  0.0390
 6330W        W22404  14.468   9.244   0.446  0.3426  0.2769 -0.0237
 6331W        W22405   8.785   9.497   5.263  0.0900  0.3784  0.1472
 6332W        W22406   5.413  10.438  13.930  0.0736  0.0468  0.1957
 6333W        W22407  17.360  18.488   4.951 -0.2265  0.0064  0.0164
 6334W        W22408   9.485  18.278  11.840 -0.2944 -0.0235  0.0794
 6335W        W22409  17.082  17.320   2.784 -0.3381  0.1162  0.1407
 6336W        W22410   3.128   0.689  15.790  0.0321 -0.1813  0.2991
 6337W        W22411   8.266  11.711  11.261  0.1809  0.0068  0.1747
 6338W        W22412  15.348  16.076   2.633 -0.1083  0.0209  0.1951
 6339W        W22413   2.207   7.150   3.072  0.0182 -0.0534 -0.2763
 6340W        W22414   0.357   4.284   0.192 -0.0017  0.0929 -0.3222
 6341W        W22415   0.410  15.225   1.415  0.0145 -0.3035 -0.2500
 6342W        W22416  12.585  17.635   2.216  0.0020  0.0604 -0.2666
 6343W        W22417  18.430  10.249   5.139 -0.0083  0.1473  0.1152
 6344W        W22418   4.794  13.712  10.545  0.2328  0.0758 -0.0677
 6345W        W22419   2.526   4.586  13.436 -0.0886 -0.0776  0.1975
 6346W        W22420  17.236   0.422  14.094  0.1902  0.2647  0.2888
 6347W        W22421   9.892  14.763  14.932 -0.0517  0.2775  0.2276
 6348W        W22422  16.011   5.299   3.046  0.0535 -0.0355 -0.0806
 6349W        W22423   5.171   6.827   4.909  0.3409 -0.1949  0.0786
 6350W        W22424   1.280  16.889  14.924  0.0582 -0.2736  0.0986
 6351W        W22425   7.394  17.276  14.500 -0.0132  0.1312 -0.3490
 6352W        W22426  11.642  14.171   4.023 -0.1425  0.1188  0.0617
 6353W        W22427   1.062   3.758  12.946 -0.3129  0.0113  0.1317
 6354W        W22428   9.173  12.159  13.365 -0.0406  0.2833 -0.6310
 6355W        W22429   5.805   2.177  12.729 -0.1727 -0.2109 -0.0089
 6356W        W22430   0.363   1.509   1.664 -0.0042 -0.2042 -0.1773
 6357W        W22431  12.303   3.497   0.686  0.0831 -0.0248  0.1251
 6358W        W22432  14.826   0.044   9.739  0.1553 -0.2932 -0.0951
 6359W        W22433  13.061  11.365  11.553 -0.0364 -0.1651 -0.2601
 6360W        W22434   6.215  13.274  15.790  0.3144 -0.1219 -0.0773
 6361W        W22435  13.308   1.495   2.459  0.0420 -0.2381  0.1991
 6362W        W22436   1.050  13.457   3.321  0.1463  0.1650  0.2188
 6363W        W22437   4.782   8.025  15.514  0.2499  0.1298  0.6190
 6364W        W22438   4.066   4.995   2.087  0.1336 -0.0947 -0.1820
 6365W        W22439  13.307  12.872   4.765  0.0768 -0.1914 -0.0944
 6366W        W22440   3.653  12.444   4.884  0.0262  0.3189 -0.2634
 6367W        W22441   2.864  10.379   4.085  0.0511  0.0115  0.0457
 6368W        W22442   9.544  13.463  12.051  0.3751  0.0614 -0.1580
 6369W        W22443  15.437   4.651  13.484  0.0265 -0.3181 -0.3452
 6370W        W22444  17.947  17.210  10.803  0.2652 -0.0125  0.0384
 6371W        W22445   7.081   5.222   2.284  0.0867 -0.2435  0.1351
 6372W        W22446  14.032  15.334   0.185 -0.1193 -0.1490  0.1323
 6373W        W22447   1.961  13.386   0.157 -0.0387 -0.0191 -0.0560
 6374W        W22448   7.171   5.632   1.249  0.2101  0.0192  0.2280
 6375W        W22449   5.574   9.489   5.025 -0.2541  0.0049  0.2020
 6376W        W22450   9.802   1.993  11.280  0.2827  0.0080 -0.1350
 6377W        W22451   3.237   6.506  12.859  0.0429 -0.2731 -0.0446
 6378W        W22452  11.452  14.092   1.342  0.0473  0.3812 -0.1690
 6379W        W22453   8.377   2.479   3.509  0.1061 -0.0639 -0.3591
 6380W        W22454  12.247   2.504   1.727 -0.0326 -0.0389 -0.1056
 6381W        W22455   7.691   6.799  13.237 -0.1942  0.2019 -0.0436
 6382W        W22456   5.054  10.471   0.814 -0.1665 -0.0645 -0.1918
 6383W        W22457  15.130   6.461   4.531  0.1458 -0.1012 -0.0599
 6384W        W22458   3.238   4.950   3.371  0.3693  0.0137 -0.3093
 6385W        W22459   5.460   3.079   3.442  0.2637  0.1239  0.0957
 6386W        W22460   0.630   9.522   1.786  0.0223 -0.0797  0.0699
 6387W        W22461  12.188  15.053   2.499  0.0921 -0.2538  0.4181
 6388W        W22462   2.278   5.834   0.593  0.3561 -0.0454  0.1369
 6389W        W22463  16.969   5.096  11.098 -0.0100  0.4287 -0.1038
 6390W        W22464   1.395  10.612  14.923  0.1046 -0.1523 -0.0883
 6391W        W22465  11.378  17.294   4.694  0.1255  0.2170 -0.1280
 6392W        W22466  11.860   9.928  14.125  0.0679 -0.3045  0.0199
 6393W        W22467  16.330   4.946  13.259  0.1944  0.3321 -0.1039
 6394W        W22468   8.967  11.494   6.184  0.1230 -0.0586 -0.0101
 6395W        W22469   2.646  17.085  11.751 -0.1300 -0.1117 -0.1402
 6396W        W22470   7.673   5.731   1.612 -0.1970  0.0508  0.1005
 6397W        W22471  16.962  12.398   5.365 -0.1379  0.2715  0.2614
 6398W        W22472  15.697   4.051   0.411  0.0504 -0.1151  0.0461
 6399W        W22473   4.741  17.972   2.482  0.2392  0.0617 -0.0139
 6400W        W22474  16.857   9.472  12.171 -0.1386 -0.2717  0.0982
 6401W        W22475  17.871   5.965  14.866  0.1280  0.0217 -0.1144
 6402W        W22476  12.757   7.541   3.747 -0.1021  0.0373  0.0197
 6403W        W22477  14.014   0.304  10.889  0.0025 -0.1535  0.3664
 6404W        W22478   5.340   6.434   4.430 -0.0264  0.1754 -0.1545
 6405W        W22479   7.083  14.374   0.906 -0.2077  0.0447  0.3783
 6406W        W22480  12.726   5.805   3.371 -0.2024  0.0548  0.3392
 6407W        W22481  16.633   5.982  14.419  0.1128  0.1317  0.1119
 6408W        W22482   3.036  14.428   3.283 -0.2869  0.1860 -0.0857
 6409W        W22483   6.276   2.306  12.600 -0.1135 -0.0274 -0.1316
 6410W        W22484   6.887  15.960  13.172  0.0547  0.0911 -0.1861
 6411W        W22485  10.785   7.619  14.986 -0.0272 -0.1061  0.0698
 6412W        W22486   0.339  17.157  15.037 -0.1142 -0.0103 -0.1414
 6413W        W22487   2.439  10.226  13.430 -0.3385  0.0846 -0.2129
 6414W        W22488  17.924   5.961   2.062 -0.0753  0.0772 -0.0889
 6415W        W22489   9.912  17.510  13.756 -0.0351  0.2380 -0.1008
 6416W        W22490   8.179   6.355   0.089  0.0117 -0.0130 -0.0176
 6417W        W22491   6.262  12.939  13.856  0.0594  0.1412  0.0765
 6418W        W22492   0.342   5.922   4.868 -0.3554  0.0875 -0.0595
 6419W        W22493   3.965   8.030   5.359  0.5077 -0.3409 -0.0692
 6420W        W22494   3.149   7.809  12.891  0.0988 -0.0111 -0.0453
 6421W        W22495   5.960  12.672  14.157 -0.0576 -0.3153 -0.2779
 6422W        W22496   4.380   3.147   0.703 -0.4459 -0.4353  0.3121
 6423W        W22497   6.941  14.284  10.567 -0.0440 -0.1280  0.2565
 6424W        W22498   5.048   2.986   0.459 -0.0473  0.1154  0.1870
 6425W        W22499  10.775  13.833   1.998 -0.0869 -0.1470 -0.1469
 6426W        W22500   6.145   9.344   3.481  0.0861 -0.2272 -0.0089
 6427W        W22501  17.305  14.908   5.692 -0.0601 -0.1898  0.0817
 6428W        W22502  16.228  14.937  13.858 -0.1676 -0.4349  0.2055
 6429W        W22503   8.695   8.094   1.965 -0.1179 -0.0671 -0.0798
 6430W        W22504  13.429   3.628  13.486 -0.2492  0.2521  0.2205
 6431W        W22505  18.505   9.691   2.244 -0.0179  0.1597 -0.0662
 6432W        W22506   1.422   8.382   1.155 -0.1748  0.1675 -0.0145
 6433W        W22507   3.326   5.058   5.725  0.0543 -0.4263 -0.1808
 6434W        W22508  18.496  14.294  11.686  0.0166  0.3461  0.2898
 6435W        W22509   4.384  13.194  12.115  0.2529  0.0419  0.1193
 6436W        W22510  11.908   0.666  11.030  0.0269  0.0168  0.0773
 6437W        W22511  16.223   4.227  10.206  0.0755  0.2867 -0.1770
 6438W        W22512  11.031   4.739   0.879  0.0853 -0.0485 -0.0569
 6439W        W22513   3.360  17.859  10.947 -0.0914  0.3755 -0.0245
 6440W        W22514   8.756  17.015  15.184  0.1062 -0.0028  0.1323
 6441W        W22515   9.010   7.260   3.345 -0.1874  0.3283 -0.0554
 6442W        W22516   3.507  18.193  13.382 -0.0606 -0.2912  0.0059
 6443W        W22517   2.951   9.233   5.709 -0.0229 -0.1377 -0.0549
 6444W        W22518   9.745  10.885   3.944 -0.0918 -0.3016  0.0329
 6445W        W22519   6.207   7.490  14.509 -0.1558 -0.1741  0.1326
 6446W        W22520   8.028  14.808  15.732 -0.1594  0.2276 -0.0043
 6447W        W22521   9.885   2.513   2.246  0.0073 -0.0212 -0.0963
 6448W        W22522  13.076   1.624   4.735  0.0133 -0.2656 -0.1762
 6449W        W22523   6.311   2.464  14.014 -0.1573  0.0263 -0.3223
 6450W        W22524   7.966   8.333  13.070 -0.3344 -0.3591 -0.0229
 6451W        W22525   8.530   6.993   0.321 -0.1724  0.3039 -0.4189
 6452W        W22526  17.089   9.569   4.816  0.1467  0.1890 -0.0147
 6453W        W22527   8.002  12.801   5.592  0.2585  0.0977 -0.1321
 6454W        W22528   3.380   2.627   1.985  0.0563 -0.1813  0.0109
 6455W        W22529   3.764   5.601  11.191 -0.0198  0.1650 -0.0174
 6456W        W22530  18.109  11.835   2.798 -0.1606 -0.0782  0.1093
 6457W        W22531  11.408  13.385  13.593 -0.2855 -0.3135  0.1077
 6458W        W22532  11.089   3.885  15.433  0.0015  0.1512  0.1678
 6459W        W22533   9.604   8.409  15.279  0.1700  0.3466 -0.1953
 6460W        W22534   5.920   0.380  13.291 -0.1120  0.0879 -0.0669
 6461W        W22535  14.605   2.656  15.587 -0.4589  0.0006 -0.1413
 6462W        W22536   7.732   3.994   3.918  0.0047  0.2039  0.0274
 6463W        W22537  17.470  16.809  13.450 -0.3489 -0.0360 -0.0734
 6464W        W22538   9.340   4.938   0.886 -0.1567 -0.0344  0.0149
 6465W        W22539   0.364   6.995  11.983  0.0423  0.1902  0.2755
 6466W        W22540  10.005   6.869   1.304  0.1132  0.3374  0.0724
 6467W        W22541   5.726   2.222   3.375  0.1000 -0.0926 -0.0162
 6468W        W22542   4.518  10.817  15.630  0.0271 -0.1017  0.4568
 6469W        W22543  16.854  12.438  11.547  0.1253  0.3386 -0.0787
 6470W        W22544   1.438   4.089  12.996  0.0582  0.0012 -0.0719
 6471W        W22545   6.401  10.075   1.828 -0.0605 -0.0871  0.1505
 6472W        W22546  12.915   0.849   2.499  0.2730 -0.2095  0.0093
 6473W        W22547   1.715  16.604   1.559 -0.0469 -0.1793  0.0388
 6474W        W22548   9.868   4.798  12.531  0.3693  0.0774  0.2944
 6475W        W22549  12.691   2.875  15.067  0.2649  0.0457 -0.4011
 6476W        W22550   4.157   2.246   1.551 -0.0965  0.0628 -0.1026
 6477W        W22551   1.062   4.848   2.876  0.0926  0.0379  0.3456
 6478W        W22552   2.465   7.344  15.581  0.0117 -0.2893  0.0015
 6479W        W22553  16.479  10.180   2.174 -0.0934  0.0821 -0.0810
 6480W        W22554  13.036   5.062   2.034  0.1595  0.4542 -0.0054
 6481W        W22555   4.679   3.133   4.822  0.1549 -0.0975  0.3565
 6482W        W22556  17.588  14.165  14.648 -0.1778 -0.0952  0.0452
 6483W        W22557  12.492   7.252   4.999 -0.3390 -0.2080 -0.0645
 6484W        W22558   7.560   6.798  14.493  0.2738  0.1819 -0.0987
 6485W        W22559   8.836  12.339   0.951 -0.1623 -0.1789  0.4970
 6486W        W22560  16.624   3.083   0.660  0.0374 -0.0719 -0.1651
 6487W        W22561   6.135   0.142  14.106 -0.0287  0.0474 -0.0516
 6488W        W22562   1.163  11.108   1.045 -0.2515 -0.3091 -0.3167
 6489W        W22563  14.063  16.515  15.045 -0.0261 -0.3501 -0.1156
 6490W        W22564   6.474  11.074  15.401  0.0597 -0.0544  0.1543
 6491W        W22565  18.316  16.178  11.121 -0.0353 -0.1898 -0.0848
 6492W        W22566   1.694   5.358  11.314 -0.1912 -0.1278  0.1357
 6493W        W22567  18.059  16.971  14.732 -0.3088  0.1688  0.0676
 6494W        W22568   9.169   8.443   5.230  0.0740  0.0324 -0.0224
 6495W        W22569  17.047  15.787  14.574  0.3857  0.1271  0.0817
 6496W        W22570   1.269   0.375  11.205  0.0404 -0.2599  0.1686
 6497W        W22571   2.148   7.362  12.141  0.0621 -0.2579  0.0046
 6498W        W22572  11.327   4.629  13.187  0.0601 -0.1173 -0.0111
 6499W        W22573   4.223  13.509  15.751 -0.2074  0.0405 -0.1723
 6500W        W22574   9.708   1.184   3.884 -0.1120  0.1791  0.4906
 6501W        W22575   1.854  14.216  13.409  0.1217 -0.0584  0.0297
 6502W        W22576   7.076   9.865  14.340 -0.0960  0.0274  0.2294
 6503W        W22577  14.223   6.142  13.951 -0.1041  0.1157  0.1053
 6504W        W22578  11.743  10.852  13.991 -0.1358 -0.1879  0.3592
 6505W        W22579   5.456   2.647   0.016  0.0786  0.1369  0.0287
 6506W        W22580   2.538  18.364  12.199  0.2252  0.2494 -0.1097
 6507W        W22581  14.373  12.888  12.175 -0.0241  0.2480  0.4025
 6508W        W22582   6.608  17.770  12.767 -0.1519 -0.2592  0.1546
 6509W        W22583   1.089  13.465   0.561  0.2415  0.3061 -0.1162
 6510W        W22584  17.053  14.361   1.003 -0.0188  0.2497  0.3337
 6511W        W22585  13.132  12.798   3.500 -0.1175 -0.0638  0.1892
 6512W        W22586  18.310  13.783  13.575 -0.2855 -0.2145 -0.0137
 6513W        W22587   5.303   5.938  14.758  0.1598  0.3235 -0.0107
 6514W        W22588  10.929   7.520   5.449 -0.0864 -0.1330 -0.2131
 6515W        W22589  14.871  11.565   5.682 -0.3395  0.2725  0.0456
 6516W        W22590  13.987   5.162  13.303  0.0613 -0.2365 -0.1485
 6517W        W22591   5.747   3.644   1.462  0.1283  0.1329  0.2055
 6518W        W22592  14.071   9.437   5.378  0.0792  0.0420  0.3136
 6519W        W22593   6.682   0.293  10.756 -0.1185  0.0444 -0.0807
 6520W        W22594   0.751   9.966  12.441  0.1257 -0.1441  0.2641
 6521W        W22595  11.760  11.715   3.459 -0.0981  0.5644 -0.1916
 6522W        W22596  14.888  18.431  11.214 -0.3151  0.0048 -0.0998
 6523W        W22597   4.091   1.161  10.966  0.1201 -0.1061 -0.0740
 6524W        W22598   5.365   8.858  14.319 -0.0992 -0.1490  0.1955
 6525W        W22599  17.200  14.724   1.919  0.2727 -0.1970 -0.1420
 6526W        W22600   1.148   3.162   2.307 -0.0791 -0.1441 -0.0523
 6527W        W22601  15.843  16.199  15.538 -0.0088 -0.2853 -0.1210
 6528W        W22602   5.204  11.000  14.624  0.2031 -0.1020 -0.2471
 6529W        W22603  18.081   7.626  13.412 -0.3450  0.0215 -0.0829
 6530W        W22604   0.205  13.655   1.896  0.1606  0.0425  0.1830
 6531W        W22605  15.756  11.764   2.488  0.2908 -0.1943  0.0445
 6532W        W22606  13.601   2.304  15.689 -0.0855 -0.3236 -0.0277
 6533W        W22607   2.232   7.621   2.893 -0.2440  0.2315 -0.2969
 6534W        W22608   9.657   6.086  13.915  0.3321 -0.0094  0.0014
 6535W        W22609   1.006  16.984  11.367  0.3777  0.0233  0.0312
 6536W        W22610   1.629   0.965  13.808  0.0750  0.1290 -0.0146
 6537W        W22611   9.254  12.550  13.760 -0.1095  0.1590 -0.2903
 6538W        W22612   7.480  18.483  14.942  0.2268  0.0438 -0.2529
 6539W        W22613   8.090  12.905   4.258 -0.0337 -0.0084 -0.1496
 6540W        W22614  12.612   1.704  13.485 -0.1552  0.0110  0.2059
 6541W        W22615   7.452   3.568   4.170  0.1467 -0.0175  0.3330
 6542W        W22616   8.885   6.740   3.168  0.1516 -0.3689  0.0806
 6543W        W22617   7.448   0.734   1.922  0.1761  0.1070 -0.1061
 6544W        W22618   6.672  11.421   0.353 -0.0210 -0.0750  0.3833
 6545W        W22619   6.259  12.852   0.121  0.2813  0.2876  0.1677
 6546W        W22620   2.482   9.791   3.321 -0.0662  0.0645 -0.2109
 6547W        W22621  17.234  12.373   2.041 -0.0952 -0.0932 -0.0613
 6548W        W22622  17.278  17.559  12.973 -0.0481 -0.1237  0.2600
 6549W        W22623   9.746   2.436  11.163  0.1521 -0.0502 -0.0179
 6550W        W22624  18.518   1.904  13.546  0.3460  0.2540  0.1521
 6551W        W22625  14.534  16.701   5.466  0.2334  0.1178  0.0948
 6552W        W22626   1.154  16.935   0.464 -0.0465 -0.0172  0.0987
 6553W        W22627  17.504  12.919  14.153  0.1825  0.2819  0.0312
 6554W        W22628  12.899   8.196   4.010  0.3256  0.0079 -0.1922
 6555W        W22629  15.964   4.302  10.629 -0.0346 -0.0019  0.2424
 6556W        W22630   7.080   3.831   3.930 -0.0891  0.2040  0.2145
 6557W        W22631   3.231  10.091  12.080 -0.5036 -0.1221  0.0154
 6558W        W22632  17.095   6.908   0.761  0.1093 -0.1601 -0.3201
 6559W        W22633   7.505   7.535   1.873 -0.0627  0.0183  0.1709
 6560W        W22634   6.053  16.972   1.445 -0.3328  0.4287 -0.0820
 6561W        W22635   7.931   0.587   0.878 -0.0876  0.0822 -0.2216
 6562W        W22636   2.098  14.385  12.421 -0.1245 -0.5080  0.0116
 6563W        W22637  12.141   8.790  12.351  0.2629  0.2733 -0.1081
 6564W        W22638  16.202   0.607  15.743 -0.1291 -0.0042  0.0572
 6565W        W22639   1.431  10.314  13.139 -0.0758  0.0828  0.0836
 6566W        W22640   0.129  11.727  12.256  0.0717  0.0205  0.1140
 6567W        W22641  15.746  14.572   5.063 -0.1764 -0.0532  0.1163
 6568W        W22642  17.324  12.251   3.003  0.1410  0.1334 -0.3677
 6569W        W22643  14.275  12.006  12.318 -0.0143 -0.1441  0.2368
 6570W        W22644  17.920   9.923   4.853 -0.2864  0.0723  0.2484
 6571W        W22645   0.125  17.725  11.020  0.0988 -0.1141  0.0231
 6572W        W22646   3.164  11.567   2.766 -0.0136  0.1324 -0.1219
 6573W        W22647  14.237  15.945   4.482  0.1874 -0.1072  0.0304
 6574W        W22648  12.813   1.796  14.540 -0.0519 -0.0259 -0.0785
 6575W        W22649   3.226   9.177  11.108 -0.2985  0.3855 -0.0265
 6576W        W22650  18.004  10.551   1.137 -0.1431 -0.0810 -0.0144
 6577W        W22651   7.893  11.841   1.171 -0.1714 -0.0227 -0.0694
 6578W        W22652  10.520   1.948  15.616  0.0270  0.2441  0.4490
 6579W        W22653   3.837  10.511   0.311 -0.2744 -0.1436 -0.1849
 6580W        W22654  14.045  10.405   0.829 -0.1156  0.2312 -0.1881
 6581W        W22655  14.166  16.665  12.332 -0.1775  0.1254  0.1049
 6582W        W22656   3.626  17.090  11.380  0.1112 -0.1005 -0.0919
 6583W        W22657  12.379  18.235  10.619  0.0090 -0.1379  0.5066
 6584W        W22658   5.973   6.120  15.391 -0.0045 -0.0462  0.0926
 6585W        W22659   5.301   7.796  15.734 -0.1343  0.0292 -0.1934
 6586W        W22660  13.776   9.042   4.481 -0.0582 -0.0507  0.1527
 6587W        W22661   0.259  12.449   2.792 -0.1292 -0.1600 -0.0897
 6588W        W22662   8.066  13.743   4.445 -0.0760  0.0321  0.1821
 6589W        W22663   8.854  10.758  11.356  0.1661 -0.0219  0.0514
 6590W        W22664  15.607   2.702  11.573  0.3089 -0.0970 -0.1697
 6591W        W22665   1.731   6.756   3.006  0.1706  0.0882  0.1605
 6592W        W22666   8.493   5.078  10.968  0.3077  0.3172 -0.1345
 6593W        W22667  15.374  14.577   5.378  0.0733 -0.0777  0.2690
 6594W        W22668  15.000  11.605   3.216  0.1376  0.1756  0.0669
 6595W        W22669   3.018   6.546   1.390  0.1891 -0.2607  0.0031
 6596W        W22670  10.865   1.848   4.419  0.0350  0.1923 -0.1890
 6597W        W22671   0.688  16.622   1.289 -0.0333 -0.0357 -0.0768
 6598W        W22672   8.571   6.098  14.495 -0.0906 -0.1222  0.2561
 6599W        W22673  10.749   6.735   0.591  0.0601 -0.0163 -0.0036
 6600W        W22674   0.202  17.859  15.620 -0.0410  0.1027 -0.2155
 6601W        W22675   3.725  14.972   3.219  0.1766  0.3100 -0.0822
 6602W        W22676   1.643   6.518  14.658  0.0047 -0.1920 -0.1867
 6603W        W22677   9.096  15.874  13.095  0.0155  0.0315 -0.1842
 6604W        W22678  15.225  12.297  15.320 -0.2282 -0.3218  0.0915
 6605W        W22679  12.567  14.611   0.702 -0.0469 -0.1568  0.0498
 6606W        W22680   3.388  17.395   2.661 -0.0021  0.0918  0.2330
 6607W        W22681   1.535  14.505   1.721 -0.4578  0.2506  0.3978
 6608W        W22682   7.627  11.357  12.610  0.0303 -0.0699  0.1126
 6609W        W22683   9.299   9.346  15.942  0.1097  0.0916 -0.1201
 6610W        W22684   6.312   3.229   0.170  0.1388 -0.0460  0.1025
 6611W        W22685   5.771   4.383  15.798 -0.2251 -0.1221  0.3060
 6612W        W22686   8.969   9.054   5.101 -0.1751 -0.0348 -0.3163
 6613W        W22687  10.074   0.182   3.665  0.0310  0.1306  0.1724
 6614W        W22688   9.294  16.701   4.475 -0.1583  0.0190  0.0565
 6615W        W22689   0.499  11.129  11.918 -0.1372  0.1037 -0.2158
 6616W        W22690   1.350   5.859  15.304 -0.1955  0.2324  0.3816
 6617W        W22691  10.213   4.449  12.739  0.2197 -0.0692 -0.1549
 6618W        W22692   6.122   1.034  15.243 -0.0194  0.1645  0.2265
 6619W        W22693   9.994   5.105   1.597 -0.3563  0.1443 -0.2382
 6620W        W22694   8.492  15.784  12.327 -0.0773 -0.1270  0.0217
 6621W        W22695   7.153  15.439  16.011 -0.0964  0.1340  0.0891
 6622W        W22696  13.747  17.144   4.313 -0.0657  0.0231 -0.0156
 6623W        W22697   8.555   4.116  15.054 -0.1357  0.1521  0.1922
 6624W        W22698  13.238  16.634  14.118 -0.1213 -0.2002 -0.3156
 6625W        W22699  12.638   9.921  11.229 -0.1538 -0.1155  0.2788
 6626W        W22700  16.604  13.288   5.685  0.0188 -0.0630 -0.0733
 6627W        W22701   5.951  10.460  11.375  0.0446  0.2269  0.1915
 6628W        W22702   7.905   6.043  15.849 -0.0604  0.0786  0.2101
 6629W        W22703  17.487   5.866  12.229 -0.0842 -0.1270 -0.1438
 6630W        W22704   3.625  10.132  14.501 -0.5420  0.0800 -0.3996
 6631W        W22705   5.955  17.283  14.044  0.2227 -0.1969 -0.0559
 6632W        W22706   3.284  15.147  14.850 -0.0628  0.0429  0.2140
 6633W        W22707   4.754   8.558  11.899 -0.0420 -0.0266 -0.0908
 6634W        W22708  10.975  11.522   1.309 -0.0837 -0.0494  0.0078
 6635W        W22709  16.815   6.846  15.866  0.2607  0.2394  0.1166
 6636W        W22710  13.981  15.099  11.399 -0.1170 -0.1145  0.1973
 6637W        W22711   3.241   3.445  15.969 -0.2012  0.2751  0.0392
 6638W        W22712   3.033  11.436  15.899 -0.0199  0.1913  0.5894
 6639W        W22713   0.807   8.160  13.746  0.1919 -0.0030 -0.0688
 6640W        W22714  17.289   9.763  11.509 -0.0226 -0.0923  0.3286
 6641W        W22715   3.656   0.400   0.153  0.0303 -0.1733 -0.2380
 6642W        W22716  17.078  12.309  12.736 -0.1017 -0.1051 -0.2125
 6643W        W22717  11.804  12.397   1.710 -0.0287 -0.1578  0.2429
 6644W        W22718  16.362  11.028  11.326  0.1104  0.0193 -0.2255
 6645W        W22719  13.734   6.429  12.880  0.0591 -0.0552  0.2660
 6646W        W22720   9.028   1.713  13.886  0.0089  0.0452 -0.3953
 6647W        W22721   6.950  13.613  15.122 -0.3366  0.1359  0.2337
 6648W        W22722  10.625   6.557  13.087  0.4368  0.0329  0.1556
 6649W        W22723  12.832  13.932  14.983  0.2209 -0.0440 -0.2400
 6650W        W22724   3.104  11.589   4.868  0.1748 -0.1828 -0.0206
 6651W        W22725  18.063   0.436   5.923 -0.1847 -0.0381  0.0482
 6652W        W22726   0.826  18.199  12.784  0.0023 -0.0888  0.1629
 6653W        W22727  14.489   5.198   4.648 -0.3833 -0.2983 -0.0280
 6654W        W22728  12.090   7.957   5.076  0.2893 -0.0673  0.2592
 6655W        W22729   2.834  15.014   5.460  0.1597  0.1993 -0.0144
 6656W        W22730  16.509   3.327  15.665 -0.2860  0.1646 -0.0758
 6657W        W22731  10.559  10.431  14.049  0.0243  0.0932  0.2132
 6658W        W22732   7.035  12.182  14.830  0.0457 -0.0029  0.1829
 6659W        W22733   5.535  15.071   0.225  0.1672 -0.1060 -0.2182
 6660W        W22734  14.018   3.509   0.939 -0.1528 -0.0560 -0.0103
 6661W        W22735  11.362   2.445   0.433 -0.2589 -0.1917  0.0790
 6662W        W22736   9.516   7.312  14.148  0.0282  0.2775 -0.2957
 6663W        W22737   9.458   8.890   1.082 -0.2198  0.0188 -0.1395
 6664W        W22738   3.414   3.151   5.241  0.1815 -0.0081  0.2185
 6665W        W22739  11.914   4.934   0.349  0.2247  0.0433 -0.0526
 6666W        W22740  18.435   4.321   0.260  0.1075  0.0268  0.2428
 6667W        W22741   4.676   4.053  15.505 -0.0757 -0.2575  0.0291
 6668W        W22742   0.912   3.533   1.372 -0.1721 -0.1729  0.2002
 6669W        W22743   7.981  14.558   0.179  0.0380  0.0550  0.0799
 6670W        W22744   3.478  16.703  13.076 -0.0692  0.2292 -0.0790
 6671W        W22745  14.459   8.383   0.205 -0.0471  0.1024  0.2153
 6672W        W22746   6.781   3.971   3.059  0.1622  0.3675 -0.2381
 6673W        W22747  11.308  14.372   2.582 -0.0858 -0.0108 -0.0106
 6674W        W22748   9.693   6.869   0.785  0.0454 -0.0053  0.1765
 6675W        W22749  15.801  10.567   5.019 -0.0498  0.2485 -0.1277
 6676W        W22750   7.372   2.153   1.054  0.0107  0.3850  0.2787
 6677W        W22751   3.314   1.009  11.246  0.0913  0.0250 -0.0242
 6678W        W22752  17.138   5.976  13.845  0.1839 -0.0571 -0.3309
 6679W        W22753   5.102   8.485   3.395 -0.0133  0.0112  0.1742
 6680W        W22754   5.931   7.337   0.272  0.1651 -0.2587 -0.0776
 6681W        W22755   1.160  12.157   3.023  0.1385  0.3880  0.0415
 6682W        W22756  12.053  18.263  14.606 -0.0419 -0.1334  0.1289
 6683W        W22757  13.605  16.345  15.821 -0.1612  0.1929 -0.2742
 6684W        W22758  13.222   1.994  12.254  0.4151  0.2483  0.2322
 6685W        W22759  15.513   3.172   3.509  0.0156 -0.2851 -0.4626
 6686W        W22760   5.980   2.430  11.754  0.2807 -0.0897  0.3087
 6687W        W22761   3.572  12.403   3.399 -0.1104 -0.0604  0.0826
 6688W        W22762  12.222  17.368   3.989 -0.1987 -0.1884 -0.0911
 6689W        W22763   4.649   1.073  10.861  0.2674 -0.2902  0.0193
 6690W        W22764  10.673   0.207   4.564  0.1889 -0.3182  0.1442
 6691W        W22765   7.772  17.528   2.432 -0.2295 -0.1889 -0.0417
 6692W        W22766  12.652   3.562  12.147  0.0833  0.0289 -0.0155
 6693W        W22767   6.519   4.950  13.276  0.0736  0.1166 -0.1547
 6694W        W22768  14.691  15.902   1.194  0.0677  0.1662  0.1423
 6695W        W22769  11.880  13.801   2.478 -0.2998 -0.1964  0.0829
 6696W        W22770   4.579  18.072   0.649 -0.0548  0.2379 -0.0057
 6697W        W22771   4.192   0.097  10.436  0.2322 -0.1441 -0.0320
 6698W        W22772   3.790   9.677  14.545  0.2569  0.1384 -0.1179
 6699W        W22773  18.364   7.201   3.380  0.0017  0.1654  0.3192
 6700W        W22774   4.548   3.082   3.837  0.0367  0.0343 -0.1561
 6701W        W22775   1.603  12.489   0.224  0.1218  0.1414  0.0817
 6702W        W22776  11.255  12.248   2.729 -0.2747 -0.2052  0.0767
 6703W        W22777  15.751  10.380   3.149  0.0892  0.1278 -0.0881
 6704W        W22778  16.600  10.843   0.078  0.2094 -0.0249 -0.1264
 6705W        W22779  14.652   6.466   6.107 -0.0978 -0.2715 -0.1570
 6706W        W22780  12.410  12.845  11.778  0.1497  0.0884  0.0145
 6707W        W22781   4.208   9.212   4.180  0.0090 -0.0933 -0.3733
 6708W        W22782  18.338  13.379  11.963 -0.2357  0.3103  0.0662
 6709W        W22783   5.723   8.569  12.700 -0.3260  0.0043 -0.1049
 6710W        W22784  14.325  18.162   5.983  0.0707 -0.2574  0.2699
 6711W        W22785   8.617   7.884   0.710  0.2864 -0.0911  0.0752
 6712W        W22786  13.587   3.564   3.396 -0.3642 -0.0364 -0.3866
 6713W        W22787  12.142   5.497  13.893  0.2395 -0.0314 -0.0888
 6714W        W22788  10.177   1.513  14.890  0.1961  0.0272  0.2998
 6715W        W22789  10.557  10.309   1.072  0.0307 -0.2170  0.0320
 6716W        W22790  16.858  17.491  15.115  0.0477  0.5305 -0.0069
 6717W        W22791   1.829  12.879   0.472 -0.0639  0.2372  0.0287
 6718W        W22792   0.427   5.532   5.396  0.0690  0.3600 -0.0187
 6719W        W22793  17.069  16.948   4.798  0.1550 -0.0862 -0.2215
 6720W        W22794  10.760   4.781  11.791 -0.5085  0.1286  0.2449
 6721W        W22795   7.386   3.398   3.157  0.2265 -0.2175 -0.1826
 6722W        W22796  13.613   1.006   4.435 -0.2991  0.1086  0.3364
 6723W        W22797   8.376   3.939   4.633 -0.1495 -0.1670  0.2286
 6724W        W22798  15.456   2.336   1.818 -0.0885  0.1357 -0.3174
 6725W        W22799  15.167   6.466   3.530 -0.4068  0.0548 -0.2077
 6726W        W22800   0.757  14.379  14.548 -0.1420  0.3007  0.0451
 6727W        W22801   3.250  12.568   1.270  0.0043 -0.0753  0.1675
 6728W        W22802   8.176  11.444  14.607 -0.1068  0.2621 -0.3056
 6729W        W22803  16.088   3.730  12.581 -0.1871  0.0114 -0.2880
 6730W        W22804   5.266   7.611   4.292  0.2747 -0.1445 -0.0322
 6731W        W22805   6.842   7.085   1.096 -0.0987 -0.2648 -0.4489
 6732W        W22806   2.400   3.320   2.654 -0.1007  0.0319  0.2095
 6733W        W22807  15.314   4.171   4.434 -0.0566 -0.0497  0.2042
 6734W        W22808   7.221   9.511  11.559  0.0904 -0.2608 -0.2064
 6735W        W22809   3.590  10.878   5.409  0.0811  0.0468  0.1437
 6736W        W22810  11.520  14.885  11.736  0.0309 -0.2473 -0.2796
 6737W        W22811  18.077   3.522   4.688 -0.2707  0.0353  0.1308
 6738W        W22812  17.274   0.722   4.345 -0.1488 -0.0292  0.0084
 6739W        W22813  11.067  17.621   0.406 -0.1153 -0.0558  0.0832
 6740W        W22814   3.681  12.806   3.116 -0.0179 -0.0343 -0.1850
 6741W        W22815   3.070  13.956  13.634 -0.1935  0.1133 -0.4047
 6742W        W22816   4.583  10.473   2.185  0.0589 -0.1521  0.1799
 6743W        W22817   0.397   9.329  15.365 -0.1646  0.2005 -0.1337
 6744W        W22818   2.219  16.684  13.830 -0.1817  0.0479 -0.1956
 6745W        W22819   6.856   0.979  13.131 -0.2635 -0.1807 -0.0478
 6746W        W22820  14.563   9.992  11.615 -0.1270  0.1436  0.0752
 6747W        W22821   5.800   5.542   1.044 -0.2619  0.1256  0.0629
 6748W        W22822   7.965  10.390   2.884  0.1942  0.1443 -0.0769
 6749W        W22823   4.205  14.792  14.457 -0.0509 -0.3740  0.2081
 6750W        W22824   7.906   8.626   0.032 -0.4246 -0.1114 -0.1106
 6751W        W22825   6.378   0.489   2.277 -0.0852 -0.3070  0.1745
 6752W        W22826   1.549  17.785   0.887 -0.1699  0.1011  0.3520
 6753W        W22827  14.503  13.371   2.432 -0.1829  0.2593 -0.1493
 6754W        W22828   9.175   9.275  11.615 -0.0427  0.0978  0.0291
 6755W        W22829  16.882   8.266   2.840 -0.4676 -0.1408  0.0040
 6756W        W22830   7.066   4.520   5.516 -0.0128 -0.1502  0.5526
 6757W        W22831   1.229   1.191  11.241  0.1035 -0.1308  0.1862
 6758W        W22832  11.487   6.483  13.665  0.2020 -0.3084 -0.3258
 6759W        W22833  11.024   7.968  12.690  0.0241  0.2311 -0.0339
 6760W        W22834  18.515   9.617   1.015 -0.0625  0.1250  0.1953
 6761W        W22835   2.968  17.112  14.116  0.1382  0.0993 -0.1646
 6762W        W22836   7.897  10.096   1.604 -0.1751  0.2201 -0.1165
 6763W        W22837   0.435   1.988   5.862  0.1065  0.2501 -0.0805
 6764W        W22838   3.439  12.903   2.125  0.0734 -0.3074 -0.2445
 6765W        W22839  11.828   5.648   1.404  0.1819 -0.1753  0.1996
 6766W        W22840  13.159   5.927   5.519 -0.2528  0.1177  0.0151
 6767W        W22841  15.492  13.124  15.471  0.0947 -0.2581  0.0429
 6768W        W22842  14.418   0.968   3.892 -0.0596  0.1093 -0.0265
 6769W        W22843   9.813   0.319   0.878  0.0751  0.0551 -0.3410
 6770W        W22844  15.879   9.770   0.222 -0.0804 -0.2453 -0.1312
 6771W        W22845   4.817  17.658   5.904  0.0608  0.0166  0.1745
 6772W        W22846   5.033  13.125   0.681 -0.1612 -0.2090  0.4449
 6773W        W22847   0.128  10.654   4.791  0.5048  0.0186 -0.1743
 6774W        W22848  15.161  15.840   2.194 -0.1272  0.1902  0.0874
 6775W        W22849   9.011   2.474  15.802 -0.2586 -0.2897  0.3499
 6776W        W22850  12.645   9.688   0.321 -0.1870  0.0646  0.2210
 6777W        W22851  12.278   0.318   1.443 -0.1246 -0.0825 -0.0830
 6778W        W22852  11.455   4.638  12.390 -0.2871  0.1261  0.0372
 6779W        W22853  17.612   1.284   0.211  0.0595 -0.0011 -0.1550
 6780W        W22854   7.624   5.419   3.827  0.0148 -0.4219 -0.0242
 6781W        W22855   6.730  12.815   2.796 -0.0555 -0.2643  0.3437
 6782W        W22856  15.927   0.177  15.554  0.1978 -0.2240 -0.0637
 6783W        W22857  11.958   8.645   0.386 -0.1941 -0.1942 -0.0603
 6784W        W22858  15.657   8.546   3.879  0.0372  0.0854 -0.0405
 6785W        W22859  11.621   2.453  11.110  0.0588 -0.1971  0.0272
 6786W        W22860  14.186  13.228  15.812 -0.0122  0.0179 -0.1715
 6787W        W22861  11.135  17.836   5.619 -0.1191 -0.0618  0.3009
 6788W        W22862   7.110   2.350  13.468 -0.0204 -0.1958 -0.2712
 6789W        W22863  18.189   6.486   0.355 -0.0228 -0.0359  0.0879
 6790W        W22864  13.360   2.415   0.739  0.1051 -0.1110  0.0234
 6791W        W22865   0.358  16.267   0.297 -0.2497 -0.2940 -0.3717
 6792W        W22866   2.907   5.581   2.184  0.0565  0.3614  0.2038
 6793W        W22867  16.276   5.780   2.757  0.2551  0.0316  0.0121
 6794W        W22868   5.529   5.902  13.806  0.2579  0.0931  0.0055
 6795W        W22869   9.565   5.956   3.873 -0.1977 -0.1898 -0.0968
 6796W        W22870  11.931   5.392   4.509 -0.3325 -0.3475 -0.0092
 6797W        W22871  11.163   8.111  13.664 -0.0000  0.3463  0.1142
 6798W        W22872   5.449  15.279   3.998 -0.0187  0.2585 -0.2837
 6799W        W22873  16.082  17.786   0.474  0.1678 -0.1961 -0.1390
 6800W        W22874  13.513  14.281   1.032  0.1238 -0.3201 -0.0474
 6801W        W22875  14.525   6.764   2.852 -0.0091 -0.0403 -0.1123
 6802W        W22876  10.427  16.003  15.972 -0.2796 -0.1195 -0.2961
 6803W        W22877   5.357  15.251   4.576  0.0378 -0.0377 -0.1866
 6804W        W22878   3.734  12.610  11.386  0.0477  0.1682  0.0091
 6805W        W22879   9.311   6.217  11.323 -0.0486 -0.3677 -0.1876
 6806W        W22880  18.524   1.137  13.751  0.0475 -0.0622 -0.0817
 6807W        W22881   2.340   1.075   5.532  0.3187  0.0157 -0.2183
 6808W        W22882  11.894   8.375  15.955  0.6520  0.0908  0.2806
 6809W        W22883   5.351  10.389  11.473 -0.0869 -0.1432 -0.1683
 6810W        W22884  13.313   1.183   1.632  0.1684 -0.2479  0.0509
 6811W        W22885  11.874  15.551  12.326  0.0294 -0.2321  0.1079
 6812W        W22886  12.105   5.785   1.912 -0.3407 -0.0906  0.1744
 6813W        W22887   5.762   7.853   2.440 -0.3603 -0.0581  0.1588
 6814W        W22888  13.274   5.959  11.505 -0.3999 -0.5002  0.2534
 6815W        W22889   9.087  15.963  14.539 -0.2703  0.1711  0.0015
 6816W        W22890  12.278   9.338  16.004  0.4366 -0.1715 -0.1374
 6817W        W22891  13.179   4.194   3.984  0.0457  0.1860  0.1867
 6818W        W22892  13.985  16.893   3.002  0.0690  0.0773 -0.2456
 6819W        W22893  17.842  14.252  15.791 -0.2808 -0.0068  0.1558
 6820W        W22894  12.390  10.590   2.899  0.0052 -0.0131 -0.0295
 6821W        W22895   7.295   5.044  11.679  0.0383  0.0129 -0.2254
 6822W        W22896   1.934  17.800  14.711 -0.1381 -0.0419  0.1338
 6823W        W22897   5.870  16.363   6.293  0.0717 -0.1638  0.2341
 6824W        W22898   5.317   6.838  15.944  0.1206 -0.1566 -0.3575
 6825W        W22899   6.914   7.451   3.902  0.1871  0.0142  0.1166
 6826W        W22900   4.461   2.155  13.789 -0.1334  0.2599 -0.0747
 6827W        W22901  11.424   0.451  11.491  0.1778  0.1625 -0.0165
 6828W        W22902   8.728  12.002   2.632 -0.1777 -0.1928 -0.2515
 6829W        W22903   2.633  18.166   3.087 -0.2114 -0.4270  0.2999
 6830W        W22904   4.621   4.128  12.714  0.0631  0.1538 -0.0212
 6831W        W22905  17.217   8.553  14.612 -0.0402  0.3678  0.0491
 6832W        W22906  16.216  17.985  15.071  0.1621  0.1200  0.1623
 6833W        W22907  13.153  11.619   4.059 -0.1430  0.1843  0.1577
 6834W        W22908   7.701  10.959  13.891 -0.0473 -0.1274 -0.1272
 6835W        W22909   1.182   4.224   0.590 -0.1323  0.0355  0.1320
 6836W        W22910  12.776  12.060   1.073 -0.0803 -0.1311  0.0301
 6837W        W22911  11.922   7.583   0.291  0.0004  0.0935 -0.2126
 6838W        W22912  13.311   1.787   1.928  0.0521 -0.1606 -0.1543
 6839W        W22913  12.619   8.804  14.544 -0.3942 -0.0819 -0.1173
 6840W        W22914   0.010   7.480  13.547 -0.3100  0.0377 -0.2734
 6841W        W22915   3.668   9.581   1.696 -0.1828  0.0829  0.2297
 6842W        W22916  10.307   0.122   2.673 -0.1653 -0.2385  0.1577
 6843W        W22917  16.084   0.248   0.510  0.0930 -0.0147 -0.0277
 6844W        W22918  12.185   5.847  12.338  0.0766 -0.1577  0.1163
 6845W        W22919  16.379   7.513  14.752  0.2941  0.1666 -0.1433
 6846W        W22920   1.489   6.242  10.665  0.1438  0.1553 -0.3023
 6847W        W22921   1.524   4.672  14.331 -0.4262  0.0608 -0.2352
 6848W        W22922   4.951  11.072  12.011 -0.0074 -0.2358 -0.0955
 6849W        W22923   4.484  14.311  11.952 -0.0712  0.0429  0.0321
 6850W        W22924   2.539  17.795   1.594 -0.5715 -0.2008 -0.0874
 6851W        W22925  16.413  16.999   2.187  0.0201  0.2850  0.2081
 6852W        W22926   4.953  17.008  15.570  0.0845  0.1889 -0.0416
 6853W        W22927  13.431   4.700  11.244 -0.0118 -0.0354 -0.0988
 6854W        W22928   1.951   0.046   1.648 -0.0523  0.2364  0.1197
 6855W        W22929   4.846   9.939  12.014  0.0549  0.0248  0.0709
 6856W        W22930   4.218   6.906  15.059  0.0599 -0.2466 -0.0133
 6857W        W22931   1.963   4.262  13.735 -0.1484  0.1847 -0.1561
 6858W        W22932   1.344   7.840  13.470 -0.1798  0.0338 -0.1034
 6859W        W22933   9.390   8.883   5.344  0.0759  0.0277  0.0240
 6860W        W22934   2.061  17.856   2.252 -0.2651 -0.1281 -0.1889
 6861W        W22935   4.541   6.845  11.692  0.1010 -0.1658  0.0210
 6862W        W22936   7.611  11.831   3.306 -0.1429 -0.1823 -0.0628
 6863W        W22937  13.157   7.047  13.214 -0.2381  0.0519 -0.1540
 6864W        W22938   7.218   7.179   5.386  0.0662 -0.0733  0.0556
 6865W        W22939   2.129   1.157  13.787  0.0683 -0.2507 -0.2832
 6866W        W22940  18.190  16.548  11.495 -0.3686 -0.0931  0.0600
 6867W        W22941   7.044   1.401  11.103  0.1527 -0.2568 -0.1690
 6868W        W22942  11.204  10.053  14.618  0.1999 -0.1949  0.4583
 6869W        W22943  16.062  14.602   1.004 -0.1805 -0.1960 -0.1607
 6870W        W22944   3.972   4.375   1.908  0.1204  0.2001 -0.0426
 6871W        W22945   4.522   8.582   0.447 -0.2189  0.4301  0.1079
 6872W        W22946   9.127   8.252  15.593 -0.0203  0.1851 -0.2357
 6873W        W22947  14.877   3.154  11.887  0.2733 -0.3485  0.2235
 6874W        W22948   7.023   7.858   0.684  0.1273  0.0654  0.1497
 6875W        W22949   3.095   7.221  11.644 -0.0237 -0.0164 -0.1465
 6876W        W22950   7.618  15.686  14.144  0.0496  0.4075  0.0085
 6877W        W22951   2.748   7.064   4.677  0.1492 -0.2953  0.4858
 6878W        W22952   0.156   3.842  15.416  0.0540  0.2617  0.0482
 6879W        W22953  15.104  14.320  12.693 -0.4244 -0.0823  0.2751
 6880W        W22954  15.192  14.782   2.936  0.0728 -0.1068  0.0299
 6881W        W22955  16.951  15.840   2.343 -0.1546  0.3966 -0.1430
 6882W        W22956  17.116   5.595   1.515  0.0361  0.1457 -0.0282
 6883W        W22957  17.618  16.627   3.929 -0.3362 -0.0044  0.1609
 6884W        W22958   9.770   2.479   3.665 -0.0951  0.1946 -0.0599
 6885W        W22959   3.835  10.033   4.314 -0.0150  0.1769 -0.2633
 6886W        W22960  12.733  18.294   2.700  0.2388 -0.2313  0.1935
 6887W        W22961   8.141  18.251   3.070 -0.0962 -0.0053 -0.1764
 6888W        W22962  14.073   3.479   0.358  0.0808 -0.0640  0.3341
 6889W        W22963  10.836  15.948  14.765 -0.2825  0.0214 -0.0830
 6890W        W22964   3.298   1.940   0.280  0.1101  0.0969 -0.0647
 6891W        W22965  15.395  10.286   5.426 -0.2767 -0.0071  0.0661
 6892W        W22966  18.236  15.199   4.048 -0.0997 -0.0574 -0.0765
 6893W        W22967  17.845   1.802  14.090  0.2042  0.0826 -0.1940
 6894W        W22968   8.839  15.515  14.619  0.3031 -0.0812  0.1198
 6895W        W22969  12.120  11.442  11.264  0.0590  0.1368  0.1888
 6896W        W22970   9.627   8.664   1.505 -0.0016 -0.2500 -0.0723
 6897W        W22971  15.036  15.908  14.903  0.2553 -0.0628 -0.0122
 6898W        W22972   2.415  17.650   4.994  0.1287  0.0098  0.0600
 6899W        W22973  10.836  14.829   4.295  0.0375  0.2035 -0.2127
 6900W        W22974  18.315   7.405   5.311 -0.3258  0.3522  0.3490
 6901W        W22975  17.765  15.840  13.381 -0.1518  0.1629 -0.3376
 6902W        W22976   4.916  11.350  13.008 -0.1525  0.1137  0.0396
 6903W        W22977   9.119  14.546   1.549 -0.1587  0.0273  0.0539
 6904W        W22978   1.719   0.829   3.230  0.1378 -0.1695  0.1281
 6905W        W22979   1.051   1.919  11.971  0.1731 -0.1810  0.1310
 6906W        W22980  15.618  12.698  15.314 -0.0763  0.2783  0.2288
 6907W        W22981  10.703   6.832  11.187  0.6491  0.1813  0.3795
 6908W        W22982   7.881  12.449  13.367  0.0854  0.0066  0.0535
 6909W        W22983   0.534  11.685   0.634 -0.1235  0.2307  0.0104
 6910W        W22984   3.743  18.367  13.831 -0.0878 -0.3609  0.1367
 6911W        W22985  10.073   0.265  13.649 -0.1907 -0.0436  0.0265
 6912W        W22986  12.606   4.064  12.526  0.3144 -0.2218  0.1010
 6913W        W22987   5.345   0.821   5.324  0.3181  0.0929 -0.0709
 6914W        W22988  15.012  11.042   5.464 -0.1924  0.0876 -0.1566
 6915W        W22989  13.653  11.283  12.245 -0.1551  0.0082 -0.0866
 6916W        W22990   1.660   4.335  15.177  0.2173 -0.0505 -0.0827
 6917W        W22991   8.765  12.877   3.360 -0.0769  0.0625  0.0989
 6918W        W22992   5.350   7.263   3.987 -0.3331  0.2008  0.1430
 6919W        W22993  13.750   9.662   1.543  0.1610 -0.2400  0.1373
 6920W        W22994  16.459  14.297  11.595  0.4486  0.1742 -0.1392
 6921W        W22995   9.009   7.307  14.436  0.1052 -0.2946  0.1907
 6922W        W22996   8.178   1.140   1.969  0.0109 -0.1145 -0.0800
 6923W        W22997  11.076   1.400  13.142 -0.0634  0.0430 -0.1205
 6924W        W22998   1.190   7.533  11.892 -0.2587 -0.2968 -0.1207
 6925W        W22999  10.540   4.622   3.025  0.3543  0.1492 -0.0900
 6926W        W23000   4.438   4.291   2.588  0.0334 -0.0079 -0.0885
 6927W        W23001  17.162   9.042   2.267  0.0920 -0.1534  0.1722
 6928W        W23002   1.773   9.292  11.880 -0.1353 -0.1535  0.1651
 6929W        W23003   1.383  17.683  13.275  0.3171  0.1309 -0.1153
 6930W        W23004  14.579   7.102  14.205  0.1740  0.2115  0.0145
 6931W        W23005   6.834   7.445  12.400 -0.0681  0.0901 -0.3484
 6932W        W23006   9.252   3.513   1.119  0.0626 -0.0090  0.1181
 6933W        W23007   2.769   6.469  14.505 -0.0169  0.1716  0.1683
 6934W        W23008  13.857   4.571   5.318  0.4254 -0.0215  0.0763
 6935W        W23009   7.685   4.316  14.387  0.2245  0.0368  0.1283
 6936W        W23010   5.110   2.985  14.842 -0.1167 -0.4775  0.0546
 6937W        W23011  14.142  11.978   3.539 -0.4343 -0.4123 -0.2454
 6938W        W23012  11.010   4.351  11.497  0.1801  0.0120 -0.1812
 6939W        W23013  10.881  14.020  14.586 -0.1427 -0.0062 -0.0815
 6940W        W23014   7.267  17.401   0.701 -0.0757 -0.0582 -0.3066
 6941W        W23015   0.987  17.933  11.287 -0.1396 -0.1336  0.0204
 6942W        W23016   5.130  15.969  12.973  0.1087  0.1719 -0.1721
 6943W        W23017   4.044   2.121   4.999 -0.0245 -0.0860  0.0895
 6944W        W23018   7.366   5.240  15.087 -0.2204  0.0630  0.4530
 6945W        W23019  17.522  12.682  12.578  0.2847  0.1525  0.0212
 6946W        W23020  14.937   0.447   5.977 -0.0088  0.1108 -0.0224
 6947W        W23021  11.248  16.762  11.385  0.1399 -0.2115  0.1976
 6948W        W23022  12.742   2.184  12.096 -0.1568 -0.2757 -0.1781
 6949W        W23023   7.563   8.696  13.761  0.0411 -0.1786  0.3330
 6950W        W23024   7.854   4.568   0.609 -0.2803 -0.0465  0.0219
 6951W        W23025  17.196  11.426   1.151 -0.2645 -0.2284 -0.1386
 6952W        W23026   4.877   9.863   2.205 -0.1596  0.1439  0.0565
 6953W        W23027   6.975   0.722   4.750  0.0147  0.0604 -0.2625
 6954W        W23028  17.019   9.245  13.075  0.1791  0.3002  0.0214
 6955W        W23029   6.315   5.590  12.767 -0.1375 -0.1018 -0.1012
 6956W        W23030   6.438  12.101   0.943 -0.0951 -0.0376 -0.0037
 6957W        W23031   5.648   3.395  13.273  0.1199  0.5104 -0.1713
 6958W        W23032   3.885   1.727  14.160  0.1496  0.0650  0.3525
 6959W        W23033  13.592   2.734   0.299 -0.2305 -0.2595  0.2390
 6960W        W23034  10.261   9.501  14.780 -0.0724 -0.2041 -0.3083
 6961W        W23035  14.280   4.020   6.097 -0.1834  0.0086  0.4976
 6962W        W23036   2.107  12.288  11.555  0.0358  0.1140  0.1433
 6963W        W23037  10.249   9.153  14.358 -0.2025  0.1717  0.1159
 6964W        W23038  10.518  16.910   2.605 -0.1036 -0.0302 -0.0983
 6965W        W23039   2.286  16.933   1.710  0.0469  0.2553 -0.2337
 6966W        W23040   1.238  16.430   4.265 -0.3874  0.1712 -0.0566
 6967W        W23041   1.007   5.320   2.120  0.0907  0.3563 -0.4125
 6968W        W23042  17.089  16.709   3.532  0.1208  0.0905 -0.2268
 6969W        W23043   8.812  18.287  13.512  0.2546 -0.3379  0.3531
 6970W        W23044  12.425   6.203   0.758 -0.0496  0.1778 -0.0630
 6971W        W23045   8.048  12.918   3.310  0.0020 -0.1275  0.1985
 6972W        W23046  13.273   0.060   0.733  0.1858 -0.1686  0.2224
 6973W        W23047  17.377   9.442  12.201  0.2442 -0.1257  0.0261
 6974W        W23048   5.424   0.466  13.247  0.1674 -0.1280 -0.0399
 6975W        W23049   2.343  15.373  13.961 -0.2858  0.5151  0.0473
 6976W        W23050  12.915   7.206   5.346 -0.1517 -0.0475  0.1980
 6977W        W23051  14.679  15.803   4.245 -0.0115  0.2054 -0.1859
 6978W        W23052   4.709  14.063  15.176 -0.0975 -0.0251  0.2522
 6979W        W23053  17.203  11.842  13.562 -0.3423  0.2043 -0.1285
 6980W        W23054   8.173  17.819   1.424 -0.3518  0.3943  0.0525
 6981W        W23055  15.937  15.734   0.876  0.1118 -0.2007  0.3591
 6982W        W23056   9.179  10.521  12.552 -0.0167  0.1045  0.1375
 6983W        W23057  16.359   0.900   4.839  0.2041 -0.2432 -0.3022
 6984W        W23058  10.835  10.843  10.675 -0.1294 -0.3228  0.2534
 6985W        W23059  14.201   0.751  12.309  0.0069  0.0042 -0.2411
 6986W        W23060   5.251  18.444   0.208  0.0414  0.1755 -0.0593
 6987W        W23061   6.011  17.991  13.136 -0.0261 -0.2411 -0.1848
 6988W        W23062   7.618   4.737  13.490  0.2210 -0.0673 -0.0725
 6989W        W23063   6.880   1.876   3.288  0.0876 -0.0034  0.0107
 6990W        W23064   6.542  11.300  13.739 -0.1979  0.0737  0.1291
 6991W        W23065   8.624  16.221   0.672  0.1689 -0.0824  0.0301
 6992W        W23066   7.668   2.039  13.240 -0.2945 -0.0438 -0.0244
 6993W        W23067   9.660  12.202  14.905  0.1020  0.0939  0.0862
 6994W        W23068  15.430   0.018  15.391  0.0119  0.3153 -0.1098
 6995W        W23069   9.466  14.966   0.451 -0.1553  0.1624 -0.0323
 6996W        W23070  17.857   1.847  13.562  0.3229  0.2618  0.3286
 6997W        W23071   4.787   2.658   1.955 -0.1656  0.0858 -0.0113
 6998W        W23072   5.507   7.642  13.888 -0.2254  0.1247  0.2415
 6999W        W23073  12.064  15.080   5.047 -0.1060 -0.3592 -0.0299
 7000W        W23074   5.845  11.792   1.676  0.1401  0.0316 -0.0409
 7001W        W23075   1.483  11.464   4.864  0.1850  0.1657 -0.3276
 7002W        W23076  15.128   1.002  13.292 -0.0222 -0.0494  0.0577
 7003W        W23077   0.747   2.468   0.076 -0.0682 -0.3096  0.2753
 7004W        W23078   5.106  15.897   3.530 -0.2863  0.1212 -0.1116
 7005W        W23079  17.404  14.528   4.837 -0.0054  0.1147  0.1060
 7006W        W23080  14.672  11.651   0.591  0.1778 -0.1842  0.0053
 7007W        W23081  15.530   0.925  11.517 -0.2033  0.2045 -0.1160
 7008W        W23082   7.821   4.558   3.905 -0.4157 -0.2628 -0.1977
 7009W        W23083   9.909  11.145   5.581 -0.1965 -0.0519 -0.0579
 7010W        W23084   7.938  14.607   4.643 -0.0051  0.1953  0.0634
 7011W        W23085  13.484  16.113  13.498 -0.0274  0.0428  0.1616
 7012W        W23086   6.857  12.967  13.525  0.2967 -0.2019 -0.1714
 7013W        W23087   7.028   8.268  12.569  0.1565  0.2881  0.0152
 7014W        W23088   8.857   9.605  15.194 -0.2906 -0.1284  0.1107
 7015W        W23089  16.914  17.368  12.676 -0.0534 -0.2111  0.1607
 7016W        W23090   7.576   3.806  13.632 -0.1886 -0.0912 -0.1865
 7017W        W23091  13.863  15.330   5.195  0.0405  0.0222  0.0204
 7018W        W23092   6.744   8.663   0.480  0.0292 -0.0180  0.0060
 7019W        W23093  12.296   6.847  12.011  0.0777  0.2391  0.2116
 7020W        W23094  14.562   9.418  13.843 -0.3195 -0.3036 -0.0660
 7021W        W23095  13.078   7.599   0.320 -0.0992  0.1189 -0.1255
 7022W        W23096  16.662  17.750  11.120  0.1579 -0.0284 -0.1420
 7023W        W23097   7.958  13.585  15.813  0.0355  0.5981 -0.0973
 7024W        W23098   0.403   8.259  13.303  0.3363 -0.4384 -0.0643
 7025W        W23099   5.229   4.380  14.834 -0.0358 -0.0083  0.1446
 7026W        W23100   3.909   6.078  14.728  0.1490  0.3882  0.2206
 7027W        W23101   0.636  18.279  11.201 -0.0017 -0.0248  0.0381
 7028W        W23102   5.406  14.163  12.799 -0.0909  0.1795 -0.3040
 7029W        W23103   0.146   0.233   3.975 -0.1770  0.2247 -0.2188
 7030W        W23104   8.524  11.506   2.772  0.0077 -0.0981  0.1895
 7031W        W23105  17.529  15.602  14.381  0.0721  0.1256  0.1017
 7032W        W23106   9.542   6.518   1.206 -0.0312  0.1796  0.2068
 7033W        W23107   5.327   4.615  15.671 -0.0763 -0.1095 -0.0957
 7034W        W23108   6.058   0.585   1.265  0.2106 -0.4652  0.0697
 7035W        W23109  12.255   2.102  11.848  0.1412  0.0469 -0.1945
 7036W        W23110   1.957  18.154   3.541  0.0574 -0.0097 -0.0707
 7037W        W23111   1.470   5.306  14.632  0.2258  0.1375  0.2419
 7038W        W23112   7.295   9.313  12.482  0.2894 -0.5452 -0.0316
 7039W        W23113   1.130  18.470  10.969 -0.3460 -0.2460  0.1350
 7040W        W23114   6.123  15.063   2.572 -0.1478 -0.0058  0.2507
 7041W        W23115   5.926  15.294  15.008 -0.2371 -0.2605  0.1232
 7042W        W23116  14.690   3.278   5.481 -0.3112  0.0553 -0.1672
 7043W        W23117  10.181  11.760   3.563  0.0865 -0.2197 -0.1434
 7044W        W23118   3.589   9.699  11.953 -0.2653 -0.0467  0.1158
 7045W        W23119  11.489   3.874  12.806 -0.0635  0.1282 -0.0564
 7046W        W23120   2.059  13.345   1.316 -0.0903  0.0226  0.1527
 7047W        W23121  14.008   0.508   1.890 -0.1075  0.0565 -0.0841
 7048W        W23122  15.021   8.207   1.014  0.2645  0.3471 -0.2319
 7049W        W23123   6.690   1.186   5.564  0.1991  0.0197 -0.3724
 7050W        W23124  13.436   1.689  11.922 -0.1730  0.1665  0.0462
 7051W        W23125  18.469  11.554  14.590 -0.2016 -0.0567 -0.1207
 7052W        W23126   5.563   7.052  15.514  0.1921 -0.0818 -0.1667
 7053W        W23127   2.456  10.429   0.472 -0.0309 -0.0765  0.0678
 7054W        W23128   0.194  12.093  15.678  0.1367 -0.1449 -0.0606
 7055W        W23129  17.619   4.530   3.140  0.4181  0.0848  0.1441
 7056W        W23130  14.406  10.362  13.124  0.0374 -0.0020 -0.3394
 7057W        W23131   4.180   4.851   0.525  0.2992  0.2631  0.1274
 7058W        W23132   1.226  16.565   1.296  0.0629 -0.1594  0.2334
 7059W        W23133  18.052   8.790   0.745 -0.0549 -0.0475  0.1001
 7060W        W23134   7.389   9.972   3.542 -0.1289 -0.0733 -0.2027
 7061W        W23135   2.221   6.954  12.460 -0.2026  0.0092 -0.1647
 7062W        W23136   7.800   1.028   0.666  0.2785 -0.1360  0.1047
 7063W        W23137   2.260  15.061   4.295 -0.2836  0.3845  0.0480
 7064W        W23138   7.802  18.336  11.345  0.1980  0.1735 -0.2274
 7065W        W23139  10.192   3.739   1.974  0.2286 -0.2417  0.1289
 7066W        W23140   0.791   8.700  13.119 -0.0833 -0.1605 -0.2947
 7067W        W23141   0.138   3.442  12.493  0.1201 -0.1906 -0.0260
 7068W        W23142   3.279  13.694   2.893 -0.1308  0.0966  0.0244
 7069W        W23143  18.554   8.539   1.658 -0.0005 -0.0927  0.1271
 7070W        W23144  11.247   0.357   2.385  0.1330  0.1619 -0.0444
 7071W        W23145  10.568  16.295   0.371  0.2450  0.0351  0.0845
 7072W        W23146  11.472  15.931   0.158  0.0559  0.1070 -0.1685
 7073W        W23147  11.697  16.460   5.247 -0.0623  0.1858  0.3928
 7074W        W23148  16.059   4.283   2.095  0.0787 -0.1295 -0.0032
 7075W        W23149   0.284   9.264  14.771  0.2168 -0.2409  0.0933
 7076W        W23150   6.173  12.258   4.503  0.2935  0.2609 -0.1207
 7077W        W23151   4.005   7.453  15.952  0.2293  0.2360 -0.2765
 7078W        W23152   9.390  13.700  12.963  0.0320 -0.0233  0.2788
 7079W        W23153  14.447  18.397  13.582 -0.1884 -0.1224  0.2389
 7080W        W23154   1.303  12.197   1.169  0.0624 -0.1009 -0.0029
 7081W        W23155  15.656  17.081   3.038 -0.0218  0.2449  0.1794
 7082W        W23156   8.020  16.021   3.061 -0.0058  0.0869 -0.0496
 7083W        W23157  12.303  14.207   4.887  0.2569 -0.4141  0.2236
 7084W        W23158   1.032  12.731  13.132  0.2485  0.4934  0.0686
 7085W        W23159  10.363   9.362   0.874 -0.2961 -0.1911  0.0585
 7086W        W23160  13.868   8.661   2.654  0.0014  0.1090  0.2289
 7087W        W23161   2.341   3.240  13.519  0.0554  0.1571 -0.0623
 7088W        W23162  14.749  18.463   0.578  0.1672  0.0432  0.0983
 7089W        W23163  13.563   2.254  14.850  0.1672  0.1812  0.2737
 7090W        W23164  18.091   0.198   0.807  0.3706 -0.1656 -0.1007
 7091W        W23165   8.632   4.705   1.924 -0.0496  0.0161  0.4339
 7092W        W23166  17.554  14.269   4.312  0.2228 -0.3189  0.0482
 7093W        W23167  14.213   7.606  13.604  0.4358 -0.3132 -0.1004
 7094W        W23168  18.305  12.642   2.947  0.0287  0.2315  0.0424
 7095W        W23169  12.822  10.898   1.083 -0.0143  0.1073  0.1198
 7096W        W23170   9.970  17.788   1.688 -0.2612 -0.0763  0.0791
 7097W        W23171  11.382   1.244  11.936  0.1356 -0.1062  0.1276
 7098W        W23172   3.649  12.316   0.992 -0.0322 -0.3584 -0.1483
 7099W        W23173   5.762   1.335  13.920  0.2232  0.1645 -0.0745
 7100W        W23174   3.749   2.509   0.955  0.1297  0.1279  0.0296
 7101W        W23175   5.128  12.045  15.885 -0.2653 -0.0370 -0.0827
 7102W        W23176  17.767   6.248   3.807 -0.0082 -0.1284  0.2067
 7103W        W23177  16.605  11.452   2.817 -0.1073 -0.3045 -0.0003
 7104W        W23178   7.632   3.768  10.712 -0.1222  0.0528  0.0350
 7105W        W23179  13.800   0.977   1.686 -0.1181 -0.1530 -0.0197
 7106W        W23180  15.121   2.068  15.833 -0.1347  0.0289 -0.1709
 7107W        W23181  13.062  15.975   2.696  0.1470  0.2739  0.0715
 7108W        W23182   9.969   1.597  13.513 -0.0321 -0.3137 -0.0868
 7109W        W23183   5.275   8.009  13.263  0.0218  0.1448 -0.1996
 7110W        W23184   6.804   9.587  11.826 -0.0714  0.1250 -0.2946
 7111W        W23185  14.377   5.186  12.018  0.2414  0.3107 -0.0935
 7112W        W23186  15.621   7.160  12.324 -0.1997 -0.0877 -0.1810
 7113W        W23187   0.610   6.684   5.455 -0.3814  0.4235 -0.1591
 7114W        W23188  11.886   7.383  10.829 -0.0541 -0.1149  0.0245
 7115W        W23189   9.551  10.975   1.365  0.1472  0.1617  0.1242
 7116W        W23190   0.026  14.362   2.943  0.0745 -0.1228 -0.3736
 7117W        W23191  11.940  10.407   0.151  0.2425  0.1249  0.1357
 7118W        W23192  17.371   6.419  13.616 -0.1397  0.0328  0.1727
 7119W        W23193  11.700   0.885  13.582  0.3006  0.2675 -0.0528
 7120W        W23194   9.483   2.641   5.433  0.1614  0.0084  0.1908
 7121W        W23195  10.872   2.821  14.775 -0.1239  0.1838 -0.0298
 7122W        W23196   1.396   5.608  14.007  0.0714 -0.3522  0.0604
 7123W        W23197  13.322  13.432   3.619 -0.0366 -0.1560  0.3439
 7124W        W23198  17.355  14.647  14.128 -0.1892 -0.1150 -0.2992
 7125W        W23199   2.378  10.346  15.875  0.0716  0.0723 -0.3332
 7126W        W23200  12.383   7.327   1.554  0.1429 -0.1430  0.1668
 7127W        W23201  12.143   4.485   4.762 -0.1375 -0.1304  0.0819
 7128W        W23202   7.386  12.867   0.614  0.2809  0.1439 -0.1819
 7129W        W23203  13.179  14.157   0.673  0.0527  0.1394 -0.3474
 7130W        W23204  15.877   8.852   4.788 -0.1003  0.1517  0.4990
 7131W        W23205  15.457   2.354   2.647 -0.2211  0.1380  0.2061
 7132W        W23206   8.085   2.224   4.384  0.1808  0.0808  0.0761
 7133W        W23207  14.478   4.530  14.790 -0.4623  0.0394  0.1023
 7134W        W23208  16.065  10.665  11.107  0.0480 -0.0777 -0.1254
 7135W        W23209   9.881   8.768  13.544 -0.2227 -0.1055  0.1415
 7136W        W23210   7.753   7.470   2.953  0.0239  0.0049  0.0442
 7137W        W23211  11.471  13.267   1.272  0.0081 -0.2197  0.1044
 7138W        W23212   9.812  14.842  11.083  0.1743 -0.1934  0.4398
 7139W        W23213  17.376  11.875  11.260  0.0778 -0.0436 -0.2023
 7140W        W23214  13.596   9.720   3.270  0.2485 -0.0490 -0.2223
 7141W        W23215   3.469  12.513  13.476  0.0294  0.4449  0.0581
 7142W        W23216   0.900  15.815   0.311  0.4180 -0.1080  0.3520
 7143W        W23217  17.544  12.836   5.758 -0.2242  0.4007  0.0128
 7144W        W23218  10.277   3.767  14.464 -0.2324 -0.1191 -0.0368
 7145W        W23219   4.915  17.192   2.349  0.0603 -0.2126  0.1351
 7146W        W23220   1.366  14.443   0.503 -0.3799 -0.0182  0.0530
 7147W        W23221  15.466  10.108  12.146  0.2319  0.2256  0.3671
 7148W        W23222   6.923   1.985   4.278  0.2049  0.0966 -0.2711
 7149W        W23223   3.544  14.315  14.736 -0.0574 -0.0992  0.1341
 7150W        W23224  14.943  15.175   1.450 -0.0409  0.1329 -0.0668
 7151W        W23225   6.229   8.524   2.995 -0.0673  0.0619 -0.0196
 7152W        W23226  13.668   4.738  15.146 -0.1702 -0.1504  0.0151
 7153W        W23227   3.681  18.294   0.039 -0.1630 -0.0224 -0.0769
 7154W        W23228   2.161   7.922  14.891 -0.1842  0.0297 -0.1161
 7155W        W23229  18.467   9.898  12.976 -0.0488  0.0884 -0.3217
 7156W        W23230   4.480   5.166  11.729  0.0910 -0.0955  0.0244
 7157W        W23231  16.468  15.846  14.926  0.0143 -0.2678  0.1780
 7158W        W23232   7.265  17.128   9.504 -0.1243  0.2707 -0.0415
 7159W        W23233   5.694   7.075  15.039  0.0263  0.1088  0.0181
 7160W        W23234  10.492   3.501  13.651 -0.1857  0.2720  0.0737
 7161W        W23235   4.499   0.651   4.346 -0.0204  0.5874 -0.0069
 7162W        W23236  15.921  14.817   3.382  0.2125  0.1207  0.1427
 7163W        W23237  11.155   9.747   3.027  0.0896 -0.1149 -0.0573
 7164W        W23238   5.786  17.617   0.285  0.0353  0.1919 -0.0793
 7165W        W23239  13.102   4.725  12.848 -0.3087 -0.0570 -0.2379
 7166W        W23240   0.027  13.106  12.905  0.2554  0.0513  0.1232
 7167W        W23241  13.231  15.414  14.958  0.2539 -0.3533 -0.0820
 7168W        W23242   7.882   8.266   4.658  0.0334 -0.1379 -0.0702
 7169W        W23243  18.538  17.107  14.574 -0.0375  0.1570  0.0632
 7170W        W23244  15.510   9.152   4.732 -0.0600 -0.1770 -0.1302
 7171W        W23245  18.558  14.005  13.980 -0.1171 -0.2178  0.0882
 7172W        W23246  10.665   5.992  12.470 -0.0814  0.1394 -0.0730
 7173W        W23247   3.144  14.569   0.094  0.2379 -0.1496  0.0380
 7174W        W23248   0.079  12.854   2.536  0.0321  0.2432  0.2912
 7175W        W23249   4.510   1.563  10.936  0.0664 -0.1234 -0.1404
 7176W        W23250  15.194  14.742   3.438  0.0056 -0.1201 -0.0231
 7177W        W23251  12.622   6.687   2.707  0.0452  0.4725  0.3022
 7178W        W23252   0.349   5.348  15.358 -0.2581  0.0914 -0.4639
 7179W        W23253  16.924   1.551   9.951 -0.3649  0.2993  0.1535
 7180W        W23254  11.970  14.095  15.212 -0.2250  0.1216  0.0537
 7181W        W23255  14.425   9.314  11.009 -0.0038  0.2265 -0.3903
 7182W        W23256  13.690  11.301  15.420  0.2120 -0.1601 -0.1304
 7183W        W23257  11.895  15.547  13.470 -0.0667  0.0722 -0.0961
 7184W        W23258   5.187  12.485   0.081  0.2410  0.0450  0.3713
 7185W        W23259   1.814  10.554   2.364 -0.0138 -0.1641  0.1300
 7186W        W23260  15.122   0.029  11.902  0.2088 -0.1277  0.0410
 7187W        W23261   4.529  12.597   4.230  0.1764  0.1065  0.1571
 7188W        W23262   4.351   8.389   3.784  0.1385 -0.2682  0.0856
 7189W        W23263  18.072   9.456   5.786 -0.2477 -0.0007  0.0303
 7190W        W23264  14.857  16.289   0.408 -0.2994 -0.1770  0.1057
 7191W        W23265  18.488   2.710  11.715  0.1180  0.3131 -0.1236
 7192W        W23266  12.620  17.605   0.782 -0.0798 -0.2624  0.1602
 7193W        W23267  17.408   7.267   0.989  0.0902 -0.1909 -0.2560
 7194W        W23268  16.251   5.721   3.379 -0.0618 -0.0716  0.0081
 7195W        W23269  11.847  15.524  11.156  0.4867 -0.0783 -0.1774
 7196W        W23270  16.957  14.266   1.851 -0.0445 -0.3031  0.0789
 7197W        W23271   7.412   6.560   4.916 -0.3332  0.0038 -0.1134
 7198W        W23272  18.480   9.416   1.811 -0.1754  0.1008  0.0811
 7199W        W23273  18.276  12.474  15.873 -0.0150 -0.0607 -0.3712
 7200W        W23274  10.477   4.246   3.959 -0.1776  0.0356 -0.0683
 7201W        W23275   3.041   1.448  11.273  0.0534 -0.1323  0.1633
 7202W        W23276  11.255   5.841  11.311 -0.1831 -0.2160  0.1114
 7203W        W23277   1.814   7.093   0.769  0.3366  0.1383 -0.0391
 7204W        W23278   9.115   9.989   5.195 -0.0247  0.0960  0.1194
 7205W        W23279  13.608   4.458  15.985 -0.3189  0.1527 -0.2223
 7206W        W23280  17.376   4.465  15.508 -0.2992 -0.2046  0.2362
 7207W        W23281   5.360   5.199   1.662 -0.1867 -0.1872  0.3090
 7208W        W23282   7.556  10.878  12.972  0.0186  0.0380  0.2257
 7209W        W23283  10.500   4.879  15.473  0.0009  0.0296 -0.2235
 7210W        W23284  10.548  12.346  11.615 -0.0833 -0.1946  0.1930
 7211W        W23285  16.354   7.351  12.862 -0.0170  0.0380 -0.0811
 7212W        W23286  17.674  15.824   0.305 -0.1336 -0.1195 -0.2532
 7213W        W23287  18.037   3.647  11.772 -0.1515  0.0327 -0.1903
 7214W        W23288  14.959  12.435  11.308 -0.2943  0.1486  0.4645
 7215W        W23289  18.005   7.393  14.644  0.0672 -0.1796  0.3611
 7216W        W23290  18.426   0.363   0.508 -0.0622  0.1345  0.0597
 7217W        W23291  13.210   2.209   4.131  0.0473 -0.0176  0.2116
 7218W        W23292  12.135   1.332  14.084 -0.0476  0.1606 -0.0063
 7219W        W23293  11.696   3.321   1.720 -0.0911 -0.0702 -0.2114
 7220W        W23294  10.959   5.323  12.639 -0.6597 -0.0914 -0.1172
 7221W        W23295   1.888   4.194   3.843  0.3619 -0.4964 -0.1368
 7222W        W23296   1.642  13.712   5.174 -0.2821  0.2781 -0.3270
 7223W        W23297  10.907  14.201   2.893  0.0694 -0.1706  0.1142
 7224W        W23298   1.362  10.681  12.809 -0.1818  0.1807 -0.0100
 7225W        W23299   3.940  14.089  14.244  0.0800  0.2207 -0.2011
 7226W        W23300   3.176  10.863   2.679  0.1593  0.2693  0.1950
 7227W        W23301   1.017  14.954   1.833 -0.0945 -0.1820  0.0033
 7228W        W23302   4.896   2.344  13.584 -0.2004  0.0158 -0.2205
 7229W        W23303   7.928  17.667   2.921 -0.4279 -0.1014 -0.1963
 7230W        W23304   6.435   2.689   3.407 -0.0532  0.1609 -0.1033
 7231W        W23305  17.853  14.487  11.477 -0.0213 -0.1858 -0.5114
 7232W        W23306   7.211  17.784  13.737 -0.0442  0.4122 -0.0417
 7233W        W23307  14.357  12.470   1.819 -0.2448 -0.0684  0.1632
 7234W        W23308   9.108   0.523   3.584  0.4098  0.1614 -0.1312
 7235W        W23309   8.378   3.181  15.523 -0.1525 -0.1220  0.0008
 7236W        W23310  16.860   9.289  14.476  0.1875  0.1095  0.1509
 7237W        W23311   5.491  10.758  11.819 -0.0955 -0.1906 -0.0134
 7238W        W23312   2.598   2.110  12.846  0.2621 -0.2169 -0.0025
 7239W        W23313   3.732  11.412  12.445 -0.2775  0.1065  0.2094
 7240W        W23314   0.397  10.230  14.985  0.1480 -0.1472 -0.0406
 7241W        W23315   8.822   1.338   0.827 -0.0693  0.0951 -0.1259
 7242W        W23316  18.522   6.036   0.919 -0.0877  0.0002 -0.0491
 7243W        W23317  14.686   5.850  13.603 -0.0969 -0.5314  0.0864
 7244W        W23318   8.275   0.191   3.102 -0.0739  0.0067  0.0634
 7245W        W23319   9.737   0.186  14.070  0.1773  0.0130  0.0162
 7246W        W23320  16.782   6.700  14.800  0.0778 -0.0367  0.0353
 7247W        W23321  10.114   4.427   3.159 -0.3612 -0.1919 -0.0544
 7248W        W23322   7.007   8.186   2.756  0.0716 -0.0944 -0.0043
 7249W        W23323   5.554   4.193  12.820 -0.0673 -0.1428 -0.1580
 7250W        W23324  16.385   1.865   1.102  0.2607  0.3310  0.0982
 7251W        W23325   5.976   8.929  13.889 -0.1555 -0.1606 -0.3382
 7252W        W23326   1.662   5.448  12.624  0.2112 -0.0666 -0.0870
 7253W        W23327   4.615   0.516   2.312  0.4081 -0.1048  0.0658
 7254W        W23328  14.886   1.230  12.968 -0.0767  0.1288  0.3815
 7255W        W23329   9.596   9.452  12.066  0.1318  0.0727 -0.1499
 7256W        W23330  16.464  13.129   3.716 -0.1224  0.0484  0.2798
 7257W        W23331   7.140   2.066   5.519 -0.0178  0.1006 -0.4673
 7258W        W23332   1.952   8.809   2.874 -0.1928 -0.0067  0.1388
 7259W        W23333   5.788  14.429   4.091  0.2163 -0.0467 -0.4529
 7260W        W23334  18.023  17.903  14.169  0.0427  0.1130 -0.2509
 7261W        W23335  12.885   9.090   1.366  0.2791 -0.0827 -0.0978
 7262W        W23336   8.610   7.585   2.708  0.0118  0.3874 -0.1013
 7263W        W23337   9.127  16.971  11.357  0.0108  0.0003  0.0547
 7264W        W23338   5.932   7.881  14.015 -0.1924 -0.1467 -0.1655
 7265W        W23339   4.766   6.196   5.360 -0.0795 -0.0623 -0.0599
 7266W        W23340   4.626  11.911  14.866 -0.1637 -0.0056 -0.2212
 7267W        W23341  18.262   1.597  14.648  0.3574  0.0834 -0.1118
 7268W        W23342   1.799  14.919   5.041 -0.2440  0.3807  0.1829
 7269W        W23343  18.269  10.785   3.017  0.0387 -0.1669  0.1249
 7270W        W23344  12.785   0.792  12.668  0.1585 -0.1985 -0.1639
 7271W        W23345  10.441  17.505   2.139 -0.5000 -0.1492  0.0316
 7272W        W23346   5.364   9.363   2.849  0.1307 -0.0113 -0.0932
 7273W        W23347   9.483   8.262  14.183  0.2875  0.0670  0.0379
 7274W        W23348  14.991  17.179   1.863  0.2146  0.2981  0.2789
 7275W        W23349   8.422   7.966   2.971  0.0812 -0.0262  0.0310
 7276W        W23350  17.474   0.364   4.629 -0.0499 -0.1270  0.0847
 7277W        W23351   3.918   0.784  13.841 -0.2263  0.1053  0.0101
 7278W        W23352  18.259   7.367   6.326 -0.1101  0.3112 -0.2250
 7279W        W23353   0.647   5.522  12.891 -0.1062  0.2240  0.0130
 7280W        W23354  16.507   8.038  14.311  0.3111  0.1092  0.0553
 7281W        W23355  16.721   0.564  12.281 -0.0416 -0.4175  0.2767
 7282W        W23356  17.183   1.254   4.448 -0.0919 -0.1703  0.1964
 7283W        W23357  10.362   5.301   1.208  0.0284  0.0409  0.2167
 7284W        W23358  12.365   5.324  12.438 -0.0249 -0.2731  0.0284
 7285W        W23359   0.686   5.194  12.260  0.0569 -0.4196 -0.4149
 7286W        W23360   6.912  17.021   1.826 -0.1540  0.0270 -0.2972
 7287W        W23361  15.590   5.165   3.216 -0.1245 -0.0196 -0.0826
 7288W        W23362  10.058  14.518   3.408 -0.2021 -0.0958 -0.0800
 7289W        W23363   3.483  18.070   3.130 -0.4326  0.0167  0.1000
 7290W        W23364   1.750   1.313   4.368 -0.5612 -0.0031  0.3598
 7291W        W23365  14.900  10.316   6.072 -0.2540 -0.0535  0.1472
 7292W        W23366   7.788   5.464  12.176 -0.0763  0.1278 -0.3653
 7293W        W23367   4.040   0.406  10.853 -0.1367  0.1497 -0.1611
 7294W        W23368   6.665  15.291   4.921 -0.0444  0.1819 -0.1439
 7295W        W23369  15.050   3.659   4.370 -0.0712  0.0045 -0.1410
 7296W        W23370   7.835   7.871  15.319  0.0174 -0.0735  0.1634
 7297W        W23371   1.333   7.452   1.033 -0.0455 -0.2745 -0.2377
 7298W        W23372  15.024  17.961  11.958 -0.0661  0.0030 -0.3077
 7299W        W23373  13.264  17.392   4.514  0.2087 -0.1177  0.3313
 7300W        W23374  11.886   8.492   2.241 -0.1785  0.0359  0.0624
 7301W        W23375   6.002   4.144   2.239  0.0356  0.2254 -0.2984
 7302W        W23376   5.661   8.864   4.218 -0.0054 -0.0397  0.2000
 7303W        W23377   8.128  16.429   5.210  0.2061 -0.0127  0.2701
 7304W        W23378  10.344   4.828  14.263 -0.2035 -0.5839  0.3921
 7305W        W23379   6.650  16.685   2.031  0.0721  0.0057 -0.2529
 7306W        W23380  12.835  14.499   3.209 -0.2856 -0.3062  0.1624
 7307W        W23381  12.410   8.518   1.319  0.1160 -0.1697 -0.0386
 7308W        W23382   3.336   4.550   4.124 -0.1604  0.1075 -0.1495
 7309W        W23383  11.828   5.045   1.525  0.0656 -0.1910  0.0467
 7310W        W23384  12.110  14.524   1.639 -0.3255  0.0200  0.1553
 7311W        W23385   7.360  18.107  14.575  0.3856  0.1894  0.1090
 7312W        W23386   0.652   7.524  12.712 -0.0702  0.2793 -0.0722
 7313W        W23387  17.136  17.135   1.357  0.0114  0.3662 -0.0971
 7314W        W23388   7.375   9.092  15.226 -0.0575  0.0033  0.3963
 7315W        W23389  12.296   0.133  13.831 -0.1825 -0.0485  0.1514
 7316W        W23390  11.240   7.532  11.213  0.0496  0.0764 -0.0529
 7317W        W23391  12.974   1.208  12.881  0.0015 -0.0324  0.0121
 7318W        W23392   3.496   1.897  13.522 -0.0301  0.0468  0.3049
 7319W        W23393  13.467  12.857   3.850 -0.0247 -0.1401  0.1557
 7320W        W23394   3.619   9.699   4.787  0.2477  0.2770  0.2798
 7321W        W23395  11.294   0.180   3.878 -0.0277  0.2717 -0.0094
 7322W        W23396   7.195   3.710  12.118 -0.0176  0.0398 -0.2517
 7323W        W23397   0.707   1.206   1.279  0.0893  0.2003 -0.1012
 7324W        W23398  16.543  17.826   3.372  0.0133 -0.1657 -0.0266
 7325W        W23399   6.162   5.716   4.337  0.2155  0.0225 -0.0891
 7326W        W23400   7.765  17.483   0.827  0.0434 -0.0669  0.0720
 7327W        W23401  16.405  16.817   0.772  0.2501 -0.2020 -0.0210
 7328W        W23402  16.488  11.927  11.221  0.2305 -0.2034 -0.3246
 7329W        W23403  18.502   0.193  10.842  0.2204  0.2086  0.0823
 7330W        W23404  10.250  10.831  12.960  0.1625  0.2117  0.2931
 7331W        W23405   2.245   8.019  12.408  0.1390  0.2202 -0.0741
 7332W        W23406  18.215  17.415   3.003  0.0302 -0.1423  0.0072
 7333W        W23407  17.545   0.051  12.732  0.3395 -0.1362 -0.1318
 7334W        W23408  12.676   1.252  12.485  0.2090  0.0402 -0.4508
 7335W        W23409   4.449   1.551   5.428 -0.3224 -0.0867  0.2840
 7336W        W23410  16.671   9.284   1.054 -0.2627 -0.2122  0.1655
 7337W        W23411   1.333   9.227   0.957  0.0139 -0.1376 -0.1435
 7338W        W23412   7.111   0.191   4.547 -0.1509  0.0282  0.1509
 7339W        W23413   0.183  17.707   1.292 -0.1890 -0.0129  0.0634
 7340W        W23414   7.133  16.025   0.066 -0.0526 -0.1907  0.1850
 7341W        W23415  10.886   5.515  13.170  0.2644 -0.3197 -0.0582
 7342W        W23416   4.192  18.044   3.384  0.0992 -0.0294 -0.2009
 7343W        W23417  12.652   7.711   3.003  0.3257  0.0088  0.2242
 7344W        W23418  11.432  10.798  11.467  0.1015 -0.0206  0.2792
 7345W        W23419   5.466   9.791  15.039 -0.0175  0.0486  0.0032
 7346W        W23420   3.020  17.796   3.006  0.2894  0.1075 -0.0867
 7347W        W23421   7.014  17.416  13.000  0.1442  0.0248 -0.0338
 7348W        W23422   1.822   1.847   2.845  0.2829  0.0647 -0.3053
 7349W        W23423  13.647  10.849  15.141 -0.1398 -0.1133  0.1375
 7350W        W23424   8.318  10.445  13.654 -0.2920 -0.1247 -0.0502
 7351W        W23425  17.138   5.559   2.832  0.1107  0.0220  0.3968
 7352W        W23426   6.746   7.280   5.543  0.1471 -0.0495  0.0538
 7353W        W23427   3.135  16.212   4.926  0.0021 -0.0029  0.0501
 7354W        W23428   0.747  17.101  15.415 -0.2438  0.0456 -0.1114
 7355W        W23429   3.850  14.623  11.403  0.2176  0.1373  0.1360
 7356W        W23430   2.822  14.026   2.118  0.1234 -0.0367  0.2338
 7357W        W23431   7.808   0.364   1.500  0.0143 -0.0843 -0.0449
 7358W        W23432  13.016   3.698   0.013  0.0264  0.0552 -0.3542
 7359W        W23433   4.018   6.639   3.190 -0.0231 -0.5880 -0.2976
 7360W        W23434   3.878   6.205   3.809 -0.1922 -0.0445  0.1767
 7361W        W23435   4.094  15.045  14.966 -0.1449 -0.1215 -0.0779
 7362W        W23436   6.260  13.168  12.860 -0.0048  0.3089 -0.0681
 7363W        W23437   6.014   0.955  14.618 -0.3495  0.0123  0.3835
 7364W        W23438   6.573   6.471   1.099 -0.3525  0.0332  0.0597
 7365W        W23439  17.244   9.019   2.899 -0.1530 -0.3119  0.2124
 7366W        W23440   9.578   5.436  11.726 -0.0359 -0.1120  0.0282
 7367W        W23441   4.432   1.547   2.186 -0.0245 -0.0777 -0.1845
 7368W        W23442  13.321   2.794   4.025  0.3274  0.1289  0.0015
 7369W        W23443   2.709   5.613   4.061  0.1127  0.3439  0.3356
 7370W        W23444  17.961  10.343   2.819 -0.1985 -0.1111  0.0495
 7371W        W23445   9.785  12.898   3.141  0.0552  0.0624  0.2409
 7372W        W23446  16.225   8.432  14.620  0.4161  0.1844 -0.1049
 7373W        W23447   7.197  15.974  13.575 -0.0577 -0.1277  0.2607
 7374W        W23448   2.928  16.973  12.397 -0.0989 -0.1364 -0.0543
 7375W        W23449  11.739   0.006   3.506  0.1176  0.0701 -0.0359
 7376W        W23450  12.166  17.299  12.909  0.2982 -0.0930 -0.2247
 7377W        W23451  13.276   4.768  14.739  0.0876  0.1040 -0.1873
 7378W        W23452   8.487   5.502  15.508  0.3026  0.1073  0.1674
 7379W        W23453  13.369   2.808  10.951  0.2676 -0.1619  0.0127
 7380W        W23454  18.206  14.395   5.429  0.1898  0.1784  0.0521
 7381W        W23455   8.294   7.060  12.432 -0.0092 -0.2108 -0.1003
 7382W        W23456  10.019  14.982   0.752  0.3636 -0.2171 -0.1246
 7383W        W23457  10.005  12.867   2.180  0.0310  0.0252  0.2023
 7384W        W23458   1.645  10.020  11.230 -0.0357  0.0242  0.0067
 7385W        W23459   1.194  10.942   0.102  0.0040  0.1716 -0.0607
 7386W        W23460  16.098  11.364   2.868  0.2802  0.2033 -0.1597
 7387W        W23461  11.358   9.418  12.635 -0.1371 -0.1249 -0.0663
 7388W        W23462  16.826  15.963   1.432  0.2867  0.2146  0.1512
 7389W        W23463   6.687  12.480   2.188 -0.0303 -0.2092  0.3755
 7390W        W23464  11.505   1.257  13.810 -0.3485 -0.0475  0.0250
 7391W        W23465  18.036  17.843  12.715  0.1522 -0.3480  0.2654
 7392W        W23466   8.999  14.742  15.757  0.3630 -0.1844  0.2464
 7393W        W23467  12.621   3.784   1.526 -0.0263  0.0712 -0.0094
 7394W        W23468  17.985   3.780  12.870 -0.1348  0.0672 -0.1029
 7395W        W23469   5.398  16.950   1.613 -0.1358  0.0648  0.2228
 7396W        W23470   4.962   0.810   2.453 -0.0543 -0.2594 -0.2520
 7397W        W23471  10.481   0.409   3.068  0.2352 -0.0689 -0.0832
 7398W        W23472  10.842   3.552   2.001 -0.3178 -0.1455 -0.1586
 7399W        W23473   1.361   2.785  14.335  0.1396  0.0523 -0.0984
 7400W        W23474  13.735   7.269  11.779  0.1864 -0.7125 -0.1409
 7401W        W23475  13.731   1.135   5.247  0.1801  0.0048  0.0082
 7402W        W23476  12.367   3.655  11.150 -0.0940  0.0146  0.3290
 7403W        W23477  17.445  18.133  12.942  0.2420  0.2792 -0.0302
 7404W        W23478   7.793   6.309   5.269  0.6083  0.0798 -0.0709
 7405W        W23479   7.024   2.800  12.636  0.1935  0.2638 -0.3261
 7406W        W23480   6.903  10.910   4.082  0.0393 -0.2344  0.0478
 7407W        W23481  18.333   2.590   4.772  0.3832 -0.1616 -0.2725
 7408W        W23482   6.832  16.509   0.677  0.0963 -0.0595  0.2218
 7409W        W23483  11.739   5.488  13.645 -0.2449  0.3653 -0.1765
 7410W        W23484   3.705  11.516   3.273  0.2493 -0.1218  0.0467
 7411W        W23485   9.799   8.951  10.935 -0.0492  0.0216  0.0344
 7412W        W23486   5.272   9.778   0.919 -0.2583  0.1555 -0.1742
 7413W        W23487   4.697  13.801   4.659  0.0710 -0.3428 -0.0844
 7414W        W23488  15.914  11.831   2.963  0.0473  0.1509 -0.6145
 7415W        W23489  10.886   3.312   4.429  0.1887  0.2805  0.0937
 7416W        W23490   6.047   5.182   1.309  0.0252 -0.1166 -0.3387
 7417W        W23491   7.368   9.515   2.382 -0.1197 -0.3421 -0.1160
 7418W        W23492  10.147   5.417   0.742  0.1867 -0.2938 -0.0177
 7419W        W23493  13.880   5.186  15.202  0.0151  0.1616  0.0467
 7420W        W23494  14.465   5.573  14.581 -0.2267  0.1634 -0.0711
 7421W        W23495  10.807   9.091  11.486  0.2356  0.2630 -0.1180
 7422W        W23496   6.816   7.002  12.115  0.0413 -0.2968 -0.3882
 7423W        W23497  11.486   9.745   6.205  0.2880  0.1058 -0.3671
 7424W        W23498  11.620   8.993  11.249 -0.2574  0.1385  0.0643
 7425W        W23499   8.478  11.061  12.720  0.0142  0.0813 -0.0172
 7426W        W23500  13.701  16.610  14.386 -0.2187  0.0408  0.2837
 7427W        W23501   3.282   7.555   2.227 -0.1553 -0.0800 -0.2128
 7428W        W23502  12.740   2.713   2.407 -0.2644  0.0646  0.1746
 7429W        W23503  11.284   5.226  13.031 -0.2339 -0.1276  0.3949
 7430W        W23504   0.923  10.266   4.918  0.0816 -0.1566  0.0329
 7431W        W23505   9.140   9.473   3.240  0.2696 -0.0444  0.0550
 7432W        W23506   5.953   5.808  11.024 -0.0616 -0.2431 -0.2353
 7433W        W23507   8.086  12.184  11.881 -0.1996  0.0599  0.1552
 7434W        W23508   9.356  16.464   1.852 -0.0584  0.0590 -0.0537
 7435W        W23509   2.853   8.493   1.758 -0.0295 -0.3469  0.2403
 7436W        W23510  17.887   5.730   2.517  0.0138 -0.0928  0.0154
 7437W        W23511  15.676  12.483  13.693  0.3458  0.0791 -0.1147
 7438W        W23512  14.588   2.979   3.388 -0.3097 -0.1229  0.1767
 7439W        W23513  11.447  15.176   5.771  0.1573 -0.1976 -0.1111
 7440W        W23514   5.405   3.055  13.611  0.1568 -0.1894 -0.0383
 7441W        W23515  12.658   8.442  11.755 -0.1411 -0.0844  0.1622
 7442W        W23516   8.242  12.311   2.756  0.1457  0.0230  0.0615
 7443W        W23517   4.845  15.907   1.855  0.0910  0.2460 -0.1571
 7444W        W23518   0.895  12.458   0.818 -0.2870 -0.1686  0.1928
 7445W        W23519   6.602   3.856   3.518 -0.0581 -0.4109 -0.0218
 7446W        W23520   8.464  14.633   4.760  0.0374  0.0056  0.0539
 7447W        W23521  15.890   1.099  15.089  0.0374  0.1401  0.0077
 7448W        W23522  15.982  10.549   1.676 -0.1462  0.2716 -0.0731
 7449W        W23523  12.271  15.634   5.423 -0.2284  0.3269  0.0622
 7450W        W23524  11.371   4.922   3.067  0.4811 -0.1294  0.1195
 7451W        W23525  14.154   7.434  11.459  0.0439 -0.0816  0.2542
 7452W        W23526  15.306  13.711   2.502  0.1930  0.1981  0.0333
 7453W        W23527   2.678  13.113   5.822 -0.3209  0.1048  0.0079
 7454W        W23528   7.731   0.989  11.853 -0.1985 -0.0340  0.0859
 7455W        W23529   0.482   3.956   6.100 -0.1241 -0.2506 -0.2361
 7456W        W23530  13.260   3.180   0.869  0.0723 -0.1022  0.2474
 7457W        W23531  10.926   0.962  11.951 -0.0536 -0.0613 -0.0413
 7458W        W23532  17.825   5.163   3.434 -0.0077 -0.3894  0.0376
 7459W        W23533  13.931   8.808  12.179  0.0014 -0.0800  0.0505
 7460W        W23534  13.589   0.936   2.912 -0.1249 -0.0251  0.2666
 7461W        W23535  16.011  12.968  15.357  0.1518 -0.1452  0.1212
 7462W        W23536   5.613   4.395  13.260 -0.0788  0.2668  0.3201
 7463W        W23537   5.788   3.360  14.375  0.1422  0.2354 -0.2496
 7464W        W23538   1.113  14.508   3.305 -0.0856  0.1077 -0.2609
 7465W        W23539   1.219   5.797  12.383 -0.0453 -0.0648  0.0569
 7466W        W23540   5.502   8.356  12.052 -0.0097 -0.1232  0.0727
 7467W        W23541   0.326   1.271  11.712  0.0919  0.1118 -0.1558
 7468W        W23542  18.227   7.631  11.988 -0.2370  0.0739  0.0165
 7469W        W23543   9.326   0.870   3.901  0.2514  0.3473 -0.0788
 7470W        W23544  11.243   0.351   4.927  0.0398  0.0857 -0.3268
 7471W        W23545  13.027  14.131  11.913 -0.4316 -0.6474 -0.0505
 7472W        W23546   8.921   1.016   3.545  0.2164 -0.4500  0.1596
 7473W        W23547  17.891   8.670   4.194 -0.2935  0.2144 -0.1979
 7474W        W23548  11.113   9.022  14.869  0.1886  0.4103 -0.2289
 7475W        W23549  14.750   1.379   3.726  0.0188 -0.0572  0.2440
 7476W        W23550  17.255  16.522  11.741 -0.0238 -0.1070  0.3319
 7477W        W23551   8.045   8.618  14.047  0.3243 -0.1492 -0.1839
 7478W        W23552   0.718   5.058  15.212  0.1364 -0.2589  0.0838
 7479W        W23553  10.444  14.331  13.905 -0.0871 -0.3216  0.1271
 7480W        W23554   8.216   5.232  15.184  0.0226  0.1953  0.2955
 7481W        W23555   2.336   3.330   2.138 -0.4548 -0.0519 -0.1795
 7482W        W23556   4.660   8.333  12.767 -0.1035 -0.1320 -0.0508
 7483W        W23557  13.129  18.487  13.483 -0.1257  0.1530 -0.0131
 7484W        W23558  10.121   3.196  13.276 -0.5239 -0.0377 -0.2180
 7485W        W23559  17.070  17.132   0.797 -0.2136  0.0421 -0.1518
 7486W        W23560   7.074  12.905   1.852  0.0516  0.0099 -0.0921
 7487W        W23561  12.329   4.909  12.710 -0.1083 -0.2947  0.1041
 7488W        W23562   8.536  12.716   1.473  0.0534 -0.2559  0.0298
 7489W        W23563   9.499   6.693  15.451 -0.0043 -0.2371  0.1495
 7490W        W23564  13.705   2.019   3.284  0.0880  0.0685  0.1457
 7491W        W23565   3.592  10.983  14.244 -0.0550  0.1031 -0.2582
 7492W        W23566  13.526  17.034   3.898  0.0376  0.2075 -0.2035
 7493W        W23567   1.505  16.768  11.811  0.3612 -0.1429 -0.0494
 7494W        W23568  14.250   1.059  11.079  0.2151  0.2700  0.2218
 7495W        W23569   5.321  17.608   2.233 -0.1032  0.2533  0.1899
 7496W        W23570   8.848  10.627  14.822  0.3058  0.0224 -0.1978
 7497W        W23571   3.200   1.156  12.363 -0.1800 -0.0377 -0.0572
 7498W        W23572  17.687   8.859  14.270  0.0677 -0.1073  0.3655
 7499W        W23573  16.663  18.417  11.546 -0.0484  0.1347  0.1817
 7500W        W23574   2.246  17.537   4.208 -0.0440 -0.0121 -0.2066
 7501W        W23575  18.249   8.277   1.281 -0.0445  0.4540 -0.0194
 7502W        W23576   8.816  12.932   2.817 -0.4294 -0.2033 -0.0274
 7503W        W23577  17.071   7.413   0.639  0.2034  0.1314 -0.1614
 7504W        W23578   5.829   1.536   5.766  0.0797 -0.3594  0.1100
 7505W        W23579   9.152   0.600  12.009  0.2184  0.0454 -0.0669
 7506W        W23580  16.426  12.853  15.716 -0.0558  0.2330 -0.1135
 7507W        W23581   6.192   3.688   0.585  0.0403  0.2094 -0.2030
 7508W        W23582  11.010   6.296  12.820 -0.0845  0.0187  0.0070
 7509W        W23583  14.084   8.966   0.617  0.2274  0.2892  0.3169
 7510W        W23584   3.551   6.541   2.427 -0.0520 -0.1793 -0.0176
 7511W        W23585   2.768  10.682  12.424 -0.1026  0.1512 -0.0062
 7512W        W23586   8.993  13.245  15.969 -0.1559  0.1181 -0.1296
 7513W        W23587   3.117   5.827  13.315 -0.0570  0.3424  0.2082
 7514W        W23588   9.089  17.761  14.810 -0.0175 -0.0385 -0.1513
 7515W        W23589   0.754   8.304   2.817  0.0732 -0.2194 -0.1728
 7516W        W23590   2.392  17.295   1.302  0.0617 -0.1664 -0.1744
 7517W        W23591  10.171  15.867  12.093 -0.2479 -0.2029 -0.3483
 7518W        W23592  10.160   4.814   2.733 -0.1201 -0.4384  0.1780
 7519W        W23593   0.907   9.317   2.842  0.0475 -0.3700  0.2149
 7520W        W23594  17.250  10.149   1.188 -0.0079  0.0646 -0.3138
 7521W        W23595  11.947  15.990   3.217 -0.0161 -0.1638  0.1234
 7522W        W23596  11.925   5.945   4.540 -0.0483  0.1435  0.2060
 7523W        W23597   9.599   1.047  13.226 -0.0350  0.3195 -0.0743
 7524W        W23598  12.510  10.880   4.870  0.1210  0.1707 -0.2345
 7525W        W23599   8.296  16.151   2.655 -0.0088  0.2211 -0.3125
 7526W        W23600   3.749   0.805   1.699 -0.2011  0.0685  0.0519
 7527W        W23601   1.734   0.067   2.477  0.1160 -0.4144 -0.1431
 7528W        W23602   3.119   0.859   2.274  0.2449 -0.1400 -0.2388
 7529W        W23603  18.406  14.985  13.182 -0.0578 -0.1462  0.2840
 7530W        W23604   1.570  13.547   0.464  0.1611 -0.1138 -0.0090
 7531W        W23605  15.248  10.192   2.730  0.0378  0.0064  0.0806
 7532W        W23606   6.635   3.040  11.869  0.0178  0.4014 -0.1253
 7533W        W23607  11.726  12.841  15.390 -0.3447 -0.0545  0.0980
 7534W        W23608  15.246   9.799  13.593  0.4042 -0.2473 -0.1118
 7535W        W23609   6.452  15.306  15.208 -0.2955 -0.0846  0.0461
 7536W        W23610   1.459   0.210  12.192 -0.2602 -0.0087  0.3240
 7537W        W23611  12.524   6.761   3.163 -0.1403 -0.0948 -0.2272
 7538W        W23612  13.059  10.840  13.812  0.2181 -0.2188  0.0625
 7539W        W23613  11.819  14.899  10.935  0.3265 -0.0972  0.1634
 7540W        W23614  17.206  10.758  14.834  0.3096 -0.0301  0.3423
 7541W        W23615  12.930  16.099   0.060 -0.0470 -0.1680 -0.1054
 7542W        W23616   8.118   9.072  14.324  0.0278 -0.1592  0.0075
 7543W        W23617   2.635   6.955  15.886 -0.2870  0.0186 -0.0092
 7544W        W23618  17.268   0.332  10.421  0.2126  0.1096 -0.3120
 7545W        W23619  14.905   7.508  14.052  0.0722  0.1563 -0.2214
 7546W        W23620  13.704   4.729   1.005 -0.2267 -0.0927  0.0718
 7547W        W23621  15.989   6.380  15.298 -0.3976  0.0966  0.1456
 7548W        W23622   4.214  13.724   3.414 -0.1290  0.1493  0.3184
 7549W        W23623   4.723  10.823  14.700  0.0661  0.1015 -0.1325
 7550W        W23624   8.024  17.657   4.802 -0.1388 -0.0994  0.0201
 7551W        W23625  11.053   5.942  15.374 -0.1211 -0.0964 -0.4156
 7552W        W23626   3.442  15.899   0.725  0.2649  0.1519 -0.2705
 7553W        W23627   8.250   2.022  14.116 -0.1441  0.0040  0.0398
 7554W        W23628   8.027   0.242  11.346 -0.2171  0.2857 -0.1218
 7555W        W23629   6.887  17.528  15.845 -0.1538 -0.0808  0.0512
 7556W        W23630  12.379  15.046   0.834  0.0423  0.0013  0.0817
 7557W        W23631  13.588   4.168   2.657 -0.1807  0.0035 -0.1344
 7558W        W23632  18.027   6.905  12.357 -0.1323 -0.0767  0.1311
 7559W        W23633   6.221   8.821  14.917 -0.0249  0.1184 -0.1550
 7560W        W23634   2.929  14.680  11.338  0.2715  0.2081 -0.1381
 7561W        W23635   8.771   2.610   4.320  0.0971 -0.0976  0.1843
 7562W        W23636   3.803   1.530  13.636 -0.1569  0.0473  0.0309
 7563W        W23637   6.195   9.037   0.204 -0.0509 -0.1010 -0.0600
 7564W        W23638  11.687   7.190   4.405 -0.1446  0.2914  0.0896
 7565W        W23639  15.224  14.273   2.648 -0.4316  0.2569  0.2439
 7566W        W23640   7.615  16.078   0.964  0.4416 -0.0293  0.1479
 7567W        W23641   3.133   3.801  13.387  0.0119  0.1620  0.3257
 7568W        W23642   5.858  16.978  14.886 -0.1091  0.1164 -0.0108
 7569W        W23643   0.198   5.894   2.166 -0.0991 -0.0523  0.4451
 7570W        W23644  11.100  18.112   1.907  0.1608  0.4538 -0.2838
 7571W        W23645   4.705   9.468   5.489  0.1488  0.3302 -0.0804
 7572W        W23646  10.941   0.495   3.617  0.1937  0.2537 -0.0495
 7573W        W23647  15.135   0.806   2.674  0.0004  0.1602  0.3521
 7574W        W23648   9.336   0.040  15.800 -0.1034 -0.0533 -0.1240
 7575W        W23649  13.388   6.755  12.683 -0.3151 -0.4994  0.2442
 7576W        W23650  15.643  14.265   4.577 -0.0559  0.0951 -0.1128
 7577W        W23651   6.366   9.477  11.608  0.0032  0.2492 -0.2470
 7578W        W23652  15.028  11.273   3.668  0.1197 -0.0218  0.1710
 7579W        W23653   1.432  10.453  11.472  0.0765 -0.1024 -0.0905
 7580W        W23654  13.027   3.887   1.145 -0.0806 -0.3320  0.2745
 7581W        W23655  14.718   4.845   2.027 -0.1350  0.0371 -0.0264
 7582W        W23656  17.005   3.302   2.458 -0.1331 -0.1954 -0.0883
 7583W        W23657   2.118  13.575  14.911 -0.0388  0.2028  0.3415
 7584W        W23658  14.852   3.161  14.501  0.2090 -0.2407  0.1995
 7585W        W23659  14.396  14.627   3.039 -0.4124 -0.2115  0.2455
 7586W        W23660  10.935   8.464   1.681 -0.0851  0.1125 -0.2114
 7587W        W23661   3.522  12.146   0.533  0.0372 -0.2044  0.0320
 7588W        W23662  11.858   5.439  11.656  0.0057  0.0387 -0.1696
 7589W        W23663  11.722   4.250   6.099  0.1927 -0.1788  0.1387
 7590W        W23664   5.704  17.973   2.303  0.1307  0.1215 -0.1032
 7591W        W23665   8.918   2.900  11.249 -0.1464 -0.1544 -0.0766
 7592W        W23666   5.460  18.156   1.606  0.3938 -0.1170  0.1760
 7593W        W23667  11.678  11.742  11.302  0.2725  0.4126  0.3961
 7594W        W23668   7.547  13.340  14.583 -0.0121 -0.0337 -0.1343
 7595W        W23669  15.751   4.067   5.780  0.0825  0.3464  0.2746
 7596W        W23670  12.068   0.464   2.236  0.0457 -0.0998 -0.0136
 7597W        W23671   8.091  11.576   3.405 -0.1103 -0.0638 -0.2382
 7598W        W23672   1.677   6.878  13.233 -0.0732 -0.3359  0.3303
 7599W        W23673  12.084   4.512   1.043  0.0495 -0.0365  0.1880
 7600W        W23674   7.754   7.332   0.782  0.1686  0.0262  0.1495
 7601W        W23675   4.780   7.249  13.574 -0.3387  0.0519 -0.1755
 7602W        W23676   3.217   9.350  14.176  0.0926  0.0528 -0.0462
 7603W        W23677  11.668  15.633  15.637  0.3154  0.2157  0.0937
 7604W        W23678  13.318   0.398   1.343  0.0105 -0.3870  0.0822
 7605W        W23679   9.095  12.724   1.113  0.1459 -0.2876  0.0016
 7606W        W23680  11.920   2.340  14.462  0.0714  0.1124 -0.1680
 7607W        W23681  15.227   3.141  15.958  0.1788  0.1830 -0.1265
 7608W        W23682  18.094   5.130  11.962 -0.3035  0.2696  0.1656
 7609W        W23683   8.709  16.615   0.341 -0.1206 -0.2922  0.2238
 7610W        W23684   3.280  11.595   0.464  0.1597 -0.1611 -0.1126
 7611W        W23685  11.667  14.664  12.812  0.1847 -0.1322 -0.0389
 7612W        W23686  15.926  10.340  13.247  0.2028 -0.4460 -0.0323
 7613W        W23687   3.026   9.072   1.944  0.0290  0.1598  0.1242
 7614W        W23688   1.014   3.883  14.339  0.1028 -0.0762  0.1427
 7615W        W23689   6.359  16.137  12.509 -0.2110  0.0975 -0.1523
 7616W        W23690   5.652   8.175   1.002  0.2159  0.0169 -0.2451
 7617W        W23691  15.996  16.041   1.809  0.1063  0.2210 -0.1425
 7618W        W23692   0.034  17.934   5.578  0.0873 -0.1250  0.2014
 7619W        W23693  10.892   0.027  12.189  0.1992  0.0594  0.0557
 7620W        W23694  15.682  15.599  13.562  0.1269 -0.4491  0.2913
 7621W        W23695   8.899   5.517   0.295 -0.0278 -0.0757 -0.2491
 7622W        W23696  16.724  10.620   5.862 -0.3013 -0.0996 -0.1022
 7623W        W23697   2.981  10.630   5.557 -0.1983  0.2485 -0.2469
 7624W        W23698  11.781   1.615   2.456  0.1573  0.3696 -0.0981
 7625W        W23699  11.558  15.128  12.612  0.1387  0.0049 -0.0104
 7626W        W23700  10.191  15.042   1.570  0.0273  0.2660 -0.0410
 7627W        W23701  13.185  15.500   3.853 -0.1958 -0.3229 -0.4083
 7628W        W23702  13.625  15.311  13.749 -0.1033 -0.0059 -0.2827
 7629W        W23703   0.576   0.437  11.975 -0.0469 -0.1105 -0.0985
 7630W        W23704  14.204   6.843   3.830  0.0138 -0.4830 -0.0009
 7631W        W23705  17.673  12.911  13.072 -0.2325 -0.4065 -0.0473
 7632W        W23706   6.641   8.006   4.928  0.1966 -0.0123  0.0103
 7633W        W23707   5.416   2.192   3.962 -0.1912 -0.1948 -0.1354
 7634W        W23708   4.472  17.314  11.122  0.3170 -0.3026  0.0000
 7635W        W23709   3.996   7.020   4.952  0.1234  0.3787  0.1066
 7636W        W23710   6.055  12.528  13.696  0.3942  0.0741  0.1594
 7637W        W23711  11.830   3.295  11.485 -0.0652 -0.2970 -0.0005
 7638W        W23712  12.299  12.581   1.832  0.1434 -0.0262 -0.2511
 7639W        W23713  15.270  14.990  15.424  0.4357 -0.0507  0.0211
 7640W        W23714  16.146  13.952   1.491  0.0409 -0.1253 -0.1497
 7641W        W23715  15.784   8.308   4.662  0.0700  0.0943  0.1993
 7642W        W23716   3.951   8.630   1.066 -0.3985  0.0800  0.0172
 7643W        W23717   4.639  11.227   1.257 -0.1354 -0.0737 -0.4075
 7644W        W23718  14.325  15.634   4.914  0.1619 -0.1009  0.1471
 7645W        W23719  10.673  16.723  10.608 -0.2807 -0.2526 -0.0344
 7646W        W23720  14.293   7.740   0.710  0.1128 -0.1169 -0.0764
 7647W        W23721   6.584  13.142   1.798  0.0718  0.2492  0.1441
 7648W        W23722   1.980   1.291   5.213 -0.0832  0.3852  0.2238
 7649W        W23723  10.006  15.028   3.220 -0.0248 -0.2022 -0.2986
 7650W        W23724   8.953   2.861   0.191  0.1402  0.2474 -0.1346
 7651W        W23725  18.189  12.174   1.795 -0.1208 -0.2578  0.2516
 7652W        W23726  13.048   3.560  11.273 -0.0447 -0.3512  0.3287
 7653W        W23727   6.307  16.673  11.207 -0.0553  0.1626 -0.0207
 7654W        W23728  12.273   0.927  14.358  0.2109  0.1256 -0.1723
 7655W        W23729   7.874  15.950   5.174  0.0141 -0.0283  0.0535
 7656W        W23730  15.194  17.315   2.832  0.0979 -0.1920 -0.2386
 7657W        W23731  14.021  13.171  13.476 -0.3139 -0.2812  0.0968
 7658W        W23732   9.027  15.440   4.118 -0.1050 -0.2817 -0.1860
 7659W        W23733   6.672   3.106   1.618  0.2342 -0.0204  0.0177
 7660W        W23734   9.806  16.241  15.475  0.1579 -0.0274 -0.0989
 7661W        W23735   9.323   4.768   1.432 -0.1888  0.0177  0.1266
 7662W        W23736  12.460  15.086   4.225  0.1854  0.2806 -0.3218
 7663W        W23737   2.989  13.286   4.601  0.2454 -0.2068 -0.0448
 7664W        W23738  12.246   6.291   2.677  0.1436 -0.0232 -0.2101
 7665W        W23739  12.453   5.440  11.483 -0.0694  0.2415  0.4018
 7666W        W23740   1.839   4.344  12.816 -0.1567 -0.2127 -0.0878
 7667W        W23741   0.576   4.254  15.008 -0.0313  0.1421  0.1373
 7668W        W23742   0.863  16.718   5.353  0.1279  0.2233 -0.2038
 7669W        W23743   4.038   1.414   3.113  0.1710  0.2912 -0.3348
 7670W        W23744   6.166   1.906   0.744  0.1907 -0.0993 -0.0251
 7671W        W23745   8.220  13.058   1.336  0.1852  0.0469  0.1559
 7672W        W23746  14.023   9.053   2.208  0.3374 -0.2615  0.0996
 7673W        W23747  15.649  18.248   0.738 -0.3008  0.0601 -0.2990
 7674W        W23748  15.685   3.636  11.254 -0.0278  0.2385 -0.2457
 7675W        W23749   3.380  17.478   3.163 -0.0481  0.1116  0.1480
 7676W        W23750  15.621   7.968   3.679  0.2828 -0.0032  0.3180
 7677W        W23751  14.766  15.529   3.667  0.1157 -0.1812 -0.4186
 7678W        W23752  12.751  16.460   2.256 -0.2463  0.3333  0.1246
 7679W        W23753  12.443  13.447   3.233 -0.1073 -0.1039 -0.0563
 7680W        W23754  13.239  10.925  14.561  0.3529 -0.0520  0.1808
 7681W        W23755  16.899   5.854  11.631 -0.2581  0.2677 -0.5096
 7682W        W23756   3.892   8.127  11.568 -0.1391 -0.0225  0.1017
 7683W        W23757   2.993  11.078   4.618  0.1269  0.1457 -0.4305
 7684W        W23758  15.672   3.786  15.623 -0.1566 -0.0688 -0.4037
 7685W        W23759  13.742  18.457   0.828  0.2702  0.4602  0.1653
 7686W        W23760  18.125  12.951  13.353  0.1673 -0.0103  0.0510
 7687W        W23761   8.611  18.468  13.074 -0.0909  0.0265 -0.0443
 7688W        W23762   3.326   9.065   2.324 -0.0227  0.1232  0.5326
 7689W        W23763   1.332  10.781   5.475  0.2101 -0.3532 -0.1902
 7690W        W23764   4.422  13.500  13.498 -0.0151 -0.1224 -0.0221
 7691W        W23765   6.815  17.475   0.896  0.0791 -0.1356  0.1211
 7692W        W23766  12.936   7.692   5.007 -0.2228  0.0506 -0.1008
 7693W        W23767  17.406  16.006   2.006  0.0593  0.1515 -0.0013
 7694W        W23768   9.042  15.853   4.420 -0.0683  0.2084 -0.0068
 7695W        W23769   3.874   0.140   0.550 -0.1227  0.0981  0.1200
 7696W        W23770   8.052  16.611  12.706  0.1669 -0.1011  0.0317
 7697W        W23771  16.215   6.844  14.999  0.2359  0.2739 -0.2186
 7698W        W23772  18.429  17.711   0.933  0.1484 -0.0390 -0.1602
 7699W        W23773  16.251   7.931   0.207  0.2317  0.2768 -0.2259
 7700W        W23774   6.378   8.074   0.374  0.0469  0.1721 -0.2257
 7701W        W23775  10.116   1.317   1.232 -0.2432 -0.3442 -0.0194
 7702W        W23776  16.962   9.406   1.998 -0.1587 -0.2234 -0.0232
 7703W        W23777   9.567   4.622  15.830 -0.1308  0.0279 -0.1341
 7704W        W23778   0.394  16.629  12.032  0.0743  0.0957  0.0889
 7705W        W23779   6.529   1.213   3.356 -0.0255  0.2899  0.0728
 7706W        W23780   0.213   6.431   5.561 -0.2082  0.2634 -0.0865
 7707W        W23781  15.912  16.716   2.342  0.0691 -0.2299 -0.2794
 7708W        W23782   2.472   8.845  15.695  0.0139 -0.0461 -0.0468
 7709W        W23783   7.485   8.204  12.703  0.2086  0.1580  0.0186
 7710W        W23784  10.310  10.650   1.795 -0.0940  0.0990  0.0154
 7711W        W23785  17.470   7.984   5.346 -0.1522  0.2040 -0.0407
 7712W        W23786   3.166   5.309   1.587 -0.0181  0.3106  0.1492
 7713W        W23787   7.707   0.590   5.524  0.2063 -0.0810  0.3716
 7714W        W23788  17.258   5.454   1.004  0.0063  0.0211 -0.1231
 7715W        W23789   5.963  14.728   2.953 -0.1649 -0.0793  0.0112
 7716W        W23790  12.852  17.048  11.200 -0.3343  0.1563  0.1193
 7717W        W23791   3.565   1.687  10.425 -0.1830 -0.1793  0.0129
 7718W        W23792   2.747  15.206  15.744  0.1957 -0.2790 -0.0137
 7719W        W23793  16.519  16.751  12.379 -0.0421  0.1472  0.0107
 7720W        W23794  17.028   2.371  11.140  0.2666 -0.0970  0.5841
 7721W        W23795  10.036   9.020  15.414 -0.2185  0.0360 -0.4766
 7722W        W23796   0.948   5.459  13.862  0.1349 -0.2265 -0.0618
 7723W        W23797  11.197   2.896  13.894  0.0891 -0.1413 -0.1184
 7724W        W23798   6.288  16.541  13.736  0.0723  0.0938 -0.0709
 7725W        W23799   9.721  17.329  12.331  0.1261  0.0291  0.3951
 7726W        W23800  12.029  10.628  14.650 -0.0904  0.0288 -0.2306
 7727W        W23801  11.207   9.313  11.231  0.0842 -0.0709 -0.0662
 7728W        W23802   4.963  12.051  14.502  0.3008 -0.0381  0.1195
 7729W        W23803  13.030  10.257  15.722  0.2960 -0.0160 -0.1541
 7730W        W23804  15.634  14.370   1.648  0.2243 -0.1025 -0.1282
 7731W        W23805   4.361  10.189  14.058 -0.1154 -0.1510 -0.1653
 7732W        W23806  10.507  18.124   0.881 -0.2460  0.0036 -0.0784
 7733W        W23807   8.722   8.660   5.237 -0.2163 -0.0075 -0.0613
 7734W        W23808  13.926   2.018   4.641 -0.1477 -0.0454  0.1204
 7735W        W23809  11.261  10.606   2.470  0.2748 -0.0068 -0.0376
 7736W        W23810  13.351   4.371  11.699  0.1009 -0.1363 -0.3583
 7737W        W23811  13.979  17.537  11.842  0.0348  0.1311  0.0136
 7738W        W23812  10.256   6.820   3.441  0.3743  0.0816  0.0257
 7739W        W23813  18.028   8.887   5.143  0.4047 -0.0271  0.1368
 7740W        W23814   9.013  18.538  14.883 -0.1591 -0.0498 -0.0434
 7741W        W23815   4.133   4.497   3.513  0.2588  0.0993 -0.0026
 7742W        W23816   6.842   6.415  13.259 -0.0381  0.5288 -0.1647
 7743W        W23817  11.381   1.496  15.824 -0.1328 -0.1924  0.0027
 7744W        W23818  17.583   3.107  12.192 -0.0509  0.1463  0.1796
 7745W        W23819   5.294   5.488  14.355  0.2315 -0.0913  0.1080
 7746W        W23820  14.755  13.912   5.011 -0.1096  0.0633  0.1352
 7747W        W23821   3.535  12.690  15.824 -0.2249 -0.2705  0.0107
 7748W        W23822   2.930  11.283   3.644 -0.2596  0.1071 -0.1996
 7749W        W23823  18.503  15.044   1.605  0.0214 -0.0917 -0.1348
 7750W        W23824   6.721   0.372   3.154  0.0017 -0.2711 -0.0632
 7751W        W23825   4.855  12.319  12.637 -0.2699  0.1250 -0.1174
 7752W        W23826   0.734  10.858   1.082 -0.0086  0.0811 -0.1611
 7753W        W23827   8.685   3.836   2.251  0.0499 -0.4503  0.1113
 7754W        W23828   5.664  12.295   2.490  0.1411 -0.0879 -0.1547
 7755W        W23829   4.178  18.369  14.965 -0.0346  0.0121 -0.4006
 7756W        W23830   1.911  18.221   0.464 -0.2294  0.1739 -0.0322
 7757W        W23831   6.774   9.672   4.180  0.2417 -0.4020  0.1466
 7758W        W23832  11.730  16.469  14.273 -0.0548  0.0690  0.0030
 7759W        W23833  16.075   5.368   2.571  0.0297 -0.0969 -0.0374
 7760W        W23834  16.686  14.866   2.706 -0.0072 -0.1833  0.0659
 7761W        W23835  15.517   5.508   0.851  0.1034 -0.3309  0.2642
 7762W        W23836   4.303  11.425  14.710 -0.1523  0.0878 -0.0706
 7763W        W23837   3.014   3.429   4.479  0.0286  0.1408 -0.3029
 7764W        W23838   0.303   2.910  12.547 -0.1325  0.1007 -0.2548
 7765W        W23839  15.369  17.703   1.564  0.4460 -0.0039 -0.2661
 7766W        W23840  13.187   6.081   3.298  0.1890 -0.3019  0.1979
 7767W        W23841  16.038   2.257   2.571 -0.0981  0.0568  0.0006
 7768W        W23842  15.597   2.457   4.885 -0.1433  0.3043  0.1538
 7769W        W23843  11.487   1.094   2.747 -0.2002 -0.0733 -0.2634
 7770W        W23844  10.433  14.116   4.641 -0.1169  0.0324  0.1278
 7771W        W23845   4.582   6.394  12.432 -0.1138  0.4090  0.0056
 7772W        W23846  14.003   4.311  12.469  0.0260 -0.1418  0.0737
 7773W        W23847  11.660  13.021   2.700  0.1242  0.0195 -0.0478
 7774W        W23848  16.352   0.502  15.237 -0.0975  0.1733  0.2846
 7775W        W23849  10.828   9.396   2.152 -0.0343 -0.0303  0.1669
 7776W        W23850   5.324   6.640  14.456  0.1220 -0.1717  0.2672
 7777W        W23851   5.790   2.673  13.762  0.2662  0.2247 -0.2107
 7778W        W23852  16.534  13.401  11.291 -0.0223 -0.0800 -0.1408
 7779W        W23853  16.926  11.740   1.490 -0.2393 -0.0985  0.5823
 7780W        W23854  13.268  15.992  10.877 -0.1880  0.2066  0.2681
 7781W        W23855   9.072  16.664  11.746  0.0509 -0.1753  0.2765
 7782W        W23856   5.653  16.741  13.691 -0.2235 -0.0267  0.2889
 7783W        W23857   4.452   1.429  15.397 -0.0054  0.2717  0.0130
 7784W        W23858   6.241  18.500   5.727  0.2793 -0.0933  0.0687
 7785W        W23859  13.441   0.789   3.937  0.0070  0.1904  0.3042
 7786W        W23860  12.983  14.072  12.877  0.1855  0.2652  0.1194
 7787W        W23861   7.414  16.049  15.213 -0.1134  0.0034  0.1970
 7788W        W23862  14.481   1.171   0.969 -0.1336  0.0306  0.0371
 7789W        W23863   3.049  10.769  11.247 -0.0605 -0.0130  0.0432
 7790W        W23864  17.568  15.421  12.075  0.0967  0.0145 -0.2647
 7791W        W23865   0.520   5.413   4.865  0.0686 -0.1720  0.0613
 7792W        W23866  15.927   4.804   4.494 -0.0004  0.0065  0.0286
 7793W        W23867  16.302  15.605  11.790  0.3340 -0.1170 -0.1785
 7794W        W23868   5.613   1.217   4.987  0.5252  0.0739  0.1147
 7795W        W23869   9.782   8.942   5.755 -0.0147  0.2833 -0.0923
 7796W        W23870  11.457   9.267   1.752  0.7265 -0.1500 -0.0620
 7797W        W23871  14.071  11.680   2.290  0.0888 -0.1930  0.0243
 7798W        W23872   7.079   1.713   1.198  0.1138 -0.1008 -0.2498
 7799W        W23873  17.336  14.205   5.196  0.2667 -0.0514 -0.1183
 7800W        W23874   1.857   5.353   1.778  0.0300 -0.2418  0.1333
 7801W        W23875   5.109   7.367   5.107 -0.1709 -0.1370 -0.1378
 7802W        W23876   3.232   5.054   2.565  0.2446  0.1287  0.0675
 7803W        W23877  13.325   0.715  12.849  0.0070 -0.3637  0.0188
 7804W        W23878   6.822   5.264   5.371  0.1525 -0.5301 -0.2439
 7805W        W23879  12.718   6.520  15.067 -0.0804 -0.1613  0.2135
 7806W        W23880  12.294   3.587  14.829 -0.0089  0.5963  0.4945
 7807W        W23881   8.905   1.964  15.479  0.0973  0.1419  0.1914
 7808W        W23882  17.921  11.032  12.564 -0.0764  0.0109 -0.1336
 7809W        W23883  14.962  12.008  14.145  0.0763  0.0339  0.0508
 7810W        W23884   4.027   9.761  14.070 -0.1583 -0.4127 -0.0944
 7811W        W23885   1.735   2.398  14.474  0.1500  0.2031  0.0335
 7812W        W23886   0.757  12.310  11.575  0.1137 -0.0127  0.0855
 7813W        W23887  15.441   8.728  12.101  0.4102  0.0624 -0.0760
 7814W        W23888  14.214   2.261  15.742  0.1009 -0.2272  0.2369
 7815W        W23889   8.438  18.260  15.778 -0.0035 -0.0592  0.2067
 7816W        W23890  16.688   7.644   0.897  0.3453 -0.0914  0.1190
 7817W        W23891  14.918  13.573  14.005 -0.0146  0.2120  0.2153
 7818W        W23892   0.144   3.516  14.046  0.0293  0.0823 -0.0877
 7819W        W23893  17.221   2.243   0.019  0.0184  0.0823 -0.2966
 7820W        W23894   2.828  17.175  11.301 -0.0946 -0.4353 -0.2893
 7821W        W23895  12.034  12.750   3.843 -0.0098  0.1126 -0.0366
 7822W        W23896  10.080  16.172  15.044  0.1774  0.1153 -0.2373
 7823W        W23897  14.260   1.416   2.865  0.1042  0.1212 -0.1295
 7824W        W23898  10.369  17.029  12.582  0.2100 -0.1511  0.0121
 7825W        W23899  15.656  13.889   3.488  0.0283 -0.4290 -0.0569
 7826W        W23900   7.772   6.745   4.419 -0.3369  0.0700  0.1269
 7827W        W23901   1.209   5.292   3.547  0.3005  0.3042  0.1193
 7828W        W23902  13.776  14.219   5.370  0.0975 -0.1796  0.2346
 7829W        W23903   4.346   6.444  13.182 -0.0188  0.2875 -0.1935
 7830W        W23904   1.409  16.470  15.647 -0.2660  0.3078  0.0632
 7831W        W23905  15.918   9.262  14.268  0.1584 -0.2788  0.0140
 7832W        W23906  15.941   8.570  15.051 -0.0341  0.0792  0.3136
 7833W        W23907   0.502  16.923   1.963 -0.2634  0.1353  0.0521
 7834W        W23908   9.904  15.170   4.164 -0.2937  0.0381  0.0286
 7835W        W23909  11.914   8.099  15.518  0.0193  0.0748  0.2241
 7836W        W23910   7.643  14.148   3.815 -0.3270 -0.3855  0.1257
 7837W        W23911   2.032   9.479  14.745 -0.5149 -0.2133  0.0849
 7838W        W23912  12.563   6.160  13.231  0.0252 -0.1342  0.2710
 7839W        W23913   3.923   1.430  10.241 -0.0893  0.0884 -0.0565
 7840W        W23914   8.509  17.139  11.456 -0.1721  0.1407  0.0264
 7841W        W23915   0.076   7.994  12.910  0.0623 -0.1137 -0.2415
 7842W        W23916   5.645   2.041   0.818  0.3910  0.3813  0.0697
 7843W        W23917   8.213  10.434   0.941  0.1124  0.1849 -0.2400
 7844W        W23918   5.144  11.425  13.921 -0.2978 -0.2157 -0.0890
 7845W        W23919   9.710  16.788   1.537 -0.1354 -0.0726 -0.0743
 7846W        W23920  15.486   5.114  11.024  0.0849  0.0444  0.0971
 7847W        W23921   2.552  12.460  12.756  0.1939  0.0390  0.3384
 7848W        W23922  14.665   6.301  12.101  0.0570  0.1665 -0.0930
 7849W        W23923  13.903  14.712   1.037 -0.0861 -0.0063  0.0615
 7850W        W23924   9.089  12.668  10.554 -0.0012  0.1500 -0.3158
 7851W        W23925   1.435   0.557  14.973  0.2567 -0.1329 -0.0170
 7852W        W23926   0.687   4.634  11.636 -0.2632  0.0912 -0.1548
 7853W        W23927  11.802   7.525  13.230 -0.1960 -0.0258 -0.1143
 7854W        W23928  11.028  10.650  13.209 -0.0941 -0.3273  0.2299
 7855W        W23929  18.189   1.064   4.391 -0.0507 -0.1075  0.1083
 7856W        W23930   8.341   6.466   1.577  0.0337 -0.1208  0.2745
 7857W        W23931  16.950   6.852  15.356  0.1599  0.1258  0.0869
 7858W        W23932  16.058  10.433   2.294 -0.0908 -0.0902  0.1063
 7859W        W23933   9.557  17.524  13.439 -0.1484  0.3453  0.1646
 7860W        W23934  15.263  16.764  14.848  0.1675 -0.3219  0.0464
 7861W        W23935   1.286   2.089  11.495 -0.1581 -0.3040 -0.1296
 7862W        W23936  10.789   4.265   5.001 -0.0837  0.0337  0.3036
 7863W        W23937   8.697   1.493   3.835 -0.1224 -0.0712 -0.1124
 7864W        W23938   2.952   2.687  13.323  0.0189 -0.2949  0.1508
 7865W        W23939   7.453   4.781   0.950 -0.0415 -0.0180  0.2668
 7866W        W23940  14.320  10.731  14.401 -0.2586  0.1009 -0.1072
 7867W        W23941   5.378   4.809   0.571 -0.0841  0.1995  0.1481
 7868W        W23942  10.808  18.114   5.189 -0.0228  0.1479 -0.1221
 7869W        W23943  15.182  12.435   2.585 -0.1259  0.1877  0.0915
 7870W        W23944   6.094  14.989  12.662 -0.0900 -0.0778  0.2625
 7871W        W23945   5.093  12.349  14.891  0.0432  0.0921  0.0549
 7872W        W23946  16.628   6.107  14.902  0.3026 -0.1636 -0.2019
 7873W        W23947   8.062  15.773  15.872  0.0588 -0.1226 -0.0085
 7874W        W23948  17.882   0.244  11.404 -0.0317  0.1807 -0.1775
 7875W        W23949  10.102   9.548   3.383  0.1471  0.1070  0.0554
 7876W        W23950  11.143  14.991  15.246 -0.1422 -0.0856 -0.1665
 7877W        W23951  16.616   7.763  11.685  0.2802  0.1656 -0.0197
 7878W        W23952  18.347   8.354  12.683 -0.1418  0.2180 -0.1267
 7879W        W23953   1.716  14.701  13.584 -0.0504 -0.1660  0.0433
 7880W        W23954   0.731   4.513   3.067 -0.0751 -0.0481 -0.0859
 7881W        W23955   1.083   4.390  11.383 -0.1286 -0.0399  0.0675
 7882W        W23956   6.212   5.249  13.092 -0.0079 -0.1526  0.1342
 7883W        W23957   9.659   6.623   2.779 -0.0489 -0.0862  0.0188
 7884W        W23958  11.044  11.170  11.144 -0.0906 -0.2646  0.4499
 7885W        W23959  10.303  15.153   3.608  0.0968 -0.0781 -0.0389
 7886W        W23960  14.980  11.774  13.030 -0.1137  0.0928  0.0167
 7887W        W23961   1.768  17.211  12.156  0.0220  0.2766  0.0697
 7888W        W23962   0.391  17.968   4.464 -0.0128 -0.3388  0.0491
 7889W        W23963   6.343   9.859   3.929  0.2563  0.0510 -0.2539
 7890W        W23964   8.100   9.543   1.422  0.0009  0.0557 -0.1997
 7891W        W23965  12.227   6.511  12.353 -0.2000 -0.0343  0.0253
 7892W        W23966  15.432  11.675  13.234 -0.3694  0.1119 -0.1103
 7893W        W23967  14.038   6.140  14.940  0.2790  0.1779  0.0062
 7894W        W23968  13.611  11.687  15.690  0.2823  0.1150  0.0768
 7895W        W23969   3.133  10.927   0.018  0.1652  0.1480  0.0552
 7896W        W23970   8.443  12.506   3.342 -0.1705  0.0007 -0.1889
 7897W        W23971  13.695  15.806   3.401 -0.0543 -0.0443 -0.0687
 7898W        W23972   2.590  16.334   0.908  0.2435  0.1660 -0.1428
 7899W        W23973  12.255   1.771  12.303  0.2472 -0.2020 -0.0477
 7900W        W23974   0.533  10.731  15.495  0.0923 -0.0182 -0.1443
 7901W        W23975  10.629   4.385   1.329  0.3295  0.1345 -0.3083
 7902W        W23976   4.816   4.816   4.014 -0.1170  0.1262 -0.1528
 7903W        W23977   5.452   7.287   1.576  0.1686  0.0868 -0.1564
 7904W        W23978   2.733  13.012  13.214  0.1347  0.1199  0.0246
 7905W        W23979   7.038  15.604   2.676  0.0875  0.2326 -0.0241
 7906W        W23980   2.905   4.163   1.219 -0.1073  0.2604 -0.1285
 7907W        W23981  17.712   5.472  11.464  0.2808 -0.0005 -0.2448
 7908W        W23982  13.688   2.579   1.963  0.4089 -0.2488 -0.1845
 7909W        W23983   8.297   2.131  15.995  0.0297  0.2710 -0.1197
 7910W        W23984   7.078  10.698  13.195 -0.1945 -0.4686 -0.0510
 7911W        W23985   4.621   3.032   2.278  0.0196 -0.1089  0.0885
 7912W        W23986  13.652  14.618   1.442  0.1060  0.1599  0.0222
 7913W        W23987  15.540   8.243  15.045 -0.0582 -0.1026 -0.1427
 7914W        W23988   0.190   4.256   2.510 -0.0014  0.0711 -0.3676
 7915W        W23989   2.065  10.747   6.071 -0.0712 -0.0574 -0.0271
 7916W        W23990  15.287  10.442   0.037  0.0471 -0.0445  0.1623
 7917W        W23991  11.630  14.799   1.714 -0.2299  0.1109 -0.0732
 7918W        W23992   8.794  13.496   4.040  0.1502  0.3472  0.0388
 7919W        W23993  14.696  10.771   0.326  0.0784 -0.0020 -0.0014
 7920W        W23994   7.074   7.625   2.153 -0.3833  0.1571 -0.0314
 7921W        W23995   5.467   6.062  15.602 -0.1962 -0.1403 -0.2700
 7922W        W23996   0.127   5.389  15.887  0.0990 -0.1432 -0.0782
 7923W        W23997   7.589   2.006  13.711  0.2751  0.1741  0.1848
 7924W        W23998  14.274   0.192  11.669  0.3935 -0.1224  0.1623
 7925W        W23999   6.557   4.546  11.765 -0.1037  0.1975 -0.0967
 7926W        W24000  12.746   4.242  15.251  0.1179 -0.1326 -0.3529
 7927W        W24001   7.305   6.064   5.338  0.2502 -0.1538  0.0392
 7928W        W24002  16.475   4.235   0.048  0.0398  0.0846  0.1164
 7929W        W24003  12.316  17.894  13.172  0.1721 -0.0989 -0.0324
 7930W        W24004   1.204  18.360  14.969 -0.0520  0.0765 -0.2058
 7931W        W24005  13.586   7.751  11.428 -0.1613  0.2286  0.1202
 7932W        W24006   4.815   3.437   0.349 -0.1922  0.1250 -0.0555
 7933W        W24007   1.874  10.178  15.955 -0.0181  0.0174  0.0209
 7934W        W24008   1.887  11.989   2.225 -0.1595  0.1861 -0.2884
 7935W        W24009  11.751   4.073  13.545  0.1000  0.0356 -0.1461
 7936W        W24010  17.540  16.631  12.449 -0.0584  0.2853 -0.1605
 7937W        W24011   1.951  12.275  15.200 -0.0118 -0.0166 -0.0213
 7938W        W24012  18.115   9.231   1.436 -0.1727 -0.4298 -0.1264
 7939W        W24013   7.459   1.504   4.821 -0.2018  0.3989 -0.3250
 7940W        W24014   4.520   4.928   3.638 -0.1403  0.0434 -0.2099
 7941W        W24015   1.045   7.832   1.122  0.5124  0.1859  0.1964
 7942W        W24016   1.457  16.855  12.310  0.0986 -0.0176  0.0196
 7943W        W24017   9.004   2.132  12.866 -0.3512  0.2175  0.2970
 7944W        W24018  11.692  16.180  15.758  0.0577 -0.0905 -0.3260
 7945W        W24019   1.751   7.015  15.767  0.1885  0.1650 -0.0710
 7946W        W24020   2.063  17.912  10.246  0.0842  0.2691  0.1197
 7947W        W24021   8.084   4.830  12.698 -0.2567 -0.1808 -0.3398
 7948W        W24022   6.024   5.483   2.529  0.1972  0.1683  0.0498
 7949W        W24023  13.212   4.100  13.527  0.2778  0.2648 -0.3045
 7950W        W24024  12.670   2.331  14.598  0.0045  0.2040  0.5894
 7951W        W24025   8.752   9.001  15.110  0.0350 -0.1871 -0.2323
 7952W        W24026  12.967   3.805  10.794 -0.1153 -0.0070 -0.3791
 7953W        W24027  18.051   3.140   0.662  0.2585 -0.2716 -0.0879
 7954W        W24028  16.359   8.437   1.043 -0.1623 -0.1037 -0.1208
 7955W        W24029   7.452  15.336   2.573  0.2595 -0.2793 -0.1800
 7956W        W24030   3.897  10.604   1.432 -0.1664  0.1604  0.2189
 7957W        W24031   2.076  10.774   0.753 -0.2427 -0.0807  0.2800
 7958W        W24032   1.121   4.003   1.551 -0.1851  0.1597 -0.1940
 7959W        W24033   4.494   1.828  14.710 -0.0258 -0.3371  0.0494
 7960W        W24034   5.531  17.174   3.551  0.0279 -0.0310  0.1224
 7961W        W24035   4.243  18.444   4.658 -0.2374  0.2079 -0.1705
 7962W        W24036   5.256   7.135  12.369 -0.1021 -0.1944  0.0204
 7963W        W24037   4.144  11.246  11.575  0.1961  0.2034 -0.1628
 7964W        W24038   8.582   7.423  14.014 -0.1332 -0.0051  0.3195
 7965W        W24039   1.812  10.323   6.190 -0.1305  0.0709  0.3197
 7966W        W24040  13.374   3.374   1.908  0.0557  0.0230 -0.0833
 7967W        W24041  10.510  17.807   4.855  0.1707  0.2921 -0.1325
 7968W        W24042  15.083   7.141   1.786 -0.1085  0.2162 -0.0144
 7969W        W24043  15.553   4.364  14.966 -0.0261 -0.0538  0.1743
 7970W        W24044  10.490  18.526  13.601  0.1421 -0.2125 -0.1974
 7971W        W24045   5.822  11.897   4.424  0.1950  0.1017  0.1538
 7972W        W24046   9.513   1.975  13.433 -0.0186 -0.4645  0.3246
 7973W        W24047  10.406  14.391   2.079 -0.2402  0.0103 -0.0698
 7974W        W24048  13.522   5.504   2.564  0.0492  0.2046 -0.2652
 7975W        W24049  14.258   6.262  16.013 -0.0808 -0.2476 -0.1847
 7976W        W24050   0.283   8.435   5.022  0.1869  0.1330  0.0436
 7977W        W24051  15.155  12.012  11.724  0.1492 -0.0180  0.1412
 7978W        W24052  15.382  10.955   0.878  0.1171  0.1584  0.0367
 7979W        W24053  17.700   3.827  15.542  0.0107 -0.5389  0.0704
 7980W        W24054  12.410  13.900  16.017 -0.0957 -0.2053  0.0931
 7981W        W24055   9.912   4.209   4.773 -0.1191 -0.1426  0.2640
 7982W        W24056   5.971   2.907   2.804  0.0618  0.4622 -0.2327
 7983W        W24057  11.598   0.690  15.726 -0.1751  0.0147  0.2670
 7984W        W24058  12.749   5.917   4.771 -0.0215  0.0083 -0.0403
 7985W        W24059  16.670  11.019   5.112  0.1961 -0.3433  0.4874
 7986W        W24060   7.746   9.120   5.739 -0.0294 -0.0311 -0.5601
 7987W        W24061   7.536   4.355  13.212  0.1591 -0.1675  0.0479
 7988W        W24062   7.749  14.907   3.321 -0.1786  0.4420 -0.0958
 7989W        W24063   1.778   7.709  15.727  0.3499 -0.3396  0.0816
 7990W        W24064   1.616   3.171  12.339 -0.1379  0.1985 -0.1674
 7991W        W24065  12.769  16.953  10.300 -0.2275 -0.1722 -0.1977
 7992W        W24066  14.107   9.222   1.737 -0.2417  0.2775 -0.1527
 7993W        W24067  11.519  16.008   1.315  0.0204  0.0509 -0.2584
 7994W        W24068   3.419   6.342  13.380 -0.1864 -0.0362  0.1049
 7995W        W24069  13.831  16.204  14.687  0.1513  0.1535 -0.1487
 7996W        W24070   6.855  18.315   2.302  0.2442 -0.1871 -0.1285
 7997W        W24071   2.885  14.423   2.411  0.3524 -0.0504 -0.0125
 7998W        W24072  16.822   0.189  10.355 -0.0075 -0.1337  0.0020
 7999W        W24073  16.783   9.696   2.836 -0.0078  0.0873 -0.0471
 8000W        W24074   2.665   3.291   3.247 -0.3485 -0.2911 -0.0406
 8001W        W24075  10.309   1.878   1.072 -0.1913  0.0281 -0.0013
 8002W        W24076  14.179  10.018   4.160 -0.1096 -0.0360 -0.1555
 8003W        W24077   3.218  17.394   4.144  0.0078 -0.0141 -0.0926
 8004W        W24078   0.984   0.367   1.319  0.4795  0.2027  0.2311
 8005W        W24079   4.075  12.285  14.270 -0.1841  0.2539 -0.0823
 8006W        W24080   4.153   4.103  12.082 -0.0417 -0.0241 -0.0180
 8007W        W24081   4.379   6.439   1.714 -0.2586  0.0277  0.0799
 8008W        W24082   7.109  14.178  14.568 -0.1273 -0.3371  0.1961
 8009W        W24083   5.070  10.495   1.629 -0.1345  0.1079 -0.2217
 8010W        W24084   1.856  14.317   2.129  0.2878  0.0853 -0.0221
 8011W        W24085   5.123  17.679   1.039  0.0670  0.2668  0.2940
 8012W        W24086  17.823   1.815   4.000  0.1161 -0.2162 -0.1516
 8013W        W24087   0.698  14.639  12.639  0.3607 -0.1381  0.1671
 8014W        W24088  13.125  10.671  12.473 -0.2184 -0.1185  0.0089
 8015W        W24089  11.828  18.257  11.340 -0.2046  0.2864  0.0686
 8016W        W24090   8.638   7.607   1.939  0.1101 -0.0486 -0.1346
 8017W        W24091  12.687   4.839  10.752  0.1301 -0.1357  0.0155
 8018W        W24092   1.513  14.862   0.049  0.2391 -0.1736  0.2723
 8019W        W24093   7.428  14.629   3.825  0.0428 -0.1418  0.0914
 8020W        W24094  10.788   3.872   4.141  0.0917  0.0680  0.2513
 8021W        W24095   9.834  18.318   4.048 -0.2341 -0.0972 -0.2559
 8022W        W24096   2.654   4.085   2.087 -0.0391 -0.3497 -0.1822
 8023W        W24097   4.286  17.692  13.816 -0.3195  0.1343 -0.1048
 8024W        W24098   2.335   3.981   3.931  0.3810  0.1775  0.2268
 8025W        W24099   3.087   3.942  11.092  0.1033  0.2302  0.0015
 8026W        W24100  12.431  16.968   1.315 -0.3536 -0.1033 -0.0017
 8027W        W24101   4.573   7.500   3.627 -0.2205  0.0191  0.1973
 8028W        W24102   2.229   4.116   2.708  0.0934 -0.0525  0.1815
 8029W        W24103   7.749   6.561  15.126  0.0072 -0.0052  0.1837
 8030W        W24104   3.179   6.209   3.183 -0.2874 -0.6167  0.1400
 8031W        W24105   7.622   9.525  11.290  0.0377 -0.0426 -0.1952
 8032W        W24106   9.172  12.805  14.600  0.2810 -0.0969  0.0170
 8033W        W24107   6.353   7.658  12.526  0.2507 -0.0514 -0.2558
 8034W        W24108  17.107   5.878   1.898 -0.2037  0.2304 -0.2410
 8035W        W24109  14.974  10.434   3.738  0.3810  0.0840 -0.0395
 8036W        W24110  14.394  18.378   3.670  0.0334  0.0720 -0.1775
 8037W        W24111   5.292   8.648   1.037  0.2729  0.2355 -0.2343
 8038W        W24112   8.484  15.302   2.432 -0.0663  0.3613 -0.3964
 8039W        W24113   0.286   1.128   0.938 -0.1568 -0.0422  0.0108
 8040W        W24114  13.124   5.512   0.009 -0.0591  0.0359 -0.0994
 8041W        W24115   2.360   6.948   4.220 -0.4248  0.0881  0.1629
 8042W        W24116  13.442   8.519   3.905  0.4677 -0.0289  0.1940
 8043W        W24117   5.033   7.810  14.609 -0.1885 -0.0341 -0.3296
 8044W        W24118  17.397   2.691   4.155  0.0411 -0.3171  0.1175
 8045W        W24119  17.809  16.728   5.289  0.2098  0.2720  0.2098
 8046W        W24120   9.531   7.830   1.102  0.1385 -0.2689  0.0349
 8047W        W24121  12.958  15.238   5.190 -0.1485 -0.2725 -0.1213
 8048W        W24122   2.183   4.219  13.291  0.1419 -0.3216  0.2015
 8049W        W24123  16.629  18.301  15.189 -0.1763  0.4573 -0.1149
 8050W        W24124   0.884  13.117   0.139 -0.0162 -0.0701 -0.1391
 8051W        W24125   6.886  17.424  13.485  0.2175 -0.1705  0.1007
 8052W        W24126   7.375  13.615   1.439  0.0226 -0.2140  0.2724
 8053W        W24127   8.962   7.124   1.471 -0.3845 -0.0967  0.1010
 8054W        W24128   5.893   3.863  13.312 -0.1001 -0.3609  0.3562
 8055W        W24129   7.285  13.944   5.236  0.2999  0.0039  0.1738
 8056W        W24130  15.835   6.085   2.637 -0.0866 -0.0726  0.0780
 8057W        W24131  11.263   5.097  13.484  0.0983  0.2752  0.0396
 8058W        W24132   8.947   2.455  12.466  0.2116 -0.1057 -0.3311
 8059W        W24133   0.703  17.644   2.071 -0.1647 -0.0486  0.1114
 8060W        W24134   9.636   0.631  12.479 -0.1849  0.2467 -0.3713
 8061W        W24135  14.007  13.776   3.150  0.2998  0.2767  0.1465
 8062W        W24136   9.896  10.418   4.974 -0.2150 -0.0377 -0.4093
 8063W        W24137  11.483  17.780  13.714 -0.4396  0.0514  0.1345
 8064W        W24138   3.170   2.276   2.373  0.1086 -0.0271  0.1070
 8065W        W24139   6.749  12.179   3.495 -0.1104  0.0682 -0.2744
 8066W        W24140   3.803  15.565   0.742 -0.2544  0.0314 -0.0413
 8067W        W24141   5.604   8.977   4.689  0.2122  0.1669  0.2725
 8068W        W24142   8.549   6.920  13.842 -0.0826  0.1534 -0.0355
 8069W        W24143   0.560   2.531  15.135 -0.0057  0.3531 -0.0417
 8070W        W24144  18.028   2.059  12.494  0.1107 -0.2400  0.1932
 8071W        W24145   9.244  16.254  11.920  0.0461 -0.1985  0.0193
 8072W        W24146   0.467  16.006   5.604  0.2115 -0.1075 -0.0541
 8073W        W24147  18.306   0.184   4.638 -0.2548 -0.0810  0.1525
 8074W        W24148  18.486   0.459  12.340  0.2425 -0.4284 -0.2969
 8075W        W24149   6.091   3.096  14.002 -0.0139 -0.0432 -0.1289
 8076W        W24150  15.972  16.186  15.030 -0.2344  0.3768  0.3540
 8077W        W24151   9.550  17.463   4.551 -0.0887  0.2998  0.1319
 8078W        W24152   5.367  14.388   2.140  0.2060 -0.1756  0.5365
 8079W        W24153   5.556   5.638  11.289  0.3010  0.1165 -0.0937
 8080W        W24154  15.769  17.983   2.756  0.0229 -0.3433 -0.2167
 8081W        W24155  16.827   2.837   2.589 -0.1522  0.2173 -0.3161
 8082W        W24156   2.461  10.070   2.861 -0.2231  0.1967  0.2419
 8083W        W24157   2.326   5.892   4.187 -0.1798 -0.2245  0.0089
 8084W        W24158   5.067  10.098   4.443  0.1670  0.0616  0.1187
 8085W        W24159   5.693  12.780   1.271 -0.0321 -0.0502 -0.0864
 8086W        W24160  11.993  11.575  12.171  0.0632  0.1260  0.2679
 8087W        W24161  14.753   5.981   4.510 -0.0429 -0.0731  0.0940
 8088W        W24162  10.397   1.166  14.564 -0.3369  0.1494 -0.2627
 8089W        W24163  15.275  16.501  13.057  0.0104 -0.0124  0.2626
 8090W        W24164  13.051   6.856   5.668  0.0094 -0.1636  0.0589
 8091W        W24165  10.315   1.553   2.699  0.2988 -0.0394  0.0092
 8092W        W24166   1.594  16.699  14.296  0.0798  0.0512 -0.0713
 8093W        W24167  17.632  16.303  15.436  0.0220 -0.1241 -0.3485
 8094W        W24168  10.436   2.282  15.155 -0.1140 -0.1587  0.1013
 8095W        W24169   2.855   0.076   3.325 -0.2480  0.2219  0.0507
 8096W        W24170   5.971   0.102   0.692  0.0175  0.1581  0.2507
 8097W        W24171   3.206   8.568   2.220 -0.0846  0.2984  0.2296
 8098W        W24172   4.185  17.663   2.647  0.2176  0.1792 -0.1461
 8099W        W24173  17.087  17.082   6.023 -0.4136  0.1218 -0.2158
 8100W        W24174  16.268  10.814  12.719 -0.2830 -0.0551 -0.3107
 8101W        W24175   7.773  13.036   5.179  0.1664 -0.3628  0.0661
 8102W        W24176   7.066   3.414   0.837  0.0581  0.2077 -0.1374
 8103W        W24177  17.441   8.962   5.005  0.1210 -0.2778  0.2185
 8104W        W24178  14.165   6.692   5.215 -0.2375 -0.2798 -0.2458
 8105W        W24179   0.424  15.424  11.288 -0.1532 -0.6107 -0.0653
 8106W        W24180   3.735  18.285   0.814 -0.0788  0.1892  0.2077
 8107W        W24181   0.470   1.039  11.246 -0.0728 -0.0087  0.0516
 8108W        W24182   8.029   3.063   0.999 -0.0484 -0.1706 -0.1280
 8109W        W24183  17.249   6.807  14.911 -0.0053  0.1019 -0.2766
 8110W        W24184  15.875  12.429  11.701 -0.0630 -0.1489  0.0703
 8111W        W24185  16.414  10.043  11.513  0.0848  0.1315 -0.1470
 8112W        W24186   0.674   5.946  14.650  0.2467 -0.4796 -0.0228
 8113W        W24187   1.050  14.124   0.785 -0.2677 -0.0463 -0.1216
 8114W        W24188  13.605  13.463  14.216  0.0434  0.0392 -0.1526
 8115W        W24189  13.538   9.466   1.147  0.4769 -0.0733 -0.2162
 8116W        W24190   3.802  11.993   3.120  0.0052  0.1999 -0.1412
 8117W        W24191  13.509   6.949  14.598  0.1532  0.2258 -0.1206
 8118W        W24192  18.328  11.412   5.745  0.1853 -0.1259 -0.0603
 8119W        W24193  13.597   0.599  13.553 -0.1437 -0.0348 -0.0477
 8120W        W24194  18.145   2.208   3.912 -0.2743  0.0849 -0.0765
 8121W        W24195  13.834   0.788  10.953 -0.1765 -0.0438  0.1815
 8122W        W24196  16.753   6.522   4.370 -0.1554  0.0289  0.1168
 8123W        W24197  11.024   5.119   6.090 -0.1760 -0.0444 -0.2939
 8124W        W24198  13.058  14.536   2.396  0.0606 -0.0442  0.1104
 8125W        W24199   7.979  16.105  14.773 -0.1854 -0.0191  0.0470
 8126W        W24200  12.051   5.441  15.350  0.1664 -0.1342 -0.0549
 8127W        W24201   6.672  14.402  12.380  0.1633 -0.1559 -0.0548
 8128W        W24202  12.659  17.250   1.814  0.0734 -0.1691  0.0959
 8129W        W24203   2.588   5.305  12.539 -0.0722 -0.0291  0.1246
 8130W        W24204   2.049   7.683  13.977 -0.0256 -0.1799 -0.0053
 8131W        W24205   4.277   6.241   3.521 -0.2016  0.0353 -0.1209
 8132W        W24206   2.145   7.487   0.567  0.0019 -0.1297 -0.0484
 8133W        W24207   5.692  13.953   1.061  0.1910  0.0314 -0.1534
 8134W        W24208   7.282   3.426  13.918  0.1033 -0.0940  0.0044
 8135W        W24209   6.237   3.430  11.689  0.3214  0.0228 -0.0404
 8136W        W24210   5.941  13.140  12.472  0.2274  0.2801 -0.1138
 8137W        W24211   5.718   0.694  12.201  0.0098 -0.0146 -0.1172
 8138W        W24212  18.365   9.978   2.907 -0.0778  0.0043  0.4224
 8139W        W24213  11.732  16.393   4.226 -0.0564  0.1810 -0.0633
 8140W        W24214   5.366  15.399   3.530 -0.0747  0.0875  0.3333
 8141W        W24215  14.813  18.368  15.873 -0.1128  0.0321  0.2237
 8142W        W24216  12.874   7.133  11.953 -0.0052  0.2029 -0.1521
 8143W        W24217   7.275   2.885   3.131 -0.0585  0.1026  0.0295
 8144W        W24218  12.628   7.579   2.522 -0.0850 -0.0531 -0.0484
 8145W        W24219  16.005  17.942   0.976 -0.0217  0.0064  0.1035
 8146W        W24220   5.389   3.401   1.179 -0.0077 -0.0659  0.1330
 8147W        W24221   0.911   8.790   2.973  0.0585  0.0490  0.1940
 8148W        W24222   4.564  11.626   4.104  0.3360  0.0422 -0.1567
 8149W        W24223  14.119   5.805   1.990 -0.0938 -0.3307 -0.4532
 8150W        W24224   7.440   8.356   0.307  0.0290  0.2175  0.2658
 8151W        W24225  14.955  11.219   1.727 -0.3043 -0.0082  0.0167
 8152W        W24226  11.154  15.877  15.182  0.0970 -0.1532 -0.1280
 8153W        W24227  10.137   6.883  11.093 -0.0448  0.3122  0.3095
 8154W        W24228  14.906   2.294  12.051  0.1974  0.1198  0.2003
 8155W        W24229  14.954   9.980   2.321  0.1302 -0.2598 -0.2427
 8156W        W24230  11.811   3.258  13.253  0.1323  0.1461 -0.0055
 8157W        W24231  14.894   2.670  13.672 -0.3012  0.2686  0.1048
 8158W        W24232  14.118   0.509  14.219  0.2700  0.1512 -0.0368
 8159W        W24233   4.064  13.602  14.237  0.0109  0.0842  0.0486
 8160W        W24234   9.142   8.962   3.345  0.5779  0.3569 -0.0442
 8161W        W24235   9.063   5.764   5.422 -0.2435 -0.1948 -0.2766
 8162W        W24236  14.181  13.212   3.539  0.2561  0.1819 -0.0140
 8163W        W24237   5.321   2.200   4.511  0.1335 -0.1694 -0.0492
 8164W        W24238  11.141   3.106  15.824  0.1279 -0.0152  0.0959
 8165W        W24239   3.548  13.377   1.900 -0.2693  0.1026 -0.0256
 8166W        W24240  17.588  16.658  11.323  0.2321  0.3308 -0.0136
 8167W        W24241   6.711   5.207   3.408 -0.3776 -0.1751 -0.1213
 8168W        W24242   6.869  14.449   1.798 -0.0825 -0.3645 -0.1360
 8169W        W24243   4.735  14.881  14.642 -0.1943 -0.0564  0.1756
 8170W        W24244   3.834  16.847  13.461 -0.0082 -0.0148 -0.1140
 8171W        W24245  16.613   5.376  11.832  0.1650  0.1388 -0.2648
 8172W        W24246   2.541   6.536   2.305  0.0268 -0.0488 -0.2696
 8173W        W24247  14.412  13.235   5.744 -0.1197 -0.0238 -0.1249
 8174W        W24248   9.108  13.115   0.510 -0.3818 -0.0017 -0.2035
 8175W        W24249   1.265  10.685   4.926 -0.0096 -0.3009  0.2383
 8176W        W24250   9.297   0.243   0.652  0.0514  0.1691  0.4300
 8177W        W24251   3.451   5.786   3.549 -0.0566  0.0282 -0.0276
 8178W        W24252   3.551  15.361  11.869 -0.0997 -0.0263  0.4586
 8179W        W24253  14.783   0.439  15.286 -0.1914 -0.0133 -0.1726
 8180W        W24254  12.484   6.130   3.700 -0.0489 -0.1075  0.0067
 8181W        W24255  10.035   8.949  10.537  0.0793  0.0338  0.3216
 8182W        W24256  11.494   0.475   0.891 -0.1547 -0.1014 -0.0664
 8183W        W24257   2.103  17.813  13.570  0.5958  0.0406  0.0113
 8184W        W24258  16.875   1.665  14.098 -0.3018 -0.3802  0.1475
 8185W        W24259  13.968   9.325   4.842 -0.1315  0.1334 -0.0174
 8186W        W24260   1.091  11.975  11.844  0.1940 -0.1153  0.0430
 8187W        W24261   7.731  17.686   1.799  0.0391 -0.1080 -0.0226
 8188W        W24262   7.181   2.921   0.107 -0.4509  0.1443  0.2211
 8189W        W24263   5.966   1.813   3.550  0.1733 -0.0550  0.1715
 8190W        W24264  10.826   6.853   4.083 -0.0977 -0.2457 -0.4134
 8191W        W24265   1.460   4.322  15.640 -0.1729  0.0762  0.0249
 8192W        W24266  10.168  18.033  14.816  0.2771  0.3955 -0.0612
 8193W        W24267   5.170  11.302  12.527 -0.0011 -0.2673  0.2638
 8194W        W24268  13.569  11.054   2.100  0.0971  0.0398 -0.0980
 8195W        W24269   7.656  12.019  13.191  0.2241  0.1770  0.0912
 8196W        W24270  18.413  15.908   4.960 -0.1632  0.2535  0.2443
 8197W        W24271   5.061   8.685   4.706 -0.2187 -0.0846  0.2376
 8198W        W24272  10.500  16.857   2.120 -0.2987 -0.2197  0.0104
 8199W        W24273   2.309   1.892  15.107  0.1148  0.1100 -0.2812
 8200W        W24274   2.751  12.366  12.288  0.0621  0.2712 -0.0394
 8201W        W24275   5.625   4.029  15.092 -0.1443  0.3418  0.1146
 8202W        W24276   5.553  15.093  14.828 -0.1970  0.1343 -0.2140
 8203W        W24277   4.762   2.048  10.782  0.1421  0.3598 -0.1106
 8204W        W24278   5.665  12.756  11.680 -0.0645  0.1722  0.0402
 8205W        W24279  18.446  14.987  15.573  0.0441 -0.0258 -0.0196
 8206W        W24280  10.364   7.282   1.421  0.0208  0.2680  0.0731
 8207W        W24281   5.900   8.094  11.375 -0.1514 -0.0638  0.3010
 8208W        W24282  12.534  10.922  14.949 -0.2666  0.2363 -0.0145
 8209W        W24283  11.225   6.840  12.075 -0.0582  0.0862  0.0008
 8210W        W24284   4.459  17.852  14.237  0.2050 -0.1479  0.1247
 8211W        W24285  14.485   0.921   4.581  0.2310 -0.2469  0.2949
 8212W        W24286   6.097   8.128  12.595 -0.1686 -0.0477 -0.1056
 8213W        W24287  13.103  10.145  13.208 -0.0096  0.2330  0.2578
 8214W        W24288   6.728   9.706  14.003 -0.1032  0.1957 -0.1528
 8215W        W24289   1.522   2.482  15.322 -0.0600 -0.0475 -0.1060
 8216W        W24290   1.989  17.306   0.221 -0.2332  0.2998 -0.0170
 8217W        W24291  12.433  14.798  10.757 -0.2919  0.0200 -0.0473
 8218W        W24292   5.005   2.863  12.774  0.0198 -0.0629 -0.3798
 8219W        W24293  12.095   9.708   1.105 -0.0167  0.3548 -0.0468
 8220W        W24294   6.253   7.021   1.864  0.1679 -0.0754 -0.0204
 8221W        W24295   2.550   6.526  13.338  0.3349  0.2462 -0.2144
 8222W        W24296  13.179   1.407   1.166 -0.1686  0.2060  0.3693
 8223W        W24297   6.233  11.807   4.718 -0.2558  0.1358 -0.2606
 8224W        W24298  10.317  15.801   5.323  0.2864  0.2217  0.0223
 8225W        W24299   2.558   2.732  12.315 -0.1966  0.0736 -0.2266
 8226W        W24300  11.392   4.947   0.520 -0.4341 -0.2226  0.2317
 8227W        W24301  13.356   4.207   4.850 -0.0744  0.2667  0.0979
 8228W        W24302  13.189   7.956  14.843 -0.3261  0.0193 -0.0509
 8229W        W24303  16.305   8.718  12.518  0.0893 -0.1519 -0.0054
 8230W        W24304  11.467   3.200   1.021 -0.0030  0.1192  0.2515
 8231W        W24305   5.993   1.267  11.324  0.0067  0.1571 -0.0762
 8232W        W24306   6.123   9.018   5.506  0.2964 -0.3096 -0.1393
 8233W        W24307  14.012  17.612   2.024  0.3131  0.0652 -0.1207
 8234W        W24308   1.902  17.420  14.410  0.0726  0.0586  0.4756
 8235W        W24309   7.552   8.320   2.847 -0.1408  0.0248  0.2245
 8236W        W24310  16.412  12.434   3.541 -0.0416 -0.0857 -0.5685
 8237W        W24311   1.900   1.654  12.298 -0.4236  0.2750 -0.0945
 8238W        W24312   3.597   4.591  15.962 -0.1739  0.0265 -0.2591
 8239W        W24313   9.771  14.599   0.557 -0.1973  0.1188 -0.1261
 8240W        W24314   4.929   2.743   0.975 -0.0180 -0.3067 -0.0415
 8241W        W24315  11.233  17.888   2.515 -0.2127  0.0395  0.2087
 8242W        W24316  11.945  12.556   0.499  0.0291  0.0309  0.1517
 8243W        W24317   1.712   3.414   3.631  0.0406  0.1299 -0.3696
 8244W        W24318   6.509  16.068  11.903  0.0460 -0.0402 -0.2395
 8245W        W24319   2.545  16.712  11.497 -0.0859 -0.1467  0.0462
 8246W        W24320   8.869  16.451   1.965  0.0378 -0.1621 -0.2667
 8247W        W24321  15.719   9.636   4.900 -0.0476  0.1410 -0.2416
 8248W        W24322   2.711  12.080  13.837 -0.2591 -0.1521  0.0068
 8249W        W24323  12.018  17.812   3.006  0.1198  0.1748  0.0318
 8250W        W24324   9.069  13.234   1.884  0.0366 -0.2425 -0.1742
 8251W        W24325   2.866   8.825  12.913 -0.2425 -0.0300 -0.2519
 8252W        W24326  12.679   3.472  15.809  0.1848 -0.1249 -0.1328
 8253W        W24327  15.782  18.196  15.619  0.0052 -0.0375  0.0795
 8254W        W24328   6.173  13.832  15.747  0.0395 -0.0724  0.1231
 8255W        W24329  11.914   7.978  11.632  0.0013 -0.1897 -0.2411
 8256W        W24330   5.915   5.134   1.797 -0.0353  0.0057 -0.2796
 8257W        W24331  10.612  16.664   1.283  0.0574  0.1897 -0.3474
 8258W        W24332  13.111   0.462  15.070 -0.0098 -0.1866  0.0742
 8259W        W24333   9.184  14.441  13.732 -0.1238 -0.1661 -0.1074
 8260W        W24334   8.535   8.656   3.976  0.1833 -0.0464 -0.0519
 8261W        W24335   7.759  17.973  10.989  0.1763  0.1422  0.1701
 8262W        W24336  12.670  17.654   4.232 -0.0766 -0.1117  0.2056
 8263W        W24337   0.613   0.323   3.694 -0.4169 -0.1059 -0.1148
 8264W        W24338   5.868  11.804   0.091  0.1092  0.1917  0.0927
 8265W        W24339  16.993  13.051  15.431  0.2254  0.0991 -0.0123
 8266W        W24340  13.232   0.573   0.458  0.1912 -0.1978  0.1583
 8267W        W24341  11.726   4.088   0.657  0.0561 -0.0255  0.0158
 8268W        W24342   7.333  11.218  10.143 -0.1222  0.3557 -0.0209
 8269W        W24343  13.045   5.155   4.066 -0.1925 -0.1267 -0.0452
 8270W        W24344  14.530  15.073  12.691 -0.0690 -0.0605 -0.1646
 8271W        W24345  10.910   1.339   2.046 -0.1861  0.1940 -0.3545
 8272W        W24346  13.426   1.919   4.577  0.2259  0.1664  0.0327
 8273W        W24347  17.756   7.426   3.687 -0.0594  0.0633  0.1236
 8274W        W24348  11.174  14.562   5.574  0.0437  0.1058 -0.3757
 8275W        W24349  11.762   2.985   2.156  0.0238 -0.1879 -0.2995
 8276W        W24350   0.124  10.713  14.571  0.2097 -0.0978  0.1334
 8277W        W24351   6.143   8.990  11.572  0.0471  0.1155  0.1224
 8278W        W24352  18.210   8.136  14.542  0.1036 -0.1753  0.1516
 8279W        W24353   9.158   6.732  11.176  0.1052 -0.0825  0.2390
 8280W        W24354  10.666   8.994   4.965  0.0055 -0.1428 -0.0030
 8281W        W24355  15.155  18.263   2.089  0.1555  0.0316  0.0107
 8282W        W24356  11.997   4.846   2.428  0.0996  0.0700  0.3799
 8283W        W24357   9.291   2.248  13.961  0.0023 -0.0685  0.2311
 8284W        W24358   4.053   7.997   5.864 -0.0076 -0.0818 -0.2739
 8285W        W24359   7.324   8.186   4.480 -0.2464 -0.0851 -0.2786
 8286W        W24360  13.767   0.178  15.477  0.0197 -0.3359  0.0679
 8287W        W24361   1.397   2.799   0.074  0.1479  0.2610  0.0084
 8288W        W24362   5.765   2.785  12.064  0.3067  0.3517 -0.0881
 8289W        W24363   2.260   0.349   0.999 -0.0265 -0.0453 -0.2970
 8290W        W24364  12.723   7.156   2.886 -0.4293 -0.0410 -0.2776
 8291W        W24365   7.909   0.602  15.634  0.1164 -0.3498 -0.0688
 8292W        W24366   9.084  18.138  13.960  0.0627  0.0882  0.2776
 8293W        W24367   1.992   9.020  15.530  0.3504 -0.4266  0.1778
 8294W        W24368  17.519  15.184   2.675  0.2733 -0.0590  0.1035
 8295W        W24369  14.090   3.646   1.449 -0.1511 -0.0431  0.0100
 8296W        W24370   5.737   1.078   0.687  0.1286  0.0742  0.1830
 8297W        W24371  17.738  16.364   1.721 -0.2581 -0.0353  0.1587
 8298W        W24372  11.329  11.326   4.080  0.0654  0.0495 -0.0000
 8299W        W24373   1.728   0.546  14.075  0.0590 -0.2710  0.1283
 8300W        W24374   7.183   7.854  12.233 -0.2034 -0.0473 -0.2070
 8301W        W24375   6.224   3.057   4.750  0.1953 -0.1683  0.0206
 8302W        W24376  12.667   7.522  12.628 -0.1834 -0.1565 -0.1033
 8303W        W24377  14.594  16.417  14.869  0.0882  0.2900  0.1426
 8304W        W24378   8.639  17.960  13.948 -0.0879  0.2067  0.3766
 8305W        W24379   8.293  17.066  15.485 -0.2744  0.1049 -0.1891
 8306W        W24380   4.604   1.232   1.741  0.1420  0.2215 -0.0093
 8307W        W24381   7.344   4.735  12.889  0.0560  0.1898 -0.2608
 8308W        W24382   3.951  13.663   2.019  0.0762 -0.5402  0.5537
 8309W        W24383   8.359   5.928   1.522 -0.0991  0.1225 -0.1322
 8310W        W24384  11.642   1.291   5.822 -0.0763  0.0238 -0.0082
 8311W        W24385  17.266   4.882   0.215 -0.1280  0.0376 -0.0667
 8312W        W24386  16.615  10.547  13.043 -0.0806  0.2445 -0.1145
 8313W        W24387   7.567  12.312  12.082  0.0669 -0.0263 -0.0242
 8314W        W24388  14.870  10.332   5.174 -0.1607  0.2562  0.2414
 8315W        W24389  18.107   1.937  13.140 -0.0960  0.0709 -0.1753
 8316W        W24390  13.568  16.321  12.374  0.1261  0.1942 -0.1454
 8317W        W24391   8.328  11.971  15.947  0.4218  0.2646  0.0479
 8318W        W24392   6.421   5.451  13.547 -0.1179  0.0264 -0.1728
 8319W        W24393   7.049  15.777   5.717  0.0130 -0.0309 -0.3813
 8320W        W24394  12.321  13.155  13.717  0.0086  0.1825 -0.2789
 8321W        W24395  14.349   4.473  12.882 -0.0988 -0.3152 -0.1020
 8322W        W24396   6.559  14.429   0.029 -0.1911 -0.0655  0.3978
 8323W        W24397  11.376   6.412   2.665  0.0476  0.2146  0.3358
 8324W        W24398   8.315   9.700  11.796 -0.0759  0.5150 -0.1091
 8325W        W24399   7.886  15.100   4.594 -0.0844 -0.1879  0.2289
 8326W        W24400   4.568   9.831   3.565  0.0651 -0.4512 -0.0739
 8327W        W24401   2.646   6.688   3.418  0.2032  0.1105  0.0288
 8328W        W24402  10.760   7.669  15.458 -0.2977  0.1076 -0.3547
 8329W        W24403   4.051  15.139   0.729 -0.2792  0.2531  0.0544
 8330W        W24404  10.289   3.905  13.976 -0.0488  0.1746  0.0170
 8331W        W24405  16.880   4.148   4.323 -0.1116 -0.0366 -0.0656
 8332W        W24406   6.035  13.745   4.410  0.2548  0.1414  0.2060
 8333W        W24407  10.410  17.547  14.554 -0.0796  0.0126 -0.3510
 8334W        W24408  15.368  13.315  12.359 -0.0346  0.0863  0.2356
 8335W        W24409   5.564   5.633   5.211 -0.0327  0.1873 -0.1412
 8336W        W24410  17.378  11.117   4.247 -0.2736  0.0516 -0.2790
 8337W        W24411  17.129  17.276  14.190  0.1051 -0.2114  0.0893
 8338W        W24412  12.927  11.533   1.926  0.3050  0.2264 -0.2112
 8339W        W24413   5.772  15.695  13.961  0.0147 -0.0827  0.2948
 8340W        W24414   0.187   7.043  12.526 -0.2002 -0.0483  0.1935
 8341W        W24415   9.142  15.197   1.096  0.1123  0.0882 -0.2281
 8342W        W24416  15.693   5.278   5.180  0.0630  0.1376 -0.1539
 8343W        W24417  15.105   9.637  11.519  0.2909 -0.0162 -0.1754
 8344W        W24418  16.441  15.924   1.159  0.1334 -0.2805 -0.1543
 8345W        W24419  15.871   7.401  14.629 -0.1711 -0.4179 -0.2467
 8346W        W24420   2.501   0.232   2.257  0.1939  0.0631 -0.0828
 8347W        W24421   2.857   5.163   0.417  0.1930  0.2184 -0.0770
 8348W        W24422  18.364   0.455  11.250  0.0799 -0.0284  0.1989
 8349W        W24423   3.789  16.279   2.733  0.1356  0.1762 -0.0414
 8350W        W24424   5.722   2.087  15.875  0.2819 -0.3744 -0.0595
 8351W        W24425  16.911   3.924  12.233  0.0521 -0.1297  0.0965
 8352W        W24426  11.379   6.944  15.259  0.0873 -0.0321  0.2918
 8353W        W24427  15.177  14.040   4.624 -0.2416  0.1368  0.0940
 8354W        W24428  15.099   2.996   3.272  0.2460  0.2104  0.3218
 8355W        W24429   5.464   4.051   3.654  0.2906 -0.2305  0.0208
 8356W        W24430  10.873   5.860   2.361 -0.2368  0.1658 -0.2460
 8357W        W24431  18.501   2.489   3.113  0.3081 -0.2990  0.2066
 8358W        W24432   3.831  17.218   1.439  0.4198 -0.1768 -0.1433
 8359W        W24433   5.982   2.862   2.272  0.1910  0.0516 -0.0383
 8360W        W24434   7.281  17.976   1.648  0.0393  0.0339 -0.1489
 8361W        W24435  14.664   8.271  14.611 -0.2287  0.2016  0.0976
 8362W        W24436   8.943  17.213   3.043 -0.1628 -0.0364 -0.0054
 8363W        W24437   7.555   8.316  15.834  0.1178 -0.0847  0.3427
 8364W        W24438   8.135   6.988  10.843 -0.0204 -0.0284  0.1248
 8365W        W24439   2.009  10.417   6.614  0.1275 -0.1071 -0.0888
 8366W        W24440  11.284  11.502   5.602  0.2076 -0.1538  0.1380
 8367W        W24441   4.463  17.353  13.133 -0.1114  0.2957  0.1487
 8368W        W24442  16.571   6.820  10.872 -0.0344 -0.0120  0.1410
 8369W        W24443   5.506  16.325  12.993  0.0464  0.0728 -0.0878
 8370W        W24444  10.324  13.870  13.347  0.2204 -0.0690 -0.0345
 8371W        W24445   2.153   2.561   1.048  0.2031  0.0386 -0.2560
 8372W        W24446  16.772  18.461   0.059 -0.0847  0.3181  0.2066
 8373W        W24447   3.333  14.339  13.510  0.1855 -0.0601 -0.0894
 8374W        W24448   0.455   5.053  12.726 -0.1145 -0.1387  0.1524
 8375W        W24449   5.182   0.816  15.106 -0.3698  0.2312  0.2150
 8376W        W24450  17.693  15.784   5.357 -0.1643 -0.1885 -0.0870
 8377W        W24451  15.561   1.178   0.291  0.2336  0.2142 -0.1307
 8378W        W24452   0.623   1.587  11.951  0.1584  0.0136 -0.0382
 8379W        W24453  17.139  17.116  15.007 -0.0886  0.0394  0.0853
 8380W        W24454   5.949   0.145   5.125 -0.0339  0.2500 -0.0372
 8381W        W24455   0.297   4.946  10.760  0.0095 -0.0108  0.1496
 8382W        W24456  16.995   5.175  14.967  0.1311  0.1233  0.2495
 8383W        W24457   6.553  16.679   1.027  0.1562 -0.0254 -0.0172
 8384W        W24458  12.984  10.573  14.261 -0.0162 -0.0279 -0.0736
 8385W        W24459  11.052  16.481   2.227  0.0684 -0.2256 -0.3937
 8386W        W24460  13.971   6.351  11.421  0.3229 -0.0917 -0.2626
 8387W        W24461   5.163   6.921  14.094  0.1596  0.2387  0.1138
 8388W        W24462  13.639  16.756  11.534  0.0227  0.0773  0.0178
 8389W        W24463   8.264   6.368   5.570 -0.0792 -0.3604  0.3578
 8390W        W24464  15.413  13.142   1.740  0.3015 -0.0857 -0.0519
 8391W        W24465   7.330   7.878   0.216  0.0746  0.1007 -0.1600
 8392W        W24466   1.835  16.676   6.048  0.1681  0.0520  0.2584
 8393W        W24467  15.910  10.038  11.279  0.1615 -0.0662 -0.5065
 8394W        W24468   2.960   9.244   3.659 -0.0743 -0.1712 -0.0307
 8395W        W24469   4.189   5.196   2.549  0.0340  0.1857 -0.0448
 8396W        W24470  11.028  15.116   3.210  0.0199  0.3637 -0.1032
 8397W        W24471  13.443  15.695   2.410  0.1314 -0.0168  0.2108
 8398W        W24472   9.887   9.404   4.123  0.2174  0.0521  0.4316
 8399W        W24473  12.369  13.926  14.194  0.0957 -0.1144 -0.1245
 8400W        W24474   1.809  14.783   1.328  0.1651 -0.2346 -0.4743
 8401W        W24475   0.281  12.136   0.959  0.2519  0.0063 -0.3425
 8402W        W24476   4.812  13.182  12.668  0.0083  0.0058 -0.1096
 8403W        W24477   7.986   6.992  15.134 -0.0555 -0.1284 -0.2227
 8404W        W24478  12.013   6.151   3.692  0.0126 -0.1921  0.0080
 8405W        W24479  10.440   5.933  13.437 -0.1810  0.0872  0.0531
 8406W        W24480  15.779  13.173   2.564  0.1428 -0.1875 -0.0006
 8407W        W24481  15.682   6.072   4.189 -0.1099  0.1343 -0.0282
 8408W        W24482   9.729  15.407  14.132  0.0316  0.1364 -0.2547
 8409W        W24483   2.280  17.455   1.866 -0.1253  0.0736  0.2882
 8410W        W24484   9.673   1.552  15.026 -0.1380  0.0617 -0.2381
 8411W        W24485   7.038   6.296  11.888 -0.1476 -0.2697 -0.3181
 8412W        W24486   3.895  13.291   4.185 -0.0998  0.0950 -0.4014
 8413W        W24487   2.261   3.785  13.548 -0.0647  0.2051 -0.1209
 8414W        W24488   9.075   6.303   5.187  0.1404 -0.1557  0.0166
 8415W        W24489   1.549  13.967   1.690  0.0464 -0.1734  0.4392
 8416W        W24490  18.173  11.229   2.078  0.0509 -0.0255 -0.2073
 8417W        W24491   8.065  11.192   3.777 -0.0401  0.0622  0.0366
 8418W        W24492   7.695   5.055   0.599 -0.1177 -0.1881  0.0728
 8419W        W24493   6.333  11.281  12.119 -0.0775 -0.0299  0.1560
 8420W        W24494   1.633  10.906   3.266 -0.0342  0.3514 -0.1814
 8421W        W24495  16.110  11.364  12.477 -0.0343 -0.1844  0.1718
 8422W        W24496  15.475   0.277  13.840  0.4132 -0.0922 -0.2696
 8423W        W24497   0.696  10.514   0.802 -0.1666  0.2041  0.2924
 8424W        W24498   9.559  17.051  15.624  0.0120  0.0444 -0.0128
 8425W        W24499  13.943   0.773   4.015 -0.1812 -0.3836 -0.1341
 8426W        W24500  11.391  13.940  15.813  0.2199 -0.0146  0.3619
 8427W        W24501   2.575   1.424   3.871 -0.0659  0.0351 -0.0840
 8428W        W24502   6.957  10.183   0.593  0.2597 -0.0701 -0.1723
 8429W        W24503  17.439   0.937   1.583 -0.0531 -0.0453  0.3231
 8430W        W24504   8.167   6.142  13.496 -0.0266 -0.1414  0.2956
 8431W        W24505   4.035   2.902  14.159 -0.1513 -0.2132  0.0914
 8432W        W24506  14.806   0.254  11.586 -0.0141 -0.3063  0.1677
 8433W        W24507  14.776  16.555  10.709  0.2612 -0.0357 -0.0986
 8434W        W24508  12.126  18.302  12.982  0.1693  0.0895 -0.1179
 8435W        W24509   9.043   6.413   2.134  0.2547 -0.1211 -0.0111
 8436W        W24510   5.206   0.452  13.719  0.0432 -0.0202  0.0094
 8437W        W24511  10.598   7.527   2.664 -0.0900  0.0680  0.0857
 8438W        W24512  15.019   0.437  11.096 -0.0962 -0.3915  0.1152
 8439W        W24513  13.738   3.507  12.565 -0.0070 -0.1946  0.0417
 8440W        W24514  15.341  16.779  15.329  0.1864  0.0748 -0.0057
 8441W        W24515  10.932  13.466   3.966  0.0404  0.2814  0.4123
 8442W        W24516  10.947   0.090  13.110 -0.0484 -0.1294 -0.0903
 8443W        W24517  12.651  11.594   4.080  0.0676 -0.3393 -0.3100
 8444W        W24518  17.476   3.683   1.665  0.1136  0.0555  0.0042
 8445W        W24519   0.591  11.779  12.412  0.2256  0.0844  0.0205
 8446W        W24520  13.537  11.173  11.615 -0.1081  0.4416  0.0257
 8447W        W24521   6.907  16.106   4.614 -0.1693 -0.0375  0.0461
 8448W        W24522   1.881   3.486   4.815 -0.3163  0.2730 -0.1054
 8449W        W24523   6.230   5.323   4.092  0.0350 -0.2707 -0.2103
 8450W        W24524  11.398  14.387  14.551  0.0912  0.0205  0.1359
 8451W        W24525  17.511   5.944  12.735 -0.2891 -0.0999 -0.2673
 8452W        W24526   4.138   3.091  13.708  0.2616  0.2757  0.5871
 8453W        W24527   0.861   5.694   2.582  0.0410  0.1661  0.3026
 8454W        W24528  15.418  18.153  11.062 -0.0369  0.0457  0.0860
 8455W        W24529  17.683   4.558   4.753 -0.0205  0.0064  0.0303
 8456W        W24530   2.482   3.864  11.491  0.0770  0.1540 -0.2695
 8457W        W24531   9.104  18.506   1.062  0.0258  0.0150 -0.0341
 8458W        W24532  10.410   6.312   2.441 -0.3063  0.0686  0.3736
 8459W        W24533   8.728   1.983  12.395  0.1426 -0.1362 -0.0128
 8460W        W24534  12.930   7.327   0.893  0.3243 -0.2502  0.1165
 8461W        W24535   3.089   1.483   1.759 -0.4134 -0.1684  0.0070
 8462W        W24536  13.883   7.222  15.105  0.5251  0.0227  0.3076
 8463W        W24537   9.331   7.202   0.576 -0.1871 -0.1520  0.4086
 8464W        W24538   3.362  18.520  11.217 -0.1810 -0.1677 -0.0261
 8465W        W24539  10.754   2.645  15.199  0.1063  0.3126 -0.1960
 8466W        W24540  12.396  12.868  11.226  0.1112  0.0453  0.0978
 8467W        W24541  15.653   1.469  14.723  0.1889  0.1606  0.2417
 8468W        W24542   5.353   9.646   4.584 -0.3189 -0.1857 -0.4208
 8469W        W24543   7.574  12.491  14.994 -0.1229  0.0766  0.2509
 8470W        W24544   8.430   7.842  12.455  0.0094 -0.0227  0.0457
 8471W        W24545   4.352   9.326   3.407 -0.1670  0.0045  0.5196
 8472W        W24546  17.113  11.493   2.414  0.1268  0.2662  0.1925
 8473W        W24547   8.757   6.644   4.945 -0.0404 -0.1204  0.0936
 8474W        W24548   7.808  11.370  11.577 -0.1468  0.1310 -0.3026
 8475W        W24549  17.498   5.112   2.869 -0.1519 -0.2121 -0.2064
 8476W        W24550   6.942   0.312  14.881  0.1443  0.1600 -0.0019
 8477W        W24551  18.521   4.352   5.330  0.2966 -0.0611 -0.0361
 8478W        W24552  10.591   3.884   2.331 -0.1326  0.1605 -0.0056
 8479W        W24553  15.493  14.957  14.946  0.0755 -0.2225  0.1311
 8480W        W24554  10.836  14.683   2.439  0.0331 -0.1455 -0.0839
 8481W        W24555   2.461  13.016   4.313 -0.3255  0.1275  0.2300
 8482W        W24556  14.571   5.846   1.275  0.0628  0.0649 -0.0030
 8483W        W24557  13.114   6.492   5.312  0.0520  0.2016  0.0900
 8484W        W24558   2.265   6.831  11.948 -0.0018 -0.2272  0.0274
 8485W        W24559   1.057   2.629  15.269 -0.2607 -0.2554 -0.1074
 8486W        W24560  14.679   5.793  14.180  0.1282  0.0199  0.2669
 8487W        W24561   1.861  17.415   2.229  0.1300 -0.0187 -0.1321
 8488W        W24562   5.185  17.431   4.876 -0.1240  0.0514 -0.1031
 8489W        W24563  18.250  16.376  12.781 -0.1763  0.4518  0.0968
 8490W        W24564  16.751   7.550  12.154 -0.1694  0.0660 -0.0299
 8491W        W24565  16.025  10.899   0.770 -0.0278  0.1730  0.2275
 8492W        W24566   7.269  10.881   0.033  0.2460 -0.1334 -0.1008
 8493W        W24567  13.796  13.647  15.637  0.0550  0.0178  0.3412
 8494W        W24568   4.232  14.653   5.223 -0.0149  0.1317 -0.1643
 8495W        W24569  16.787   6.338  13.549  0.1494  0.2900 -0.1161
 8496W        W24570   8.122   7.318   5.400  0.2151  0.1149  0.0369
 8497W        W24571  13.066   3.228  14.961  0.1460  0.0433  0.0363
 8498W        W24572  10.192  15.909   0.444  0.1349 -0.0221 -0.1227
 8499W        W24573  17.837   1.213  10.689 -0.0815 -0.0612  0.1014
 8500W        W24574  13.894   0.081  14.304 -0.2312 -0.0149  0.1286
 8501W        W24575  18.344   0.330   3.124  0.1521 -0.1389 -0.2855
 8502W        W24576  15.792  17.833  12.061  0.3362  0.2197  0.1716
 8503W        W24577   6.796   9.274  13.632  0.0107  0.0744 -0.3056
 8504W        W24578  15.524   4.558   2.974  0.4045  0.1132 -0.0359
 8505W        W24579  12.895   0.796   5.496  0.2968  0.0490 -0.0248
 8506W        W24580  14.929   8.296   0.532  0.0523 -0.1461 -0.1430
 8507W        W24581   2.906  14.800   1.466 -0.0568  0.1181  0.1779
 8508W        W24582  17.820   5.678   4.953 -0.0183  0.1627  0.2649
 8509W        W24583   1.637   4.687   5.308 -0.1322  0.1187 -0.0638
 8510W        W24584   5.740  17.862   4.272  0.2323  0.1798 -0.0581
 8511W        W24585   5.555  11.283  10.589 -0.0703 -0.1982 -0.2863
 8512W        W24586   8.229   3.838  13.032 -0.1488  0.1769  0.1906
 8513W        W24587  12.065  18.359   2.183 -0.0342 -0.1482 -0.0095
 8514W        W24588   5.849   2.473   4.335  0.0576  0.0694 -0.1451
 8515W        W24589  12.970   3.959   4.993  0.2051  0.2937  0.0115
 8516W        W24590   9.620  10.791   2.212 -0.0887 -0.0134  0.2234
 8517W        W24591   3.333  16.979  12.028  0.2356  0.0863 -0.2219
 8518W        W24592  13.703  10.691   1.094  0.0915 -0.0160  0.0256
 8519W        W24593   5.163  17.400  13.120 -0.1293  0.3371  0.1397
 8520W        W24594  12.405   3.642  13.705 -0.2038  0.0844 -0.1393
 8521W        W24595  14.164   4.549  13.407 -0.1498  0.0056  0.1464
 8522W        W24596   3.659  12.815   1.539  0.1076 -0.2297  0.1755
 8523W        W24597  10.202   9.903   4.953  0.1169  0.2414 -0.2450
 8524W        W24598   3.007   8.504   0.785  0.2232 -0.2031 -0.2466
 8525W        W24599  12.163  12.767  13.431  0.0819  0.1307 -0.3770
 8526W        W24600   5.130   8.433  14.107  0.1722  0.2301 -0.0335
 8527W        W24601   7.779  10.035   2.135 -0.0002 -0.1627 -0.1279
 8528W        W24602   1.871  17.481  11.583  0.1564 -0.0585 -0.0475
 8529W        W24603   9.040  15.795  12.005  0.2859  0.4087 -0.0936
 8530W        W24604  14.051   7.194  13.854  0.1715  0.0366 -0.0362
 8531W        W24605  16.752   4.806   3.161 -0.1440 -0.0591  0.2548
 8532W        W24606   1.621   0.283  13.044 -0.2485  0.2560  0.3771
 8533W        W24607   2.455   3.912  15.771 -0.2645 -0.0915 -0.0724
 8534W        W24608   9.617  15.320  14.945  0.3914 -0.0425 -0.3326
 8535W        W24609  10.510   3.518   5.640 -0.0747  0.0504  0.0322
 8536W        W24610   6.631  14.658   4.934 -0.0088  0.1539  0.4089
 8537W        W24611   2.763   8.002   3.503 -0.1044  0.0238 -0.2828
 8538W        W24612   1.704  13.711   1.301  0.3563  0.0643  0.1702
 8539W        W24613   6.569  15.755   1.539  0.0952 -0.0630  0.2163
 8540W        W24614  16.423   3.632  13.543  0.1711  0.1611 -0.0178
 8541W        W24615   8.937   2.669  13.696 -0.7289 -0.1809 -0.2002
 8542W        W24616   9.310   0.217   1.631  0.0670 -0.0675  0.1642
 8543W        W24617  14.061  18.170  14.407  0.2194 -0.1384  0.1623
 8544W        W24618  10.509   0.933  14.123 -0.1732 -0.1910  0.3429
 8545W        W24619   8.598  16.419   3.604 -0.0632 -0.0121  0.0346
 8546W        W24620   8.541   9.820  15.513 -0.3510  0.2152 -0.0160
 8547W        W24621  12.883  12.709   0.328  0.0261  0.0669 -0.3655
 8548W        W24622  12.060   4.476   0.559 -0.5165  0.1271 -0.0897
 8549W        W24623   8.766  13.773   1.145  0.0488 -0.1100 -0.1319
 8550W        W24624   4.108   8.702  15.273  0.2723 -0.1632  0.3647
 8551W        W24625   1.636  15.796   2.864  0.0119  0.0197 -0.0293
 8552W        W24626   5.636   7.572   1.914  0.0854  0.1884 -0.2590
 8553W        W24627   5.751   3.590   9.949  0.3943  0.0263  0.1255
 8554W        W24628  17.791   8.071  15.864  0.1039 -0.0706 -0.0698
 8555W        W24629   5.834  14.222   3.046 -0.0430  0.0220  0.0473
 8556W        W24630   6.490   6.953   3.730 -0.1939  0.0346  0.0800
 8557W        W24631  14.784   0.088   1.958 -0.0959 -0.0530 -0.0089
 8558W        W24632   9.116  13.269  13.035 -0.0466 -0.1705  0.1646
 8559W        W24633  14.790   4.868  13.997 -0.0796 -0.2202  0.0742
 8560W        W24634  12.921  15.597   4.705  0.3220  0.1341  0.0573
 8561W        W24635   3.615   6.239  15.621  0.1357  0.3618 -0.0858
 8562W        W24636  18.021  17.999   5.568 -0.0429 -0.0082  0.4763
 8563W        W24637  16.090  17.788  15.561  0.1650  0.1134  0.4893
 8564W        W24638   9.233  10.507   4.046  0.0268 -0.2453 -0.1840
 8565W        W24639   0.294   5.693   3.527 -0.0583 -0.1407 -0.0329
 8566W        W24640   8.543   3.476  13.765  0.2341  0.3092  0.1442
 8567W        W24641  17.191  10.298  12.846  0.1026  0.2717  0.3167
 8568W        W24642  10.998   7.079   5.175 -0.1891  0.1894 -0.1208
 8569W        W24643   1.364  12.730  15.882  0.1018  0.0122 -0.1047
 8570W        W24644   4.453   2.143   5.271 -0.0435 -0.0863  0.2348
 8571W        W24645  17.005   8.111   6.244 -0.2132 -0.3365 -0.4255
 8572W        W24646   6.214  12.344  13.256  0.0927 -0.0467  0.0738
 8573W        W24647   5.296  12.517   1.587  0.2243 -0.1170  0.4061
 8574W        W24648  11.054   9.843  11.893  0.0743  0.0719  0.0633
 8575W        W24649   6.952  14.776  14.420  0.2616 -0.0047 -0.0314
 8576W        W24650  15.951   1.519  11.855 -0.2139 -0.1853 -0.1991
 8577W        W24651   4.541   7.706  14.401  0.3098 -0.5891  0.2506
 8578W        W24652  17.128   6.712   4.137  0.0243  0.0540 -0.3151
 8579W        W24653  13.508  12.279  15.511  0.0274  0.2198 -0.1436
 8580W        W24654   3.344  13.318  15.837 -0.0032  0.1868 -0.2248
 8581W        W24655   7.161  10.441   4.867 -0.3312  0.1580 -0.0071
 8582W        W24656  12.058   0.408   0.059  0.1714 -0.2261  0.1623
 8583W        W24657  10.806   9.332   1.109  0.1359 -0.0579  0.2593
 8584W        W24658  16.974   8.943   3.774 -0.2462  0.1551  0.0303
 8585W        W24659   8.329  15.590  12.930  0.4709 -0.1809 -0.0207
 8586W        W24660   3.725  17.691   2.917 -0.2610  0.0261  0.0077
 8587W        W24661  13.657   7.597  14.836  0.4890 -0.0849  0.0663
 8588W        W24662   3.269  14.096  12.394 -0.2177  0.2681 -0.0052
 8589W        W24663  13.683  12.236  10.214  0.1710  0.2962 -0.1296
 8590W        W24664  11.297   7.278  13.097 -0.0297 -0.1728  0.2919
 8591W        W24665   0.601  10.409  12.608 -0.0529  0.1605  0.0278
 8592W        W24666  12.819  13.774   0.894  0.0429  0.0272 -0.0600
 8593W        W24667  17.065  15.885  15.630 -0.1795  0.2513 -0.2885
 8594W        W24668   3.082   9.527  11.420  0.0752 -0.0921 -0.3147
 8595W        W24669  15.765   7.359   0.659  0.0741 -0.3753 -0.2083
 8596W        W24670  12.919  16.956  14.351 -0.3263 -0.2825 -0.1167
 8597W        W24671  12.003  16.814   1.046  0.0809  0.0136  0.2039
 8598W        W24672   4.706  15.399   1.804 -0.1577 -0.0813 -0.1097
 8599W        W24673   7.219  11.870   5.405  0.1267 -0.0260  0.0047
 8600W        W24674  16.664   9.261   5.273 -0.1131  0.1038  0.0476
 8601W        W24675  10.925   7.589  12.952  0.1426  0.1463  0.0819
 8602W        W24676  18.124   1.959  11.940 -0.0373 -0.0888 -0.1802
 8603W        W24677   4.735  13.492  12.330 -0.2243 -0.2226  0.2502
 8604W        W24678  14.673   9.483  11.401 -0.0308  0.0519  0.1041
 8605W        W24679  18.150   9.856  13.566  0.3751 -0.0274 -0.1615
 8606W        W24680  14.744  16.836   4.153  0.1316 -0.0345  0.3358
 8607W        W24681   2.758   5.956   2.722 -0.2807  0.1858 -0.0594
 8608W        W24682   8.454   4.059  15.960 -0.0392 -0.1672  0.1753
 8609W        W24683   8.783   4.664  14.469 -0.1417 -0.1094 -0.0684
 8610W        W24684  13.774  14.156  11.491 -0.0712  0.0070 -0.0516
 8611W        W24685   5.199  11.284   4.711  0.0323  0.0951 -0.2497
 8612W        W24686   2.833   9.383   4.192  0.2847 -0.0692  0.1065
 8613W        W24687  13.252   6.536  14.173  0.1033  0.1256  0.0847
 8614W        W24688  16.606   0.424  14.623 -0.2136 -0.2223 -0.0488
 8615W        W24689   3.993   2.680   0.107 -0.1529  0.0699  0.0904
 8616W        W24690   7.449  10.565   2.892 -0.3021 -0.0614 -0.3070
 8617W        W24691  17.056  18.201   5.384 -0.2003 -0.1035 -0.2041
 8618W        W24692   7.783  15.467   4.929  0.0840 -0.1195  0.0467
 8619W        W24693  16.203  15.922   6.078 -0.1261 -0.1246 -0.0304
 8620W        W24694  15.676   7.778  11.297 -0.0158 -0.0316 -0.0988
 8621W        W24695   7.010   2.933  11.574 -0.0704  0.0694 -0.2863
 8622W        W24696   1.966   6.087   0.894  0.1351 -0.0344 -0.0177
 8623W        W24697   1.900   1.559   2.097 -0.0906  0.0444  0.2521
 8624W        W24698  11.079   9.803  13.583  0.0176 -0.0212 -0.0462
 8625W        W24699  16.802   1.686  15.938  0.1979 -0.4231  0.0790
 8626W        W24700   0.987   5.317  14.343 -0.0092  0.2105  0.0710
 8627W        W24701  11.434  13.431   2.476 -0.1456  0.1361  0.0902
 8628W        W24702   9.371   6.881  13.874  0.1252  0.1510 -0.0685
 8629W        W24703  15.740  11.485  11.533  0.2070 -0.1039  0.2898
 8630W        W24704  15.802   9.097   2.058  0.3193 -0.2110 -0.0691
 8631W        W24705  13.055   6.147   3.762  0.0516 -0.2341 -0.0938
 8632W        W24706  17.206   0.400  15.113 -0.0180 -0.2333  0.0103
 8633W        W24707  15.928   7.150   3.430 -0.0951  0.2199  0.0515
 8634W        W24708   0.360  15.066  12.984  0.0356 -0.0637  0.0173
 8635W        W24709  18.366   1.687   2.375  0.2306 -0.0884 -0.2952
 8636W        W24710   3.337   2.735   2.975  0.0636  0.1525 -0.1470
 8637W        W24711  12.949  12.605   3.916 -0.2374  0.0698  0.0351
 8638W        W24712  10.260  14.159   5.512  0.2511  0.0706 -0.2164
 8639W        W24713   9.638   5.899   2.029  0.1928  0.0141  0.0678
 8640W        W24714  18.401   7.559  12.914  0.0486 -0.1444 -0.1135
 8641W        W24715   9.099  14.190  14.305 -0.0433 -0.1984  0.0743
 8642W        W24716  13.098   3.724   4.402 -0.1941 -0.0141 -0.0833
 8643W        W24717   6.377   5.422  12.324  0.1057 -0.0197  0.0298
 8644W        W24718  18.549   6.687   4.776 -0.2323  0.1973  0.4258
 8645W        W24719   4.061  12.033   5.731 -0.1834 -0.0023  0.2714
 8646W        W24720   9.302   3.043  10.238 -0.4465  0.1027  0.0610
 8647W        W24721   7.041  18.357  15.170 -0.0601  0.0261 -0.0739
 8648W        W24722  17.288  11.075  11.380 -0.3709  0.0680 -0.1219
 8649W        W24723  16.408   4.430  12.956 -0.1969 -0.3745  0.0217
 8650W        W24724  11.359   2.977  13.005  0.0547  0.1641  0.0160
 8651W        W24725  12.619  12.379   5.656 -0.1247 -0.1013 -0.0753
 8652W        W24726  10.261  11.471  15.172 -0.0034  0.0184  0.1071
 8653W        W24727  14.091   8.028   0.337 -0.2984 -0.1032 -0.4670
 8654W        W24728  15.531   3.715  11.755 -0.1742  0.1836 -0.1741
 8655W        W24729  15.551   7.084   3.016 -0.3142 -0.0775 -0.0782
 8656W        W24730   5.541  15.352  14.350 -0.1615  0.1122 -0.2121
 8657W        W24731   4.118   2.987  14.649 -0.2668  0.1023 -0.2909
 8658W        W24732  13.521   0.157  13.729  0.5148  0.2091  0.2408
 8659W        W24733  16.851   1.481   5.556  0.2195  0.1033 -0.0475
 8660W        W24734   7.035  13.781  13.882 -0.2541  0.0097  0.2401
 8661W        W24735   0.768  16.248  14.926  0.0364  0.0847  0.2381
 8662W        W24736  13.445   9.172   0.003  0.2733  0.4060 -0.1191
 8663W        W24737   2.865  16.213  12.961  0.0123  0.0424 -0.3070
 8664W        W24738   5.543  12.977   4.386  0.1174  0.4624 -0.1348
 8665W        W24739  10.089  16.537   1.264  0.2384  0.2569  0.2821
 8666W        W24740  14.194  13.046   4.663  0.2519  0.0187 -0.4233
 8667W        W24741  17.959  12.157  13.893  0.1031 -0.0240 -0.2865
 8668W        W24742  17.051  14.885  14.974 -0.0589  0.2558  0.1185
 8669W        W24743  11.814   7.959   1.739 -0.2107  0.1102 -0.5171
 8670W        W24744   5.922  13.037  15.425 -0.1737 -0.0334  0.2698
 8671W        W24745   6.369   4.185  15.610 -0.1860  0.1306 -0.0058
 8672W        W24746   1.554  16.777   4.516  0.0181  0.1600 -0.3367
 8673W        W24747  13.212   0.202  11.856 -0.1476  0.0119 -0.1852
 8674W        W24748  14.815   1.610   0.751 -0.1920 -0.1404  0.4119
 8675W        W24749  14.346   8.074  11.623  0.2054 -0.2694  0.1075
 8676W        W24750   6.874  17.934   0.705  0.1862 -0.1542 -0.1704
 8677W        W24751  12.395   0.942   0.899  0.0583 -0.1377  0.2086
 8678W        W24752   7.575  13.078   1.881  0.0109 -0.1291 -0.2656
 8679W        W24753  16.192   0.063  13.300 -0.2266 -0.2122 -0.0266
 8680W        W24754  12.613   3.333  15.197 -0.1819 -0.2125 -0.0887
 8681W        W24755   7.706   4.726   0.148  0.0287 -0.0976  0.0773
 8682W        W24756  17.276   3.987   0.110  0.0288  0.0935 -0.1415
 8683W        W24757   6.263   4.383  14.013 -0.2476  0.2304 -0.3251
 8684W        W24758   3.152   1.868  14.883  0.2797  0.1080  0.1403
 8685W        W24759   5.031  14.494  14.423 -0.1376  0.2507  0.1857
 8686W        W24760  17.311  18.415  15.787  0.0398 -0.3967 -0.0383
 8687W        W24761   9.150   6.370   3.429  0.1260 -0.0378 -0.4178
 8688W        W24762   5.124   8.715  13.368  0.0731  0.2046  0.0716
 8689W        W24763  12.527   4.597   0.885 -0.1053  0.0186  0.1047
 8690W        W24764   6.731  12.989   2.239  0.1297 -0.0904  0.2754
 8691W        W24765  16.013   8.055  13.355 -0.0235 -0.0055  0.1981
 8692W        W24766   9.836   6.599   1.725  0.0235  0.1231 -0.0827
 8693W        W24767   1.146  13.964  14.588  0.3679 -0.0676 -0.3036
 8694W        W24768   2.457   4.230  13.800  0.1788  0.3723  0.2145
 8695W        W24769   0.464   0.184   5.788 -0.0936 -0.0680 -0.0481
 8696W        W24770   0.517   1.638   0.233 -0.4556 -0.1706 -0.0249
 8697W        W24771   0.422  10.731  14.983  0.1515  0.0023 -0.2666
 8698W        W24772  18.569  15.437  13.442  0.0704  0.1626  0.1171
 8699W        W24773  17.797   2.087  14.692  0.0479 -0.0799 -0.1173
 8700W        W24774  17.617   2.275   3.552  0.3887  0.1387  0.4221
 8701W        W24775  14.949  11.446   2.168 -0.1251 -0.0500  0.0826
 8702W        W24776  13.140   2.868   0.560  0.1555  0.2677  0.2617
 8703W        W24777   9.074   4.626   5.338  0.1324  0.3573 -0.0184
 8704W        W24778  12.517  17.675   9.876  0.0583  0.0324  0.0802
 8705W        W24779   4.140   6.313  12.676 -0.2472  0.1638 -0.0839
 8706W        W24780  14.392   4.989  12.774 -0.1891 -0.2515  0.0356
 8707W        W24781  16.514  15.747   5.115  0.1838  0.4194  0.2266
 8708W        W24782  12.293   2.591   2.240  0.1032 -0.1834 -0.0599
 8709W        W24783   2.566   7.674  12.264  0.0409  0.1619 -0.1379
 8710W        W24784   0.611   4.182  11.484 -0.0046  0.3198  0.1312
 8711W        W24785   2.506  10.972   4.650 -0.1206  0.2332 -0.2131
 8712W        W24786   0.000   2.248   4.498 -0.4970 -0.2226 -0.0454
 8713W        W24787   7.925   2.591  11.243 -0.3189  0.0948  0.0436
 8714W        W24788   2.538   6.982   2.556  0.3497 -0.1985  0.1910
 8715W        W24789  10.411   8.649  13.755 -0.0562 -0.1943 -0.1397
 8716W        W24790   9.946  13.466  14.545 -0.1030  0.2813 -0.3323
 8717W        W24791   8.913   9.043  12.568  0.0830  0.2970  0.0643
 8718W        W24792  12.768   2.613   5.374 -0.0361 -0.0154  0.0070
 8719W        W24793   5.509   8.663  13.781  0.1842 -0.0510  0.1646
 8720W        W24794  16.556  13.781   4.966  0.1585 -0.0611 -0.0066
 8721W        W24795  14.329   9.906  13.242 -0.0305  0.1226  0.0867
 8722W        W24796   4.479  17.867   1.734  0.1715  0.0220 -0.0559
 8723W        W24797   7.018  11.683  14.919 -0.1049  0.0868  0.2540
 8724W        W24798   2.118   6.097  11.386 -0.2638 -0.1221 -0.1761
 8725W        W24799   7.230   0.549  12.013  0.1437  0.1164  0.4282
 8726W        W24800   8.309   7.866   1.706  0.1558 -0.2298 -0.2193
 8727W        W24801  16.036   1.020   3.614  0.1790 -0.1359  0.1105
 8728W        W24802  10.543  10.885   2.445  0.0930 -0.2526 -0.0082
 8729W        W24803  15.649  14.139   2.378  0.2254  0.1607 -0.0411
 8730W        W24804  15.673  11.547   0.878  0.2612 -0.1376  0.1091
 8731W        W24805   6.668   7.045  15.570 -0.1082 -0.1128  0.0515
 8732W        W24806   5.026   7.395   5.664 -0.0602 -0.0963 -0.1766
 8733W        W24807   9.606  15.537  13.640 -0.2679  0.1531  0.0031
 8734W        W24808   2.449   3.691  14.515 -0.0729  0.2542 -0.0252
 8735W        W24809   1.205   9.605   0.615  0.4207 -0.0292 -0.4150
 8736W        W24810   1.105  17.946  13.586  0.2150  0.1834 -0.0734
 8737W        W24811   7.699  15.685   2.083 -0.2366  0.1210  0.2079
 8738W        W24812  10.761   6.430  11.712 -0.3057 -0.1336 -0.2127
 8739W        W24813   0.879  18.321   1.469  0.0350  0.0930 -0.3184
 8740W        W24814   5.328   3.128   4.898  0.0132 -0.1336 -0.0631
 8741W        W24815   4.003   6.525  15.398 -0.0251 -0.2771  0.0040
 8742W        W24816   3.582  15.905   2.132  0.0800 -0.0440  0.1141
 8743W        W24817  10.539  17.281   6.257  0.2160  0.1045 -0.3110
 8744W        W24818   9.852  11.332   2.123  0.2040 -0.0777 -0.1476
 8745W        W24819  14.472  11.252   5.015 -0.2918  0.3978 -0.2204
 8746W        W24820   0.328   3.737   2.586 -0.2587 -0.2288  0.1114
 8747W        W24821   0.307   2.827   2.931 -0.1274  0.1102  0.4180
 8748W        W24822  12.520  16.267   1.829  0.0113  0.0383 -0.0351
 8749W        W24823  12.114   5.308  16.000 -0.1514  0.0897 -0.2225
 8750W        W24824  15.614  12.661   2.725  0.4842 -0.2212  0.4206
 8751W        W24825  17.021  16.641  14.985 -0.0018  0.0951 -0.2205
 8752W        W24826  10.106   3.571  15.892  0.0037  0.0249 -0.0188
 8753W        W24827  11.167  15.734  11.949 -0.3330  0.1139  0.2880
 8754W        W24828   6.447   5.734   2.859 -0.3220 -0.0786 -0.1895
 8755W        W24829   0.775   8.051  12.967  0.2794  0.0981  0.0203
 8756W        W24830  14.382   2.724  11.451  0.0002 -0.1089  0.0727
 8757W        W24831   9.753  15.591   0.674  0.0426 -0.0630 -0.1908
 8758W        W24832   0.344  11.818   0.087  0.0114  0.2893 -0.0395
 8759W        W24833   0.829  16.998   3.600  0.3088 -0.1022 -0.0843
 8760W        W24834  12.343   9.015   1.439  0.0127 -0.0747  0.1915
 8761W        W24835   2.274  12.487   0.888  0.1473  0.0547  0.0116
 8762W        W24836  13.256  15.998   3.742 -0.1951  0.1403  0.2499
 8763W        W24837   1.615   0.367   3.685 -0.0145  0.2228 -0.0917
 8764W        W24838   9.627   8.148  12.885 -0.4238  0.0917 -0.0246
 8765W        W24839  16.786  11.567  14.404  0.1632 -0.4281  0.0891
 8766W        W24840  10.298  15.311   5.499  0.2226 -0.2347 -0.0767
 8767W        W24841  15.210   7.080   4.775  0.2135  0.1632  0.2193
 8768W        W24842  11.415   2.694  14.284  0.0837  0.0596  0.3080
 8769W        W24843  15.427   5.141  15.275 -0.0885  0.1743 -0.1560
 8770W        W24844  15.060  16.324  14.572  0.0839 -0.2305 -0.0399
 8771W        W24845   1.021  11.403   0.640 -0.1211  0.6118  0.0705
 8772W        W24846  10.248   4.751   3.975  0.5586 -0.2201  0.4262
 8773W        W24847  12.324   0.360   5.088 -0.4300 -0.1842  0.1258
 8774W        W24848  11.811   6.830  12.019  0.4146  0.1026  0.1222
 8775W        W24849   7.437   8.828   0.903 -0.4704  0.0288 -0.0478
 8776W        W24850  12.521  11.200   2.585  0.1877 -0.0230 -0.1469
 8777W        W24851   7.230  18.127  10.890  0.1619 -0.2190 -0.1471
 8778W        W24852  11.145  12.360   0.948 -0.0271 -0.3844  0.0506
 8779W        W24853  14.444  17.178   3.196  0.0482  0.0277 -0.2500
 8780W        W24854   5.340   3.180  12.558 -0.3092 -0.0875 -0.1107
 8781W        W24855   9.367   1.331   0.172 -0.2699 -0.2857 -0.0134
 8782W        W24856  18.171  11.566   4.264  0.2592  0.1471 -0.4665
 8783W        W24857  10.322   8.223  15.891  0.1913 -0.3400 -0.1116
 8784W        W24858   4.895   5.588  12.793  0.0673 -0.0464 -0.0362
 8785W        W24859  13.214   5.597  11.871  0.1889  0.2507  0.1195
 8786W        W24860  15.137   0.945   0.396  0.0154 -0.1414 -0.1680
 8787W        W24861  17.154   4.442   3.357  0.0498 -0.3451  0.0391
 8788W        W24862  12.127   1.456   1.185 -0.0046 -0.0797  0.1386
 8789W        W24863   1.173  12.455  15.509 -0.1324 -0.2287  0.2974
 8790W        W24864  11.606   7.354  15.148 -0.2207  0.1419 -0.0060
 8791W        W24865  17.919   0.450  15.695  0.2433  0.0580 -0.1202
 8792W        W24866   4.335   7.113   4.019  0.1077  0.3980  0.2626
 8793W        W24867   5.413  10.570   0.475  0.1123  0.0802 -0.0756
 8794W        W24868  10.889  12.758  11.903 -0.2881  0.1502  0.3302
 8795W        W24869   8.464   7.149  15.886 -0.3392 -0.1306 -0.2392
 8796W        W24870   9.963   7.062   3.065 -0.3186  0.0267 -0.2064
 8797W        W24871   6.321  12.152  15.183 -0.2924  0.1724  0.2020
 8798W        W24872  14.945  15.911   3.240 -0.6423  0.1693  0.0605
 8799W        W24873   0.105  11.218   2.092 -0.1532 -0.1392  0.3267
 8800W        W24874  14.860  17.576   2.340  0.1265  0.0742 -0.2928
 8801W        W24875   3.269  16.853   4.830  0.0840  0.1644  0.1182
 8802W        W24876  12.550   3.280   3.817  0.0700 -0.0529  0.0803
 8803W        W24877   8.706   9.175   0.631 -0.0118  0.0017 -0.0156
 8804W        W24878   5.201   7.149  12.866  0.0675 -0.3179  0.0469
 8805W        W24879  11.534   7.435   5.749  0.3282 -0.1050  0.0952
 8806W        W24880   8.821   5.570   1.774  0.0779 -0.2969  0.3551
 8807W        W24881  17.738  11.344   4.481 -0.2332 -0.0273 -0.2483
 8808W        W24882  13.459   7.739   4.677  0.1433  0.0489 -0.0193
 8809W        W24883  17.103   0.817   0.043 -0.1169  0.1456 -0.0688
 8810W        W24884   2.563  15.878  15.128 -0.0508 -0.3010 -0.2951
 8811W        W24885   6.859   4.096   0.697 -0.3643  0.0297  0.1465
 8812W        W24886  14.235  13.768  13.354 -0.1126 -0.1605  0.2968
 8813W        W24887  12.517   8.595   3.958  0.1394  0.0522  0.2193
 8814W        W24888   4.971  14.307   1.282  0.0035 -0.2050 -0.2322
 8815W        W24889   0.032  13.070   1.805  0.1535 -0.1729 -0.5710
 8816W        W24890  10.156  12.713  14.571 -0.1187  0.0759  0.2590
 8817W        W24891   4.202  14.998   2.437 -0.0722 -0.1448 -0.2781
 8818W        W24892  18.383   0.989   1.838  0.0698  0.0161  0.0371
 8819W        W24893  10.326   4.086  14.903  0.1538  0.1793  0.3151
 8820W        W24894   7.497   6.633   2.517 -0.1954 -0.1355 -0.0305
 8821W        W24895  12.610   2.642   0.075 -0.2410 -0.0244  0.0851
 8822W        W24896   1.546   5.119   6.226 -0.2361 -0.0749  0.2107
 8823W        W24897  16.809   0.379  13.163 -0.0325  0.1561 -0.3980
 8824W        W24898  13.843  10.673  11.476  0.0326  0.3289 -0.2660
 8825W        W24899  13.330  12.655   1.789  0.1754 -0.2144 -0.2505
 8826W        W24900  13.374  11.299   1.723  0.1396  0.0903 -0.1075
 8827W        W24901  16.808  15.032   5.580 -0.2827 -0.0740  0.0022
 8828W        W24902  10.169   8.936  15.900 -0.0026 -0.1687 -0.0575
 8829W        W24903   0.516   7.290  13.522  0.0428  0.0733 -0.0214
 8830W        W24904  13.522  11.531   2.355  0.0554  0.0386 -0.2325
 8831W        W24905   7.967   2.417   0.345 -0.2425  0.0809 -0.0428
 8832W        W24906   6.646  12.226   5.369 -0.0784  0.3385  0.3051
 8833W        W24907  15.708  15.337  14.621 -0.0655  0.1114 -0.0643
 8834W        W24908  15.952  12.776  12.902  0.0611 -0.1161  0.0233
 8835W        W24909   2.720  11.575   0.618  0.1020  0.1088  0.1627
 8836W        W24910  18.428   4.686  11.916  0.0648 -0.1536 -0.1472
 8837W        W24911   1.627   2.987  12.841  0.0154 -0.1686  0.1331
 8838W        W24912  13.616  16.543  13.311 -0.1308 -0.2652  0.2989
 8839W        W24913   3.932   3.220  13.145  0.0423 -0.1895 -0.0469
 8840W        W24914  13.432  10.524   4.687 -0.2017  0.0098  0.0199
 8841W        W24915  17.134   1.524   0.297 -0.1625 -0.2701 -0.0235
 8842W        W24916   1.781  16.071   3.274 -0.0283  0.2266  0.1899
 8843W        W24917  13.815  14.576   4.325 -0.1627 -0.1332  0.0689
 8844W        W24918   6.618   2.560  13.372  0.1004  0.2119  0.1715
 8845W        W24919   9.427  17.892   3.340  0.0483  0.5470 -0.2800
 8846W        W24920   3.277  12.300  12.273  0.0164 -0.1690  0.3369
 8847W        W24921  14.369   9.325  11.862 -0.3529  0.5297  0.0600
 8848W        W24922   5.354  10.477   2.557  0.2963 -0.2872  0.0515
 8849W        W24923   5.200  17.835   4.259 -0.0807  0.2575  0.0956
 8850W        W24924   6.192   6.139  14.553 -0.0860  0.1476 -0.0685
 8851W        W24925   5.385  10.987  13.620  0.1858 -0.0749  0.1205
 8852W        W24926   4.915   4.633  14.040 -0.3530  0.0751  0.1475
 8853W        W24927  11.041  17.641  12.391  0.0083 -0.0225  0.1335
 8854W        W24928   1.099   1.393   0.903 -0.0886  0.2339  0.2673
 8855W        W24929  13.354   4.582   4.349  0.1448  0.1393 -0.2830
 8856W        W24930  14.389  16.568   2.848 -0.3165  0.2049 -0.0185
 8857W        W24931  16.115   5.069   1.683  0.3155 -0.1314 -0.0101
 8858W        W24932   3.739   4.918   2.547  0.0259  0.0592  0.0180
 8859W        W24933  17.706   1.951  12.868 -0.1694  0.0993  0.5269
 8860W        W24934   2.985  13.925   3.235 -0.0823  0.1256  0.1496
 8861W        W24935  12.880   4.772   2.466  0.0909 -0.1569  0.0889
 8862W        W24936   3.450  11.299  13.044  0.2046  0.1482 -0.2068
 8863W        W24937   4.491   4.234  15.901 -0.1746 -0.0468  0.3022
 8864W        W24938   7.176  16.246  12.883 -0.2446 -0.1113 -0.0016
 8865W        W24939   4.347   0.579   4.846 -0.1559 -0.0256  0.0681
 8866W        W24940   4.971  18.557   4.926  0.0174  0.1831  0.3941
 8867W        W24941  10.323  11.201   0.924  0.1984  0.1024 -0.0790
 8868W        W24942  16.407   3.153  13.632 -0.0476  0.1645 -0.0362
 8869W        W24943   8.599  17.901  14.839  0.0190 -0.1503  0.1730
 8870W        W24944  10.262   0.075  11.426  0.0721 -0.2030 -0.0095
 8871W        W24945   0.320   3.452   2.104 -0.1838 -0.0761 -0.1954
 8872W        W24946   8.341   8.861  15.890  0.1354 -0.3767  0.0889
 8873W        W24947  10.357  12.529   0.552  0.3498 -0.1986 -0.1245
 8874W        W24948   0.050  11.620  13.996 -0.1371 -0.1658  0.0277
 8875W        W24949   4.039   9.828  15.682  0.1341 -0.0033 -0.0667
 8876W        W24950  16.953  14.584  15.540  0.3990  0.0891 -0.1361
 8877W        W24951   5.571  15.526  15.991  0.2451 -0.2269  0.0375
 8878W        W24952   2.677  10.985   5.473 -0.2027 -0.0487  0.0642
 8879W        W24953  12.883  17.882  10.907  0.0871  0.1139 -0.1160
 8880W        W24954  11.852  14.160  11.502 -0.1112 -0.0465 -0.2396
 8881W        W24955  10.499   8.239   3.733 -0.3443  0.0062 -0.0885
 8882W        W24956   1.702  15.515  12.727 -0.0481 -0.0475  0.0818
 8883W        W24957   1.048   3.358  10.450 -0.0261 -0.0833  0.2807
 8884W        W24958   7.624  13.696  14.159 -0.1008 -0.2160  0.3266
 8885W        W24959   6.418   7.812  14.907  0.0072  0.0857  0.0353
 8886W        W24960   7.790   0.878   0.141  0.2492 -0.0390  0.0657
 8887W        W24961   8.994   4.230   3.271 -0.0561 -0.2122  0.0882
 8888W        W24962  18.468   5.369   3.566  0.6914  0.0640 -0.0651
 8889W        W24963   4.051   2.327   3.730  0.1731 -0.0320 -0.0074
 8890W        W24964   5.217   1.400  12.399  0.5143  0.0093 -0.0717
 8891W        W24965   5.354  16.686  14.707 -0.0327 -0.2223 -0.1017
 8892W        W24966  17.712   2.106  15.661  0.1877  0.0520  0.2186
 8893W        W24967  18.055   5.099  15.982 -0.0507 -0.5597  0.3338
 8894W        W24968   3.905   6.710  11.237 -0.2526  0.2661  0.3775
 8895W        W24969  11.428   8.815  11.699  0.0726  0.1226  0.0251
 8896W        W24970   2.809  10.090  12.891 -0.0409 -0.0045 -0.0635
 8897W        W24971   7.760  15.263  15.063 -0.0655 -0.0715  0.0187
 8898W        W24972  16.902  13.713   0.456 -0.2472 -0.0463  0.1008
 8899W        W24973  15.323   3.580   3.913 -0.2189  0.1814 -0.1092
 8900W        W24974   0.499  15.176  14.659 -0.0075 -0.0624 -0.1302
 8901W        W24975   8.397  10.087  12.477 -0.1697  0.0087 -0.2377
 8902W        W24976   3.613   0.191  12.120  0.0410 -0.0545 -0.0202
 8903W        W24977   2.425  14.292  15.038  0.2147 -0.0864 -0.0223
 8904W        W24978   5.066   4.987  13.612 -0.1181 -0.1517 -0.0083
 8905W        W24979  13.128  16.754  13.131 -0.0215  0.0106 -0.0321
 8906W        W24980  11.933   8.357  14.873  0.1459 -0.0750  0.3537
 8907W        W24981   3.193   5.997   5.589  0.2087 -0.0670  0.1619
 8908W        W24982  12.797  14.165   4.990  0.2617 -0.1520  0.1752
 8909W        W24983   7.282   4.038   4.327  0.3530 -0.2903  0.0172
 8910W        W24984  10.520   3.202  11.600  0.0669 -0.1102  0.0468
 8911W        W24985   9.487  11.429  12.734 -0.1110  0.1900  0.1643
 8912W        W24986   2.176  15.864  11.726 -0.0420 -0.2324  0.2712
 8913W        W24987   1.621  16.334   2.819  0.1007  0.0081 -0.2236
 8914W        W24988   9.577   2.541  14.809  0.2607 -0.0810 -0.0829
 8915W        W24989   9.594   0.752   1.335  0.2694  0.3195  0.1104
 8916W        W24990   9.524   8.457   4.845  0.3895  0.0087  0.2538
 8917W        W24991   6.052  16.864  15.337 -0.0385 -0.0796 -0.0478
 8918W        W24992   8.651  14.365  12.612  0.0756  0.1753  0.1228
 8919W        W24993  11.324  10.013   3.483 -0.3660 -0.1747  0.1030
 8920W        W24994   6.930  12.262   2.981 -0.3083  0.1155 -0.0009
 8921W        W24995   5.874  10.850   5.082  0.0252  0.0342 -0.0846
 8922W        W24996   7.112   1.740  13.289 -0.0154  0.0299  0.1170
 8923W        W24997  13.171   3.231  10.902 -0.2228 -0.2194 -0.0591
 8924W        W24998   5.686   1.604   3.192 -0.2866 -0.2538 -0.0589
 8925W        W24999   6.155   4.260  13.516 -0.1063 -0.2566 -0.1175
 8926W        W25000  10.955   0.927   4.275  0.0439 -0.0308  0.4396
 8927W        W25001   6.969  15.627   1.301 -0.2100 -0.1297 -0.0545
 8928W        W25002  17.858  12.218   0.538  0.1487  0.1967  0.0010
 8929W        W25003   7.885   3.182  15.177 -0.0212  0.1168  0.0855
 8930W        W25004   4.581  13.903  15.747 -0.2415 -0.0547  0.2250
 8931W        W25005   4.296  11.923   5.233 -0.1829  0.0648  0.0518
 8932W        W25006   9.301   8.916   6.063 -0.1136  0.3272  0.0697
 8933W        W25007  15.606  17.094  12.429 -0.2071 -0.0062  0.1220
 8934W        W25008   1.814  11.761   4.100 -0.1790 -0.1391  0.1796
 8935W        W25009   2.410   2.905  11.791 -0.0671  0.3148 -0.1376
 8936W        W25010  14.862  17.734   1.527  0.4638 -0.1903  0.1490
 8937W        W25011  12.588  13.674  14.541  0.2270 -0.2218  0.0970
 8938W        W25012   6.015  10.613   3.153  0.0281  0.1202 -0.0848
 8939W        W25013  16.680   5.494   3.131 -0.0925 -0.0668 -0.3623
 8940W        W25014  16.942  16.207  11.518 -0.0822 -0.1096 -0.1189
 8941W        W25015  13.360  17.037  10.652  0.0870 -0.0382 -0.2684
 8942W        W25016  17.844   5.638   0.239 -0.3226  0.3997 -0.0350
 8943W        W25017  11.558   5.565   5.335  0.2433  0.3521  0.4654
 8944W        W25018   4.861   7.707  15.953 -0.2598  0.0206  0.3607
 8945W        W25019  11.629   8.724   3.887 -0.1978  0.1347 -0.1564
 8946W        W25020   6.413   4.821  13.790 -0.2674 -0.4847  0.0892
 8947W        W25021  18.064   3.111   9.951 -0.1224  0.0519 -0.2959
 8948W        W25022  16.911   1.825   5.176 -0.0212 -0.2464 -0.0219
 8949W        W25023  11.050  11.072   2.534 -0.2691  0.4292 -0.0236
 8950W        W25024  18.469   5.139   0.996 -0.4704  0.0155  0.0264
 8951W        W25025  18.519  18.138   1.349 -0.2568 -0.0893 -0.0492
 8952W        W25026   4.839   5.718  14.901 -0.1434  0.2404 -0.1469
 8953W        W25027  12.499  12.226  11.668 -0.0483 -0.1559  0.0650
 8954W        W25028   1.339   8.330   5.785 -0.2272  0.4165  0.1087
 8955W        W25029   6.593  15.744   0.986 -0.2806 -0.1289 -0.0084
 8956W        W25030   3.096  11.230   1.465  0.0494  0.3498 -0.0182
 8957W        W25031   3.754   7.962   2.642 -0.1089  0.5089  0.0331
 8958W        W25032   7.972   9.711  15.266 -0.0317  0.0326 -0.2434
 8959W        W25033   3.623  12.112  13.248 -0.0894  0.1252  0.1566
 8960W        W25034  16.599  18.515   5.945  0.1560 -0.2225  0.2384
 8961W        W25035   2.085  14.718  11.856 -0.0413  0.0149  0.1739
 8962W        W25036   9.118  10.968  12.712  0.0950  0.4354 -0.0116
 8963W        W25037  16.279  16.311  10.791 -0.0494  0.0892  0.0647
 8964W        W25038  18.204  11.767  15.021 -0.4459  0.2979 -0.1228
 8965W        W25039   0.433   6.203   0.742 -0.0248  0.3259  0.0941
 8966W        W25040  16.370   2.277   5.416  0.0338 -0.2667 -0.1116
 8967W        W25041   5.621   8.948  12.060 -0.0004  0.1778  0.2731
 8968W        W25042   2.345  14.644   0.019  0.0944  0.0044 -0.0115
 8969W        W25043   7.985   9.144   0.104  0.1049  0.4059 -0.0282
 8970W        W25044  11.805  17.245  11.106 -0.2787 -0.2439 -0.0821
 8971W        W25045  14.669   0.705  11.326  0.1686 -0.0040 -0.3348
 8972W        W25046   4.942   7.684   0.716 -0.1271 -0.0644  0.1404
 8973W        W25047   5.258   2.783   1.865 -0.1512  0.0986 -0.0429
 8974W        W25048  14.865   8.418   2.885 -0.0566 -0.0455 -0.3555
 8975W        W25049   5.442   2.650   0.533 -0.1115 -0.0982 -0.1480
 8976W        W25050  10.440  10.580   4.372 -0.1345 -0.1563  0.0020
 8977W        W25051  13.970  13.512  13.843  0.0935  0.0503 -0.0355
 8978W        W25052   1.057   5.367  12.602  0.3704 -0.0132  0.1549
 8979W        W25053   4.041  14.509  15.816  0.1883  0.0723  0.0193
 8980W        W25054  18.199  10.577  12.357  0.0358  0.0435  0.1069
 8981W        W25055   6.634  10.012   3.122  0.6556  0.0856 -0.2440
 8982W        W25056  10.502   9.895  13.764 -0.0081 -0.2059  0.1773
 8983W        W25057  10.879  12.101  14.205  0.0245 -0.0171 -0.2829
 8984W        W25058  10.764   3.165  13.868  0.1135 -0.0162  0.0971
 8985W        W25059  15.146  15.939   3.689  0.1377  0.1017  0.0435
 8986W        W25060  11.134   8.919   4.609 -0.0422 -0.0649 -0.0102
 8987W        W25061  12.496   5.199  15.533 -0.1584  0.0194 -0.1478
 8988W        W25062   5.585  13.234   3.635 -0.0995 -0.0858 -0.3569
 8989W        W25063   0.631  15.817   3.135  0.2105  0.1878  0.2633
 8990W        W25064   6.944   6.437   1.798 -0.0452 -0.1775  0.1095
 8991W        W25065   6.106   3.669   2.317 -0.1009  0.2680  0.0150
 8992W        W25066   5.970  13.521  13.115  0.0315 -0.0384  0.0193
 8993W        W25067   2.924   7.566   5.597  0.2730 -0.0874  0.0355
 8994W        W25068   4.415  12.458   3.760  0.2538 -0.0928  0.1090
 8995W        W25069  11.226   9.973  12.346 -0.0526  0.2665  0.2574
 8996W        W25070   2.528  17.555  13.418 -0.0688 -0.0466 -0.0415
 8997W        W25071  10.220   9.671   2.886 -0.0987  0.2169  0.2025
 8998W        W25072   8.121   5.599   3.775 -0.1450 -0.0561  0.2968
 8999W        W25073  18.080  16.093  12.213  0.0969 -0.2181 -0.0374
 9000W        W25074   8.709   4.234  11.916  0.1089  0.0870 -0.0387
 9001W        W25075  11.938   3.268   1.301  0.3186 -0.0971 -0.0790
 9002W        W25076   5.693   2.434   1.599  0.1951 -0.1029  0.2339
 9003W        W25077   7.851   9.908   4.551  0.1225  0.2923  0.2091
 9004W        W25078   5.418   1.587  14.692 -0.0041  0.3110 -0.0226
 9005W        W25079   1.614  16.499   2.068 -0.1129  0.0878 -0.0924
 9006W        W25080  14.360  13.426   4.321 -0.2221 -0.2093 -0.1470
 9007W        W25081  14.756  17.651  15.223  0.0995 -0.2348 -0.3404
 9008W        W25082  12.579  14.349  14.525  0.1107  0.0706  0.0378
 9009W        W25083  17.542  15.972  15.866 -0.1910 -0.2860 -0.0335
 9010W        W25084   6.949   8.193   0.303 -0.2011  0.0202 -0.0754
 9011W        W25085   2.999   6.607   2.318  0.3042  0.2397  0.2986
 9012W        W25086  17.713  15.323   0.204 -0.4364 -0.4018 -0.1502
 9013W        W25087   0.824   0.650  13.888 -0.2165  0.2118  0.0603
 9014W        W25088  16.830  13.928  14.515 -0.0983 -0.0283 -0.0510
 9015W        W25089  15.498   5.709   2.240 -0.2018  0.2397 -0.0371
 9016W        W25090   0.636  11.404  14.794  0.3647 -0.0842  0.2580
 9017W        W25091   6.827   1.519  12.894  0.0232 -0.0377  0.2777
 9018W        W25092  14.617  14.836  15.339 -0.2501  0.2475 -0.2911
 9019W        W25093   8.603  12.014   3.891 -0.1109 -0.1242 -0.1838
 9020W        W25094   3.056   1.955   1.431  0.1465 -0.2196 -0.0829
 9021W        W25095  12.781  12.038  12.024 -0.2955  0.1143 -0.0001
 9022W        W25096   6.204  15.403   0.752 -0.0564 -0.2715  0.0038
 9023W        W25097   3.460   2.458   0.527 -0.0375 -0.1265  0.0352
 9024W        W25098   9.163   5.425  12.068 -0.1165  0.1845 -0.2875
 9025W        W25099   9.132  12.781  13.214 -0.0300 -0.2038  0.5085
 9026W        W25100   0.421   6.430  11.610 -0.2338 -0.0590 -0.1400
 9027W        W25101  16.193  12.732   3.917  0.0839  0.1426 -0.1493
 9028W        W25102   8.996   6.301  12.003 -0.2315  0.1197 -0.0207
 9029W        W25103  11.435  11.407  12.150 -0.2622 -0.0102  0.2784
 9030W        W25104   2.628   9.281   3.285 -0.0928  0.4314  0.0082
 9031W        W25105  14.251  10.701   0.484  0.1915  0.3016 -0.0632
 9032W        W25106   3.664   3.111   2.027 -0.0603  0.2393 -0.0332
 9033W        W25107  17.449   3.672   4.254 -0.0581 -0.4361 -0.0424
 9034W        W25108   2.896  13.985   1.594 -0.3228 -0.0458  0.0314
 9035W        W25109  10.112   4.932   2.138 -0.0688  0.1847  0.1449
 9036W        W25110   9.041  11.732   3.286  0.0909 -0.2175 -0.1713
 9037W        W25111   1.621  10.818   0.945 -0.1450  0.1006 -0.0057
 9038W        W25112   7.083   6.948   3.216  0.1604  0.2761 -0.1829
 9039W        W25113   6.181  14.718  14.256  0.0210 -0.0540 -0.0271
 9040W        W25114   5.128   6.890  10.950 -0.0197 -0.1956 -0.0894
 9041W        W25115  17.773   0.765  10.935  0.2412 -0.1941 -0.0637
 9042W        W25116  13.164   7.383  12.801  0.2041  0.1222  0.4962
 9043W        W25117  14.560   3.575  11.966 -0.0157 -0.1026 -0.0017
 9044W        W25118   0.741  13.190   4.975  0.1147 -0.2584 -0.2425
 9045W        W25119   2.062   9.977   3.175 -0.0990 -0.0153  0.0089
 9046W        W25120   7.375   9.274   6.177 -0.0769  0.0319 -0.0346
 9047W        W25121   2.788   4.948  15.182  0.2152 -0.2588 -0.0022
 9048W        W25122   4.350   3.401   0.227 -0.0329  0.0660 -0.1660
 9049W        W25123  17.374   3.621  14.240  0.0001  0.2778  0.0660
 9050W        W25124  13.812  13.399   5.709 -0.0646 -0.0301 -0.0112
 9051W        W25125   8.893   3.391   2.217  0.0051 -0.1630 -0.1017
 9052W        W25126   4.064   6.207   2.356  0.2521 -0.0285  0.0488
 9053W        W25127   3.503  12.565   3.914  0.0227 -0.5006  0.3686
 9054W        W25128  16.838  10.897   1.899  0.0821 -0.1384 -0.0664
 9055W        W25129   8.850   5.851  11.949  0.2094  0.3150 -0.0301
 9056W        W25130   8.262   9.291   5.665 -0.0347 -0.0913  0.0691
 9057W        W25131  14.996  16.286   4.888  0.2109 -0.1396 -0.2249
 9058W        W25132   6.191   0.328   3.206 -0.1970 -0.3076 -0.2905
 9059W        W25133  16.794   9.262   1.509 -0.0232  0.1178  0.1085
 9060W        W25134  12.964  11.167  14.244 -0.3993 -0.2511 -0.0526
 9061W        W25135   8.933  14.465   0.140  0.1169  0.1095  0.1577
 9062W        W25136   4.907  11.789   5.944 -0.2122  0.2684 -0.1176
 9063W        W25137   4.028   1.231  12.945  0.4441 -0.6504  0.1648
 9064W        W25138   0.640   4.521  13.300  0.0750 -0.2552  0.0533
 9065W        W25139  16.799   8.152   0.949 -0.0172  0.0914 -0.3548
 9066W        W25140   6.597  16.814   3.299 -0.0230 -0.3389  0.1653
 9067W        W25141   1.400  11.763  14.241 -0.1987 -0.1492  0.0007
 9068W        W25142   6.049   8.895   3.278 -0.2916 -0.2405  0.1108
 9069W        W25143   3.662   1.115  13.263 -0.2975  0.3481  0.0963
 9070W        W25144  10.210   5.625   5.046 -0.2560  0.1508 -0.3178
 9071W        W25145   9.460   1.654  11.114  0.1146 -0.1566  0.4122
 9072W        W25146   6.057   2.491   1.947  0.0522 -0.2467 -0.1585
 9073W        W25147   6.598  10.367  13.145 -0.1881 -0.2048  0.1810
 9074W        W25148   7.964   2.727  14.905 -0.1467  0.1241 -0.1150
 9075W        W25149   6.141  14.761  13.759  0.0199  0.2961  0.1585
 9076W        W25150   0.995   3.300  14.319 -0.0342 -0.4146 -0.1783
 9077W        W25151   1.895   4.519   2.536  0.0416  0.0594 -0.2453
 9078W        W25152  16.798  18.441   4.522 -0.1057 -0.0649  0.1776
 9079W        W25153  14.474  13.728   3.009 -0.1641  0.2210  0.0586
 9080W        W25154  17.211  18.460  11.917 -0.0259  0.1358 -0.0254
 9081W        W25155   4.840   7.057   5.988 -0.1422 -0.0919 -0.0497
 9082W        W25156  11.864   4.673   5.821  0.3749 -0.1227 -0.0460
 9083W        W25157  15.543   1.808   5.071  0.0441 -0.2302 -0.0389
 9084W        W25158   6.556   5.929  12.457 -0.1227  0.0835  0.0065
 9085W        W25159  14.703  17.098   0.393 -0.2539 -0.0148 -0.2041
 9086W        W25160   3.671   0.827  10.883 -0.0345 -0.3092 -0.3411
 9087W        W25161   4.975  13.989   5.385 -0.3010  0.2227  0.1218
 9088W        W25162   1.157  11.752   1.857  0.1119 -0.1982 -0.1187
 9089W        W25163   3.792  17.231   3.083 -0.1979  0.1473  0.0431
 9090W        W25164   8.858  13.870  15.982 -0.0335  0.0779  0.4325
 9091W        W25165  12.505   7.331  13.738  0.0256 -0.0577 -0.0451
 9092W        W25166  15.944   1.895   3.909 -0.2506 -0.1846 -0.3618
 9093W        W25167  14.535   7.150   4.125  0.0159 -0.1061  0.4577
 9094W        W25168  13.445  11.344  14.895 -0.0592 -0.1044  0.2021
 9095W        W25169  14.024   3.147   1.328  0.2918 -0.1714 -0.1210
 9096W        W25170   9.034  16.008   1.902 -0.0221  0.2846 -0.0226
 9097W        W25171   1.456   8.349  14.514 -0.2990  0.1727  0.1895
 9098W        W25172   9.815   5.335  13.080  0.1223  0.0287  0.0771
 9099W        W25173  18.433   3.282  11.192  0.3127  0.0543 -0.1094
 9100W        W25174  13.219   7.563  10.966  0.0107 -0.1555  0.0249
 9101W        W25175  14.509   2.706  12.482 -0.1119 -0.0031  0.0771
 9102W        W25176   1.429  11.666   0.870 -0.1588  0.3076 -0.0424
 9103W        W25177  12.952  17.200  13.410  0.1129  0.2345  0.2744
 9104W        W25178  10.805   1.551  14.094  0.1283 -0.0000  0.1227
 9105W        W25179   7.098  15.518  13.674 -0.1248 -0.4006  0.1725
 9106W        W25180  14.524  13.411   3.865 -0.2309  0.1494 -0.0079
 9107W        W25181   4.184   2.794   4.176  0.2419  0.0359  0.2088
 9108W        W25182   4.941  16.678   2.510 -0.1915 -0.1328  0.0731
 9109W        W25183   4.707  15.820   4.106  0.1920 -0.0649 -0.3582
 9110W        W25184  11.284   1.013  14.971  0.1716 -0.2959 -0.0004
 9111W        W25185  13.914   3.931   0.566  0.1828  0.0682 -0.0574
 9112W        W25186  11.245   3.798  14.904 -0.2080  0.0030 -0.0387
 9113W        W25187  15.279   1.740  10.918 -0.0990  0.3173  0.0167
 9114W        W25188   1.593   9.484   5.608 -0.0935 -0.0137  0.4270
 9115W        W25189   9.474  11.928  15.322 -0.2802  0.0167 -0.2675
 9116W        W25190  16.773   2.734  12.350  0.1367 -0.1262  0.1730
 9117W        W25191   5.958  13.138   2.699  0.1768  0.0401  0.1477
 9118W        W25192  12.343  16.352  11.741 -0.1733 -0.3035  0.0014
 9119W        W25193   5.658   3.861  15.926 -0.0380 -0.1201  0.1205
 9120W        W25194  10.553  11.020   1.990  0.1831  0.1622 -0.1036
 9121W        W25195   0.822   1.669  14.995  0.2409  0.1043  0.0315
 9122W        W25196   1.980   0.522  14.522 -0.0711 -0.1025 -0.0241
 9123W        W25197   4.492   1.468   0.818  0.0354  0.5142  0.0715
 9124W        W25198   6.117  17.221   5.329  0.0403 -0.0676 -0.0981
 9125W        W25199  10.041   6.620   5.231 -0.0973 -0.2150 -0.2095
 9126W        W25200   4.065   4.317   1.333 -0.0681 -0.2490 -0.2606
 9127W        W25201   7.676   2.625   1.171  0.2126  0.1952 -0.0524
 9128W        W25202   4.092   4.013  12.694 -0.0986  0.0817  0.1485
 9129W        W25203   4.345   1.265  10.541 -0.0966  0.2463 -0.0475
 9130W        W25204  17.653  12.381  15.963  0.0672 -0.1627 -0.3383
 9131W        W25205  10.120  10.812  11.198 -0.2298 -0.2722  0.1566
 9132W        W25206  13.529   4.004   4.278 -0.1836 -0.1751  0.1277
 9133W        W25207  14.282  12.613  14.902 -0.2303 -0.0885 -0.0537
 9134W        W25208   4.453  10.870  13.642 -0.1771 -0.0811  0.1875
 9135W        W25209  14.540   2.509   2.889 -0.0071 -0.1201 -0.1050
 9136W        W25210   8.647  18.367   3.168  0.0032  0.1178  0.1624
 9137W        W25211   6.915  12.673   0.438 -0.1175 -0.1859 -0.0927
 9138W        W25212  15.994  18.503  10.963 -0.0335  0.1077 -0.2891
 9139W        W25213   6.536  14.209  11.277 -0.1121  0.0154 -0.0298
 9140W        W25214   5.612  11.364  13.867 -0.0715  0.1303  0.2419
 9141W        W25215   6.088  11.507  14.102  0.2879 -0.2949  0.0617
 9142W        W25216   2.108   8.395   7.704 -0.1223 -0.1326 -0.1504
 9143W        W25217   6.589   7.618   3.158 -0.0161 -0.1990  0.1179
 9144W        W25218   7.841  10.622  14.250 -0.4437  0.2286  0.2960
 9145W        W25219   6.797   0.836  12.118 -0.0259  0.2539  0.0723
 9146W        W25220   3.011   3.866   2.553 -0.1610 -0.3221  0.0415
 9147W        W25221   4.961   5.784   5.704  0.1449 -0.2675  0.2982
 9148W        W25222  17.859   6.735  13.765  0.0389  0.1937 -0.0026
 9149W        W25223   2.538   6.033   2.277 -0.0775 -0.2481 -0.1336
 9150W        W25224   6.290  14.597  12.904  0.1804  0.0696 -0.1375
 9151W        W25225   4.253   3.355  14.279  0.3608 -0.1153 -0.2830
 9152W        W25226   3.423   4.689  11.834 -0.0677  0.2228  0.0283
 9153W        W25227  18.505  14.678   4.669 -0.1119 -0.1205 -0.0526
 9154W        W25228  16.413   4.067  15.600 -0.1962 -0.2710  0.2243
 9155W        W25229   2.810  14.839  14.241 -0.1779  0.0052 -0.1531
 9156W        W25230   7.568   0.304   3.604 -0.1469 -0.1017 -0.2120
 9157W        W25231  13.840   1.357  11.063 -0.1388  0.2087  0.0292
 9158W        W25232   8.102  11.010  14.364 -0.1669 -0.2217 -0.0052
 9159W        W25233  17.143  17.609  12.190  0.0226  0.2616 -0.1033
 9160W        W25234   7.456   0.498  14.165  0.2123 -0.0320  0.0433
 9161W        W25235  11.479   9.247  14.599  0.0184  0.0385 -0.0860
 9162W        W25236   0.646   9.016  15.044 -0.5013  0.1847  0.3572
 9163W        W25237  15.912  10.333   0.362  0.3107  0.2162  0.2692
 9164W        W25238  15.137  10.808  14.735 -0.3735 -0.0522 -0.1629
 9165W        W25239   6.783  13.228  11.413  0.0630 -0.1215  0.1605
 9166W        W25240  10.880  14.687  12.337  0.1697 -0.1602  0.0042
 9167W        W25241   6.560   2.122  14.700 -0.1008 -0.0239 -0.0982
 9168W        W25242   1.737   9.476   1.886  0.1981 -0.0953  0.2764
 9169W        W25243   6.677  16.797   0.110  0.0085  0.1768  0.5016
 9170W        W25244  15.577   4.432  12.870  0.0199 -0.0291 -0.0090
 9171W        W25245   7.546  11.485  13.876 -0.1074 -0.1080 -0.0099
 9172W        W25246   8.154   7.259  13.943 -0.0258 -0.0238  0.3311
 9173W        W25247   8.011   8.512  12.244  0.0670  0.0918 -0.1309
 9174W        W25248  17.680   4.877   0.546  0.0590 -0.1093  0.0094
 9175W        W25249   0.004   8.662   4.576 -0.2104 -0.0828 -0.1192
 9176W        W25250   7.840  13.465   3.239  0.0743 -0.1616 -0.0935
 9177W        W25251  10.317   6.391  12.522 -0.0479 -0.1793  0.0935
 9178W        W25252  14.373  13.812   3.501  0.2621 -0.0185 -0.0459
 9179W        W25253  10.079  12.837   0.151  0.0442  0.0337  0.1587
 9180W        W25254   6.408   3.717  15.538  0.1777 -0.0149  0.1048
 9181W        W25255  15.543  10.755   3.400 -0.0747  0.4203  0.2874
 9182W        W25256  16.250   3.468   2.081 -0.0607  0.5220 -0.1256
 9183W        W25257   2.976   9.417  14.779  0.0397  0.1030 -0.2827
 9184W        W25258   0.192   6.427   2.917 -0.1985 -0.3429  0.2923
 9185W        W25259  15.147   8.080   4.903  0.1911  0.0587  0.1969
 9186W        W25260  12.040   1.053   2.123  0.3916 -0.0644  0.0754
 9187W        W25261  10.396  16.264  14.138 -0.1213 -0.1596  0.2070
 9188W        W25262   9.307  15.334  15.333 -0.3032  0.0477  0.2926
 9189W        W25263   9.193   1.634   1.365  0.0939  0.1690  0.1722
 9190W        W25264  17.764   2.898   2.610 -0.0955 -0.1884  0.0883
 9191W        W25265  17.190   1.768  15.656 -0.0300  0.2170 -0.0020
 9192W        W25266  11.252  14.760  14.874 -0.4940  0.0295 -0.1382
 9193W        W25267  14.455  16.581  12.728 -0.0879 -0.1321 -0.0965
 9194W        W25268  16.831  16.830  12.760 -0.0133 -0.2222  0.0361
 9195W        W25269   4.431  10.804   0.179 -0.0436  0.4004 -0.1139
 9196W        W25270  13.271   9.816  15.791 -0.1960 -0.0401  0.0250
 9197W        W25271  17.309   1.333  13.620  0.0555 -0.0491  0.0695
 9198W        W25272  15.362  13.627  15.453  0.0226  0.0699  0.1914
 9199W        W25273   4.430  15.635  13.030 -0.0197 -0.1945 -0.2156
 9200W        W25274   0.677   6.420   3.519 -0.1828  0.0846  0.1927
 9201W        W25275   4.956  11.884  14.016 -0.1150 -0.1751  0.4296
 9202W        W25276   7.035  13.907   0.739 -0.0489 -0.3412  0.1210
 9203W        W25277   7.007  16.609  12.323 -0.1086  0.1830  0.0518
 9204W        W25278  15.345  14.549  14.090  0.0550  0.0382  0.1171
 9205W        W25279   3.608   4.383  15.068 -0.1563 -0.0132 -0.0559
 9206W        W25280   6.147   2.359  13.543 -0.1227  0.0623 -0.2239
 9207W        W25281  12.024   3.884  14.484  0.1119 -0.0187  0.0635
 9208W        W25282   8.894   5.493   3.223 -0.1551  0.1311  0.3676
 9209W        W25283  15.903   1.961   0.068 -0.1715  0.1340  0.2008
 9210W        W25284   4.689  10.498   4.861 -0.0662 -0.3571  0.2600
 9211W        W25285  15.481  17.858   4.118  0.4063  0.2866 -0.0385
 9212W        W25286   5.424  10.021  12.825 -0.2195 -0.0413 -0.2374
 9213W        W25287   8.092   3.543   0.965  0.0490 -0.0028  0.0453
 9214W        W25288   6.443  16.365   3.519 -0.0988 -0.0269 -0.0369
 9215W        W25289  10.976  17.569  15.765  0.1771  0.2152  0.1932
 9216W        W25290   4.351  16.403   0.402 -0.2994 -0.0516 -0.1013
 9217W        W25291  15.074   3.515   1.646  0.3034  0.1071  0.4176
 9218W        W25292   2.822  18.414   2.315  0.1657  0.1165  0.1239
 9219W        W25293   0.460   2.775  13.636 -0.1030  0.2059  0.1185
 9220W        W25294  11.137  12.338  14.563  0.1474  0.1839 -0.0646
 9221W        W25295   2.798  17.403  12.202  0.0125 -0.1498 -0.1098
 9222W        W25296  11.987   4.287   4.290 -0.2544  0.2797 -0.0502
 9223W        W25297  11.507   3.292   5.791 -0.2377 -0.2426  0.0325
 9224W        W25298  11.153   7.846   5.083 -0.3026 -0.0859  0.0408
 9225W        W25299   0.422  16.445   1.764 -0.0553  0.2254 -0.1055
 9226W        W25300   9.980   7.782  13.561  0.0387 -0.3898  0.0805
 9227W        W25301  17.684  17.815  14.684 -0.0447  0.1400 -0.0632
 9228W        W25302  10.534  13.649  14.777 -0.0675  0.0195 -0.0350
 9229W        W25303  18.300   1.947   0.488  0.0663 -0.0399  0.0302
 9230W        W25304   5.970   9.537   5.349 -0.0385 -0.2864  0.0075
 9231W        W25305  17.635  12.309   3.483  0.1036  0.2209  0.2474
 9232W        W25306  16.275  16.599   4.001  0.0099 -0.1655 -0.0172
 9233W        W25307  17.185   4.229  11.941  0.0693 -0.2389 -0.1150
 9234W        W25308  16.518  12.712  13.358 -0.2412 -0.0919 -0.0552
 9235W        W25309   0.231   6.885  14.202 -0.0879  0.1483 -0.1002
 9236W        W25310  10.111  12.332   0.037  0.2747  0.0261  0.2286
 9237W        W25311   6.042   0.619   1.770  0.1893 -0.2172  0.3023
 9238W        W25312  12.880  10.173   3.488 -0.1904  0.0083 -0.1226
 9239W        W25313  13.593   9.153  13.941 -0.3080  0.2423  0.0578
 9240W        W25314   7.387   4.305   3.742  0.0534 -0.0424  0.2886
 9241W        W25315   0.142   6.170   3.729  0.4383 -0.2831  0.2867
 9242W        W25316  11.429  12.285   4.052 -0.3121 -0.2736  0.0089
 9243W        W25317   3.509  15.927   3.108  0.4182 -0.2009  0.3506
 9244W        W25318  10.150   9.996  14.719 -0.1141 -0.3142  0.0480
 9245W        W25319   4.454   4.552   0.912  0.0111  0.0303  0.0207
 9246W        W25320   3.718  12.869  15.401 -0.0457  0.1404 -0.0028
 9247W        W25321   3.613   1.399  15.381  0.0819 -0.1239 -0.1238
 9248W        W25322  10.889  15.343  11.261  0.0101 -0.2736  0.2146
 9249W        W25323  15.136   9.654  12.327  0.0087  0.2810 -0.1183
 9250W        W25324   7.919   3.357  12.779  0.1392  0.0897  0.0179
 9251W        W25325   7.912   3.462   4.044  0.2451  0.0578 -0.3925
 9252W        W25326  10.159   2.866  11.708  0.1988 -0.1350  0.1206
 9253W        W25327   3.216  18.115  15.949  0.1238 -0.0678  0.0429
 9254W        W25328   7.675   8.342  14.263 -0.0362  0.2332 -0.3570
 9255W        W25329  17.963   9.475   0.070  0.2607 -0.0632  0.1592
 9256W        W25330   0.101  17.257  11.160 -0.3452  0.1296  0.3320
 9257W        W25331  18.129  16.137   6.499 -0.0707  0.0551 -0.0182
 9258W        W25332   6.248   3.215  12.143 -0.0527 -0.0711  0.0628
 9259W        W25333   7.026   7.446  15.598  0.3953  0.2722 -0.0751
 9260W        W25334   5.693  17.390  15.453 -0.0849 -0.1787 -0.1285
 9261W        W25335   4.385  13.739  15.330  0.0173  0.0199 -0.0676
 9262W        W25336   5.893   0.911  11.767  0.0435  0.2175  0.2531
 9263W        W25337  12.961   0.097   3.012 -0.2813  0.0046  0.0273
 9264W        W25338  11.511   1.042   4.194 -0.1873  0.0613  0.1116
 9265W        W25339   1.828   1.989  13.628  0.0996 -0.0293  0.1387
 9266W        W25340  10.418  17.897   4.342 -0.6144  0.4805  0.0265
 9267W        W25341   5.935   7.910  13.091  0.0321 -0.1282 -0.2197
 9268W        W25342   9.050   8.234  13.818  0.1277  0.2510 -0.0850
 9269W        W25343  12.129  10.009   4.972 -0.0123 -0.2323  0.1527
 9270W        W25344   7.308   6.479  12.353  0.0427 -0.1647  0.0998
 9271W        W25345  14.094  17.522   3.045 -0.0144 -0.1124 -0.0001
 9272W        W25346   1.186  15.155   2.417 -0.1066 -0.3215 -0.1523
 9273W        W25347   3.203   9.134  13.086 -0.0425  0.0195  0.2139
 9274W        W25348   7.257   9.714  11.996  0.0500  0.0521 -0.0044
 9275W        W25349  18.196  14.725   2.925 -0.1259  0.2488  0.2839
 9276W        W25350   8.077   7.008  15.634  0.0445 -0.1861  0.1156
 9277W        W25351   6.179   1.589   2.779  0.1041 -0.3933 -0.1444
 9278W        W25352  10.016  10.584  14.121  0.0644 -0.1521  0.0269
 9279W        W25353   1.299  15.789  14.821 -0.0501 -0.3096 -0.4570
 9280W        W25354   4.064  10.664   3.643 -0.0500  0.1546  0.1470
 9281W        W25355   2.055   1.740  11.160 -0.3867 -0.0554 -0.0166
 9282W        W25356   0.081   7.724   5.510 -0.0254  0.2973 -0.0715
 9283W        W25357   3.267  13.963  11.376  0.4092 -0.0043  0.0667
 9284W        W25358  11.536  17.776   0.760  0.2462  0.2580 -0.0522
 9285W        W25359   0.586  18.003   4.009 -0.0590  0.1506 -0.1272
 9286W        W25360  10.235   2.297   1.968 -0.1471 -0.1311  0.0740
 9287W        W25361   9.725   6.594  14.581  0.0477 -0.1021 -0.0865
 9288W        W25362   4.874   7.375   4.135  0.1996  0.0324 -0.0793
 9289W        W25363   1.418   7.193  12.887 -0.0100 -0.0898 -0.1502
 9290W        W25364  11.677   1.843  13.670 -0.0294  0.0963  0.3442
 9291W        W25365   4.086  10.916   3.038 -0.1935 -0.0142 -0.1795
 9292W        W25366  18.307   2.440   1.325 -0.0630  0.2238  0.0467
 9293W        W25367   3.878   4.689   5.221 -0.0518 -0.1061 -0.0013
 9294W        W25368   9.446  15.434  13.188 -0.1145 -0.2636  0.1523
 9295W        W25369   5.446   6.807  13.624  0.1593  0.0701  0.3336
 9296W        W25370   9.401   9.303  12.643 -0.0450  0.0048 -0.1390
 9297W        W25371   1.923  14.455  14.301 -0.1480 -0.0771  0.1977
 9298W        W25372   4.420  15.169   2.854 -0.0506  0.0926  0.0578
 9299W        W25373  12.692  14.178   3.711 -0.0398 -0.0248  0.0632
 9300W        W25374   8.961  11.437  12.814  0.1836 -0.0186 -0.0062
 9301W        W25375  18.450  10.404  11.342  0.0583 -0.2916 -0.5132
 9302W        W25376  11.530   2.509  13.822 -0.1638  0.0872 -0.1827
 9303W        W25377   3.880   0.057   1.133 -0.0096  0.1487 -0.0725
 9304W        W25378  18.549  14.277  13.598  0.2067  0.0623 -0.1054
 9305W        W25379   7.353  16.237  12.416  0.3533 -0.2221  0.1657
 9306W        W25380  14.738  11.867  12.506 -0.0288 -0.0200 -0.0402
 9307W        W25381   3.029   1.453  12.808  0.1635 -0.2513 -0.3195
 9308W        W25382   8.854   6.483  15.164 -0.1066 -0.1342  0.0045
 9309W        W25383  17.934  12.655   4.313 -0.0870 -0.2891 -0.0601
 9310W        W25384   3.857   3.770  13.210 -0.1378  0.0991 -0.0331
 9311W        W25385   1.659  12.299   4.237  0.0958  0.1329 -0.2622
 9312W        W25386   5.788  16.058  14.366 -0.0548 -0.2871  0.0841
 9313W        W25387   6.681  11.543  15.249  0.2351 -0.2000  0.1971
 9314W        W25388   7.338   1.099   0.064 -0.1176 -0.2310 -0.0485
 9315W        W25389  10.781   8.921   2.387 -0.3372  0.0117 -0.1565
 9316W        W25390   2.280  11.725  12.267  0.0659 -0.0161  0.2237
 9317W        W25391   5.581   6.467   4.886 -0.2605  0.1107 -0.1616
 9318W        W25392  11.369  14.541   0.425 -0.0943  0.0776  0.0244
 9319W        W25393   7.390   5.956   0.868  0.0644 -0.2148  0.1806
 9320W        W25394   2.314  15.718   3.740 -0.1512 -0.1541 -0.1320
 9321W        W25395   8.129   3.758  13.823  0.0813  0.2653 -0.0011
 9322W        W25396  14.054  17.985  13.552 -0.1878  0.0023  0.2648
 9323W        W25397  16.424   3.508   3.106  0.0577  0.1187 -0.3009
 9324W        W25398   2.209  18.090   0.081  0.3089 -0.2908  0.0023
 9325W        W25399   4.040  11.544   5.457 -0.3242  0.0914 -0.1647
 9326W        W25400   8.056   7.923   0.714 -0.3404 -0.2302 -0.1149
 9327W        W25401   5.165   2.533  11.677  0.1636 -0.1034 -0.2620
 9328W        W25402  15.406  13.366   2.152 -0.0475 -0.0565 -0.2054
 9329W        W25403  16.791  13.729   3.213 -0.1702  0.2622 -0.0028
 9330W        W25404   7.278   7.472   0.490  0.0409  0.0376  0.1104
 9331W        W25405   8.340   6.918   4.435 -0.0418  0.2031  0.1661
 9332W        W25406   1.853   8.864   6.261 -0.1342  0.2949  0.0508
 9333W        W25407   9.473  14.144  13.390 -0.1107  0.1121 -0.2411
 9334W        W25408   7.436  13.661  15.943  0.0585 -0.0868 -0.0527
 9335W        W25409  16.897   4.550  11.023 -0.1991  0.0289  0.1502
 9336W        W25410   9.573   4.735  14.718  0.0409  0.0554  0.0313
 9337W        W25411  16.563   6.146   0.393  0.5553  0.1161  0.4415
 9338W        W25412  15.272   5.027  11.922 -0.2652 -0.0977 -0.1685
 9339W        W25413  16.651  11.202   3.207  0.2244 -0.0759  0.0232
 9340W        W25414   3.220  13.351   5.165  0.1900 -0.0020  0.0411
 9341W        W25415  15.902  11.643   5.644 -0.1460 -0.0578 -0.0081
 9342W        W25416  17.416   1.278   2.020  0.1434 -0.0090 -0.0748
 9343W        W25417   8.360  14.418   0.569 -0.1175  0.1640  0.1108
 9344W        W25418   5.100   5.864   5.212 -0.0511  0.0871  0.2487
 9345W        W25419   8.602  12.456  11.631  0.0412  0.1517 -0.1400
 9346W        W25420   0.685  17.942   0.911  0.3426  0.1671  0.0135
 9347W        W25421   3.647   9.746  12.797 -0.1804 -0.2406  0.0859
 9348W        W25422  13.348   2.778   3.522  0.2897  0.1653 -0.1120
 9349W        W25423   6.025  10.866  15.233 -0.0464 -0.2999 -0.2725
 9350W        W25424  12.515   7.485  12.124  0.1316 -0.0920 -0.1700
 9351W        W25425   9.397  13.242  14.731  0.2691 -0.5453  0.1257
 9352W        W25426   7.667   5.097   4.658  0.1240  0.0204  0.4486
 9353W        W25427  13.665   5.024   2.301 -0.0452  0.0614  0.0470
 9354W        W25428   1.867  14.716   0.370 -0.0195  0.0475 -0.0826
 9355W        W25429  13.597  15.446  12.820  0.1205 -0.1145 -0.0571
 9356W        W25430  12.750  11.745   5.340 -0.1459 -0.3446 -0.2477
 9357W        W25431  14.283   2.535   3.723 -0.0163  0.1157  0.1255
 9358W        W25432  18.002  13.825  13.211 -0.1438 -0.0558 -0.0525
 9359W        W25433  13.224  13.514  13.243  0.2049 -0.0846 -0.0745
 9360W        W25434  17.252   4.196  11.414 -0.1083 -0.0364 -0.0651
 9361W        W25435   9.672  12.643   3.841 -0.2082 -0.2706 -0.2153
 9362W        W25436   8.414  11.455   3.987 -0.1476  0.1668 -0.0282
 9363W        W25437   3.342  18.467   4.570  0.2197  0.0823  0.1190
 9364W        W25438  12.438  13.662   0.450  0.1139  0.2267 -0.3685
 9365W        W25439  15.107   4.990   4.480  0.0609 -0.2328 -0.2260
 9366W        W25440   9.349   2.972   4.492 -0.3172  0.1355 -0.0689
 9367W        W25441   8.355  13.149  12.576  0.0761 -0.0684  0.4309
 9368W        W25442   5.659  10.316   2.924  0.0156  0.4605  0.3719
 9369W        W25443  13.725   3.352   4.805  0.2535 -0.2152  0.1040
 9370W        W25444   0.355   4.339  12.613 -0.1344  0.3019 -0.1206
 9371W        W25445   5.338  14.059  11.917 -0.0293  0.0778 -0.1177
 9372W        W25446  11.421  16.453   3.476  0.0477 -0.1770 -0.0721
 9373W        W25447   3.851   3.263  14.915  0.1406  0.1529  0.1940
 9374W        W25448  11.012  12.065   4.397  0.0805  0.0906 -0.1927
 9375W        W25449  15.477   8.398  14.113 -0.1105  0.0702 -0.2255
 9376W        W25450  14.606   6.234   3.203  0.1672 -0.2121 -0.1391
 9377W        W25451   4.287   7.986  11.281 -0.3457  0.0709  0.0158
 9378W        W25452  14.331   8.419  13.816 -0.1049 -0.2599  0.1691
 9379W        W25453   7.501   9.040  11.534  0.1072  0.1797  0.3518
 9380W        W25454  14.844  15.750  14.126  0.1088  0.0540  0.1547
 9381W        W25455  16.582   6.488   2.853 -0.0884  0.1806  0.0449
 9382W        W25456  18.418   7.539  14.829  0.2779  0.1945 -0.0592
 9383W        W25457   3.470  12.294  15.096 -0.0985 -0.2447  0.1213
 9384W        W25458   1.010   6.124  12.116  0.0815  0.0692 -0.2425
 9385W        W25459  16.148   8.256  11.847  0.2444 -0.4280  0.0354
 9386W        W25460   3.246   5.164  11.784  0.2084 -0.0405 -0.0106
 9387W        W25461  17.907  16.741  13.753 -0.3052 -0.3306 -0.0072
 9388W        W25462   9.731   6.573  13.715  0.2164  0.2413  0.0795
 9389W        W25463   3.771   8.095   1.540  0.0984 -0.2833  0.0908
 9390W        W25464   3.496   8.423  12.501  0.0690  0.2037  0.0357
 9391W        W25465   8.705  12.395   2.961  0.0826  0.2048 -0.0535
 9392W        W25466   4.959   6.047   2.682  0.1534  0.3469 -0.2994
 9393W        W25467  12.527  12.687  12.699 -0.1296 -0.1112  0.0488
 9394W        W25468   5.030   5.331   6.081  0.0615  0.0689  0.2435
 9395W        W25469   0.676   4.877   4.890  0.2599  0.1493 -0.2035
 9396W        W25470   3.997   6.542  14.775 -0.3466  0.0410  0.0820
 9397W        W25471  12.791  11.081   4.084  0.3868 -0.1903 -0.1170
 9398W        W25472   3.323   7.592   3.570 -0.1366  0.0538 -0.1124
 9399W        W25473   2.285   5.801  13.806  0.0229 -0.1637 -0.2452
 9400W        W25474   8.428   9.253  12.727  0.0983 -0.1202 -0.0937
 9401W        W25475  15.840   1.865  13.192 -0.1796 -0.2112  0.0485
 9402W        W25476  18.304   0.970   2.340 -0.1809  0.0333  0.0892
 9403W        W25477   2.353  13.970   4.641 -0.3379  0.0753  0.0332
 9404W        W25478   4.986  11.636   2.126  0.3112  0.0505 -0.0256
 9405W        W25479   3.189  16.083  10.925 -0.1668 -0.2188  0.2228
 9406W        W25480   0.903  11.773  14.640  0.0963 -0.0264  0.2083
 9407W        W25481   1.833   4.326   4.340 -0.0812 -0.0582 -0.1931
 9408W        W25482  16.230   8.429   4.733 -0.1535  0.0571  0.2823
 9409W        W25483  11.122  14.539  13.195  0.0157  0.0465  0.2594
 9410W        W25484   7.522   1.466   2.956  0.1982 -0.1831 -0.1222
 9411W        W25485  11.043  15.151  13.989  0.0691 -0.0787  0.2581
 9412W        W25486   6.786   7.857  12.743 -0.1281 -0.2546  0.2898
 9413W        W25487   4.828  11.994   6.435  0.2464 -0.1750  0.0064
 9414W        W25488   5.646  13.722  15.192  0.1509 -0.2153 -0.0527
 9415W        W25489   0.747  15.676  15.701 -0.0492  0.1059 -0.1859
 9416W        W25490  11.437   7.773   0.463 -0.2871 -0.0556 -0.1936
 9417W        W25491  18.530  14.810   3.715 -0.0862  0.0246 -0.0091
 9418W        W25492  13.129   4.090  10.308  0.0603  0.0052 -0.0132
 9419W        W25493  11.011  12.502  11.365 -0.0144 -0.2761 -0.3926
 9420W        W25494  10.974  16.081   0.162 -0.3800  0.3230 -0.2014
 9421W        W25495   9.444  11.696   2.220  0.1200  0.2400 -0.2625
 9422W        W25496  14.584   0.273   4.552  0.0122 -0.0314 -0.1123
 9423W        W25497  16.443  14.265   1.894 -0.1317 -0.2384  0.1280
 9424W        W25498   0.855  14.375   4.197 -0.1285  0.1157  0.0130
 9425W        W25499   6.404   1.773   3.203  0.0606 -0.0538  0.0314
 9426W        W25500  15.705  15.546   0.074 -0.0512  0.3864  0.2309
 9427W        W25501  13.087   5.610   2.834 -0.0214  0.1449 -0.0108
 9428W        W25502  13.284   2.386   1.570 -0.1140  0.0413  0.2517
 9429W        W25503  16.226   1.823  15.657  0.0793 -0.2746  0.0423
 9430W        W25504  15.335  14.341   1.191  0.2584  0.0430  0.3762
 9431W        W25505   6.606  16.368   5.038 -0.2212  0.0547 -0.1819
 9432W        W25506   8.306   2.792   0.491 -0.1183  0.0729  0.2401
 9433W        W25507   0.719   7.259  14.409 -0.2666 -0.0875 -0.0330
 9434W        W25508  16.808  16.242  14.708 -0.0159  0.0172  0.1820
 9435W        W25509   6.517  17.586  11.873 -0.3949 -0.1810 -0.3252
 9436W        W25510   4.606  17.331  15.726  0.3943  0.2991 -0.1345
 9437W        W25511  15.671   6.584   5.123  0.1542 -0.1156  0.1172
 9438W        W25512   2.128   5.836   3.439  0.0112  0.2042 -0.2653
 9439W        W25513  18.407  12.381   1.153  0.0550 -0.0248  0.1825
 9440W        W25514  16.737   9.851  13.544  0.3150  0.0120 -0.1711
 9441W        W25515  13.825   1.897  15.829 -0.1513  0.0616  0.1560
 9442W        W25516  16.065   6.460   1.205  0.1404 -0.2822 -0.1416
 9443W        W25517   2.912   6.338   3.534  0.2487 -0.0047  0.1455
 9444W        W25518   4.988   7.069   1.124 -0.1581 -0.2388  0.1086
 9445W        W25519   2.284   1.768   1.305  0.1027 -0.0470 -0.0511
 9446W        W25520   3.019   3.359  14.555 -0.1518 -0.0445 -0.1616
 9447W        W25521   6.631  18.230   1.015 -0.0147 -0.1589  0.0187
 9448W        W25522  18.197   8.891  14.985 -0.0328  0.0334 -0.1302
 9449W        W25523   3.336  14.464  11.459  0.0615 -0.0259  0.0763
 9450W        W25524   4.084   9.821   4.775 -0.4076  0.0780 -0.1866
 9451W        W25525   4.713  12.827   0.412 -0.3020  0.1280 -0.1193
 9452W        W25526   8.772   1.020  11.120  0.3644  0.1032 -0.1706
 9453W        W25527  18.240   6.228  15.084 -0.0561 -0.0453  0.0206
 9454W        W25528   2.949  15.669  12.904  0.2819 -0.1287  0.1661
 9455W        W25529  11.030  11.172  14.491 -0.2192 -0.0655 -0.0993
 9456W        W25530  14.687  10.742   0.869  0.2371 -0.0082 -0.2523
 9457W        W25531  17.827  13.998   0.188  0.1074  0.1582  0.1510
 9458W        W25532   7.485   3.295  15.528  0.1736  0.1411 -0.0999
 9459W        W25533   4.835   1.300  11.311 -0.2768  0.3788 -0.0976
 9460W        W25534  15.669  13.262   4.875  0.2953  0.0216 -0.0056
 9461W        W25535   7.532  11.706   2.093  0.2343  0.0624  0.0640
 9462W        W25536   6.993  16.077   5.245 -0.0072 -0.1547 -0.2053
 9463W        W25537  11.340  10.152  13.346 -0.0739  0.0005  0.2732
 9464W        W25538   7.059  10.220  14.733  0.1387  0.0615  0.0855
 9465W        W25539  12.570  14.587   4.002 -0.0764 -0.0524  0.0295
 9466W        W25540   1.294   5.862   1.165 -0.2974 -0.3336  0.1407
 9467W        W25541   2.527  10.943  14.303 -0.0475  0.0241 -0.0526
 9468W        W25542   9.505   5.017  12.794 -0.0898  0.0643  0.0991
 9469W        W25543  17.224   3.252  11.012  0.1300  0.0459 -0.2984
 9470W        W25544  16.520   4.411  11.336  0.0216 -0.0747  0.4325
 9471W        W25545   2.814  14.240   4.940 -0.1024  0.2008 -0.0088
 9472W        W25546  14.460   6.384   1.056  0.0458  0.1445  0.2106
 9473W        W25547   5.495  13.021  11.094  0.0779 -0.0668 -0.1605
 9474W        W25548   2.864  12.033   4.687 -0.2547 -0.3695  0.2406
 9475W        W25549   5.842   1.938   0.388  0.3210 -0.0000 -0.1271
 9476W        W25550  17.811  10.672  13.641  0.2150  0.2890 -0.2615
 9477W        W25551  14.183  17.766   1.532  0.0564 -0.1195  0.0028
 9478W        W25552  17.150  16.159   4.642 -0.1785 -0.0004  0.0127
 9479W        W25553  13.730   4.956  14.677  0.0233  0.0296 -0.0986
 9480W        W25554  15.688   1.809   1.823  0.1112 -0.2317  0.1159
 9481W        W25555  14.591  14.407   1.543 -0.1083  0.1905 -0.0559
 9482W        W25556   2.455   0.736   1.257  0.1030 -0.5130  0.0605
 9483W        W25557  13.975  14.999  14.083  0.0458 -0.0054  0.2256
 9484W        W25558  12.469  13.172  15.105  0.1406  0.1738 -0.2044
 9485W        W25559  15.492   9.476  15.295 -0.3208 -0.1913 -0.4821
 9486W        W25560   9.864   3.388  13.737 -0.0931 -0.3439 -0.6122
 9487W        W25561  15.145   2.878  15.531 -0.0057  0.1121  0.3550
 9488W        W25562  12.774   0.309  10.631 -0.0598 -0.1402 -0.1538
 9489W        W25563  16.551  13.825  15.665 -0.2882  0.3038  0.2818
 9490W        W25564   7.704  17.052  10.970  0.0963 -0.0660  0.2470
 9491W        W25565   5.018  14.941  15.622  0.4086  0.2489 -0.0362
 9492W        W25566   4.949   9.647   4.295 -0.2403  0.0793 -0.0832
 9493W        W25567   5.774  12.236   1.485 -0.2498 -0.0856  0.0294
 9494W        W25568  13.638   8.746   0.244 -0.1232  0.0365 -0.0442
 9495W        W25569   4.334   3.014  11.382  0.1171  0.1285  0.0378
 9496W        W25570   9.904  12.019   3.207 -0.0053  0.0783 -0.0091
 9497W        W25571  16.857  14.529  14.146  0.1925 -0.3805  0.0266
 9498W        W25572   1.489   4.116  13.639  0.3859  0.1242 -0.0723
 9499W        W25573   0.737  10.933   0.503 -0.1414 -0.2973  0.1523
 9500W        W25574  13.530  18.205  14.093 -0.1636 -0.0627 -0.0306
 9501W        W25575   2.114  15.130  12.128  0.1447  0.3559 -0.0896
 9502W        W25576   6.888   8.336   4.688 -0.3800 -0.2765 -0.1870
 9503W        W25577  10.543  13.472  13.057 -0.1180  0.0899  0.0370
 9504W        W25578  18.009  11.753  12.717 -0.2190  0.1414  0.0529
 9505W        W25579  18.227  18.027   5.981  0.2645  0.0055  0.2583
 9506W        W25580   0.946   8.844   4.595  0.1355  0.1926  0.0499
 9507W        W25581  17.022  18.011   9.713 -0.1334 -0.1601 -0.0105
 9508W        W25582  12.367   6.741   5.012  0.2546  0.0457  0.0714
 9509W        W25583  12.145   6.798  15.733  0.1406  0.1094  0.0476
 9510W        W25584  12.341  11.314  12.467 -0.1456 -0.0972 -0.0260
 9511W        W25585  13.130  17.610  15.681 -0.2213  0.1783 -0.1112
 9512W        W25586   6.579   1.805   4.626  0.1535 -0.1292  0.1620
 9513W        W25587   1.324   0.380  15.447 -0.1667 -0.0395 -0.1501
 9514W        W25588   2.038   4.989   3.189 -0.2700 -0.0658  0.0532
 9515W        W25589   8.829   3.251   5.270 -0.1123 -0.2460  0.0915
 9516W        W25590   8.405   1.116   4.688 -0.1506 -0.2854  0.2600
 9517W        W25591   2.909  15.657  15.411  0.1070 -0.0455 -0.1214
 9518W        W25592  10.222  14.824   0.300  0.2938 -0.4888  0.0758
 9519W        W25593   7.440  14.995   1.648 -0.1559 -0.0623  0.0407
 9520W        W25594   9.769   2.184  15.887 -0.0329 -0.3382 -0.0453
 9521W        W25595  10.789  17.226  12.998 -0.1260 -0.1843  0.1589
 9522W        W25596   7.991   4.742   1.661 -0.2543 -0.2624 -0.1892
 9523W        W25597  18.026  11.701   2.212 -0.0674  0.1759  0.0900
 9524W        W25598  17.968   3.388   5.191 -0.2876 -0.3032  0.0987
 9525W        W25599  11.772   1.176   1.756  0.1084 -0.0873  0.1195
 9526W        W25600   5.888   0.529   0.015 -0.0851  0.2574 -0.0105
 9527W        W25601  13.779  11.437  13.467 -0.0007  0.0091  0.1060
 9528W        W25602  11.372  14.459   1.969  0.0899 -0.0810  0.0239
 9529W        W25603  10.171   1.802  15.916 -0.1319  0.0290 -0.1248
 9530W        W25604   3.106   2.615  13.785  0.0283 -0.0560 -0.0127
 9531W        W25605   5.204   3.772  12.671 -0.1477 -0.1865 -0.1489
 9532W        W25606  15.843   3.376   3.839  0.1609 -0.3351  0.0287
 9533W        W25607   2.344  14.672   0.505  0.1545  0.0439  0.1209
 9534W        W25608   4.369   3.955   0.322 -0.1818  0.1957  0.0452
 9535W        W25609   8.347  15.804   0.313  0.1096  0.1812 -0.3521
 9536W        W25610  11.655   2.109   1.703  0.0985 -0.0762 -0.1636
 9537W        W25611   6.667  14.391   1.208 -0.2495 -0.2447 -0.0083
 9538W        W25612   7.175   7.934  15.775 -0.0872  0.0396 -0.1894
 9539W        W25613  11.952   2.938  12.885  0.1241 -0.1098  0.2379
 9540W        W25614  12.342  18.468  11.170 -0.1437 -0.0456  0.0676
 9541W        W25615   5.149  13.999  11.411  0.0835 -0.1018  0.1277
 9542W        W25616  10.242   7.616  11.638  0.0589 -0.2592 -0.1635
 9543W        W25617   0.848   2.202  12.340  0.0476 -0.0286  0.0506
 9544W        W25618  15.183  18.278  12.360  0.0553  0.0692  0.2556
 9545W        W25619  11.215   9.953  11.271  0.0097 -0.0265 -0.1351
 9546W        W25620  16.277  14.976   1.273 -0.2386 -0.0008 -0.0989
 9547W        W25621   8.695  10.488   4.867 -0.1522  0.3493  0.1593
 9548W        W25622   5.524   2.732  15.078 -0.2050  0.0632 -0.0819
 9549W        W25623  10.577   9.189  15.767 -0.3753 -0.1186 -0.0984
 9550W        W25624   3.659   1.088   0.584 -0.1428  0.2371  0.0669
 9551W        W25625  16.944   3.669  13.882  0.3665 -0.0590  0.3482
 9552W        W25626   0.991   4.067   5.518  0.3517 -0.1102 -0.3240
 9553W        W25627  13.021  16.130   1.737  0.1597 -0.1702 -0.0374
 9554W        W25628   8.805  14.640  14.516 -0.1351  0.0149  0.2088
 9555W        W25629  14.390  17.138  13.059 -0.0966 -0.3832  0.0353
 9556W        W25630   2.969   1.483   9.911  0.0346 -0.3011 -0.0416
 9557W        W25631   8.783  17.603   2.751  0.0112  0.0934 -0.0469
 9558W        W25632   2.937   8.654  12.450  0.0278  0.1670  0.1011
 9559W        W25633   4.580   7.556  13.917 -0.0676 -0.1703 -0.1741
 9560W        W25634  17.921  14.560   4.601  0.0070  0.2377 -0.5411
 9561W        W25635   0.516   2.484   0.528  0.0491  0.0509 -0.0088
 9562W        W25636   9.603   2.645  15.267  0.1652  0.2549  0.0627
 9563W        W25637   8.984   3.967  14.798 -0.3671  0.1795 -0.1185
 9564W        W25638  12.155  12.815   0.948 -0.1138 -0.0634 -0.2230
 9565W        W25639  14.046   1.882  14.061  0.0060 -0.1567  0.0569
 9566W        W25640  11.601  10.921   5.062 -0.3023 -0.0828  0.4478
 9567W        W25641   1.180   8.143  14.929 -0.1447  0.1399  0.1521
 9568W        W25642   5.770  13.542   1.857 -0.2805  0.0548 -0.0816
 9569W        W25643   8.941  15.046  10.923 -0.1778 -0.2292 -0.1755
 9570W        W25644  13.229  13.810  12.478  0.0616 -0.2750 -0.0103
 9571W        W25645   7.401  17.644   1.332 -0.1196  0.2263 -0.2276
 9572W        W25646   1.190  18.427   2.613  0.3672  0.1919 -0.1476
 9573W        W25647  17.182  12.938   0.672 -0.1668  0.3042  0.3947
 9574W        W25648   6.253   3.502   5.895  0.0721 -0.2435 -0.0185
 9575W        W25649   1.944   5.494   5.031  0.0666 -0.0338  0.0927
 9576W        W25650   1.758  16.010  14.940 -0.1995  0.0870  0.0897
 9577W        W25651   1.847  14.985  11.436 -0.0787 -0.1273  0.0439
 9578W        W25652   5.088   9.281  14.219  0.1038  0.2976 -0.3303
 9579W        W25653   6.010   7.169   4.625 -0.3025 -0.2404  0.2589
 9580W        W25654   0.426  17.188   1.007 -0.2449  0.1767 -0.0080
 9581W        W25655   2.081   0.023  13.007 -0.3813  0.0924  0.1276
 9582W        W25656   6.390  18.211  13.995 -0.0615 -0.2498 -0.2890
 9583W        W25657   1.694  12.031   0.040  0.1557  0.2814 -0.0429
 9584W        W25658   3.569  12.874   0.547 -0.1122  0.1763 -0.6354
 9585W        W25659  15.401   2.061  13.336  0.1175  0.0075 -0.0740
 9586W        W25660  18.374  14.402  11.217  0.0212 -0.0678  0.1340
 9587W        W25661   3.208   3.270  12.521 -0.0429 -0.1900  0.1180
 9588W        W25662   3.373  11.412  14.486 -0.0230 -0.0212  0.0361
 9589W        W25663  12.478  14.131  13.092  0.2253  0.0532 -0.1850
 9590W        W25664   9.713   0.736  13.672  0.1849  0.1674  0.0467
 9591W        W25665   9.030   3.069  14.232  0.0349  0.1280 -0.1893
 9592W        W25666   0.551   8.204   5.318  0.0678  0.0304 -0.0463
 9593W        W25667   6.242   0.594  12.895 -0.0977  0.0055  0.3062
 9594W        W25668   3.529   4.053   5.155  0.1607 -0.0749 -0.0208
 9595W        W25669  13.922  15.305   5.709 -0.2202 -0.2392 -0.2463
 9596W        W25670  17.873  15.705  11.150 -0.1519  0.2435  0.0606
 9597W        W25671   7.695   6.023  14.858 -0.0468 -0.0157 -0.0342
 9598W        W25672  14.823  18.543  14.453 -0.0990 -0.1747  0.1359
 9599W        W25673   8.434   0.220   1.688 -0.2056  0.1409  0.2722
 9600W        W25674   9.600   5.035   2.292  0.0993  0.1522 -0.0714
 9601W        W25675   7.571  18.056   2.977 -0.0637 -0.0192 -0.2022
 9602W        W25676  18.516   7.985  13.421 -0.3253  0.1636 -0.2471
 9603W        W25677   0.842   0.179  13.565 -0.3257 -0.0633 -0.0116
 9604W        W25678  11.436   0.655   4.550 -0.1401  0.1121 -0.1330
 9605W        W25679   3.002  12.510   3.905  0.1561  0.4015  0.2516
 9606W        W25680   7.171   5.669  14.312 -0.3608 -0.5504  0.1328
 9607W        W25681   9.412   5.654  15.468  0.4892  0.1458  0.3287
 9608W        W25682   8.747  15.668   3.203 -0.0789  0.1511 -0.0352
 9609W        W25683   5.017   6.575   3.567 -0.0891 -0.1565 -0.0100
 9610W        W25684  15.781  10.605   3.968 -0.0522  0.0044 -0.0972
 9611W        W25685  13.049   0.337   5.038  0.0300  0.1709  0.1712
 9612W        W25686   5.623   9.282  14.272  0.0630 -0.0085 -0.2210
 9613W        W25687   0.229   7.247   5.561 -0.0697 -0.1911  0.4042
 9614W        W25688  14.818   3.542   3.933  0.0627 -0.1910 -0.3439
 9615W        W25689   3.272   3.698   3.737 -0.1129 -0.1197 -0.1354
 9616W        W25690   7.995   3.912  15.898  0.3827  0.0576 -0.1387
 9617W        W25691   3.644   7.170   4.655 -0.0525  0.3343  0.2683
 9618W        W25692  14.143  11.406  12.180 -0.0780 -0.2738  0.2241
 9619W        W25693   4.870   4.316   2.940 -0.1053  0.2431  0.2591
 9620W        W25694  10.812  11.888  11.830  0.0561 -0.0386 -0.0095
 9621W        W25695  16.107  17.110  12.206 -0.2039  0.2767  0.2495
 9622W        W25696   7.820   4.270  11.947 -0.0648  0.1444  0.0649
 9623W        W25697   6.803  13.745   5.139 -0.1155 -0.2208 -0.1870
 9624W        W25698  15.076  12.074   5.817  0.0557  0.2177 -0.2715
 9625W        W25699  12.515  17.387  14.254  0.1014  0.2071  0.0395
 9626W        W25700  16.393   6.437   3.429  0.1183 -0.2139 -0.4542
 9627W        W25701  12.784  10.594  11.225  0.0233  0.1378  0.2002
 9628W        W25702   2.620  18.220   4.078  0.2646 -0.1214 -0.3110
 9629W        W25703   1.810  18.285   5.626  0.0113  0.0235 -0.2567
 9630W        W25704  11.830   4.098  15.428  0.1220  0.1057 -0.0851
 9631W        W25705   8.710  18.090   1.435 -0.1208 -0.2673  0.0378
 9632W        W25706  10.556   0.122   5.670 -0.0378 -0.1158  0.2292
 9633W        W25707   9.312   4.276   1.773  0.1318 -0.3801 -0.3447
 9634W        W25708   4.497   8.066   5.572  0.3243  0.2490  0.0975
 9635W        W25709   1.683  13.724   3.505 -0.3905  0.0827  0.4263
 9636W        W25710  18.234  12.376   3.946 -0.0159 -0.0392 -0.2859
 9637W        W25711   3.997  10.928   0.558 -0.0646  0.0566  0.0437
 9638W        W25712   0.221  14.688   1.138 -0.0265  0.0907  0.1906
 9639W        W25713   9.567  11.496   0.073  0.4267 -0.2653 -0.1864
 9640W        W25714  13.925   4.135  14.205  0.0136 -0.0986 -0.1543
 9641W        W25715  12.857  12.588  11.712 -0.1747  0.0332 -0.1443
 9642W        W25716  16.891  18.334   2.505 -0.1038 -0.0810  0.1122
 9643W        W25717   9.466   2.233   3.041 -0.2109 -0.2736 -0.0124
 9644W        W25718   8.769   1.523  11.072  0.0470  0.1086 -0.0622
 9645W        W25719  10.303  14.511  13.464 -0.0811  0.1196 -0.0840
 9646W        W25720   0.419   7.571   0.156  0.0240  0.0174  0.1873
 9647W        W25721   5.509  13.833   2.865  0.1820  0.1141  0.1020
 9648W        W25722   9.570  12.887  12.968 -0.1453 -0.1704  0.1719
 9649W        W25723  11.991   6.063  13.196  0.3800  0.0064  0.2862
 9650W        W25724   0.266  14.659  13.418 -0.0289  0.1728  0.3245
 9651W        W25725   4.890  15.011  13.193 -0.1728 -0.0006 -0.3260
 9652W        W25726  13.941   3.467  15.277  0.3069 -0.2507  0.5079
 9653W        W25727   4.279  10.362  13.112 -0.1328 -0.1005 -0.0895
 9654W        W25728  15.779  12.873   0.327  0.0667  0.0328 -0.3102
 9655W        W25729   5.175  13.661   4.531 -0.2376 -0.1854 -0.0129
 9656W        W25730   2.701   6.601  15.074 -0.0862  0.3685  0.1280
 9657W        W25731  18.353  17.102   0.256 -0.1243  0.0257  0.3591
 9658W        W25732  18.476  16.793  14.210 -0.0764  0.1765 -0.0320
 9659W        W25733   0.325  11.953   3.078  0.0077  0.0099  0.0452
 9660W        W25734   8.497   6.324  11.841 -0.0301 -0.1240  0.0071
 9661W        W25735   9.885  12.251   1.458 -0.0587  0.0774 -0.3139
 9662W        W25736  16.253  17.479   3.602  0.0223 -0.0992 -0.0307
 9663W        W25737   8.399   7.221  12.976 -0.1050 -0.2287  0.0678
 9664W        W25738   6.658   8.701  11.658  0.1535  0.3277  0.1916
 9665W        W25739  17.494   9.738  14.701 -0.1120 -0.0714 -0.0137
 9666W        W25740   3.210   3.293  11.078 -0.0852 -0.1114  0.1712
 9667W        W25741   3.761  17.621   2.424  0.1521  0.3827 -0.2825
 9668W        W25742   4.036   9.981   3.438  0.0430 -0.2101  0.2364
 9669W        W25743   1.172  13.731   5.409 -0.1034  0.0557 -0.1729
 9670W        W25744  13.863   5.638  14.704  0.2013  0.1856 -0.3801
 9671W        W25745   5.785   6.515  15.796  0.1239 -0.1271  0.0636
 9672W        W25746   1.988  11.370   3.242  0.1196  0.1628 -0.1533
 9673W        W25747   3.037  15.178  12.509  0.4626 -0.0415 -0.1139
 9674W        W25748   6.665  12.555   1.495  0.0681 -0.2097  0.3028
 9675W        W25749  12.016   6.995  14.560  0.1052  0.2626  0.2807
 9676W        W25750  15.910  16.489   5.223  0.3184 -0.2280  0.0418
 9677W        W25751  14.083   5.680  14.270 -0.2276 -0.1171  0.2536
 9678W        W25752   5.575   0.828   0.294 -0.1097  0.3897 -0.1266
 9679W        W25753  15.255  10.751   1.552 -0.0020 -0.1680  0.0577
 9680W        W25754   3.971   6.972   3.609  0.1016 -0.1259 -0.2045
 9681W        W25755  11.577  14.444  11.060  0.0574  0.1775  0.1203
 9682W        W25756   9.072  16.128  11.182 -0.1432  0.4075 -0.1859
 9683W        W25757  18.271  16.787   3.364 -0.0290  0.0413 -0.0467
 9684W        W25758  11.830  11.374   5.061 -0.0409 -0.1222  0.3387
 9685W        W25759   6.420  16.603   1.514  0.0340  0.0998 -0.0366
 9686W        W25760  14.665  14.362  15.188  0.2153 -0.0710  0.3905
 9687W        W25761   2.988   5.650  14.718  0.2192 -0.3976  0.1428
 9688W        W25762   5.404  11.834   5.962  0.0668 -0.2817 -0.0181
 9689W        W25763   4.047  11.303   2.465  0.0276 -0.1254 -0.1649
 9690W        W25764   4.409  17.529   0.758  0.2029 -0.0082 -0.6073
 9691W        W25765   7.687   5.689   4.551  0.0792 -0.0587 -0.4331
 9692W        W25766   6.722  18.455  16.024 -0.0706  0.1123  0.1095
 9693W        W25767  18.399   1.223  11.852 -0.1890  0.0357  0.2427
 9694W        W25768   5.715  18.364   1.045 -0.1635 -0.0030 -0.0878
 9695W        W25769  11.959  15.388  15.221 -0.2654  0.2481  0.1131
 9696W        W25770  15.204   1.919   0.869 -0.3061  0.2045  0.0608
 9697W        W25771  13.142   7.566  14.099 -0.1231 -0.2361 -0.2174
 9698W        W25772   6.391   7.890  14.191 -0.3878 -0.2525  0.4040
 9699W        W25773   8.005  13.899  15.260  0.0780  0.1683 -0.0131
 9700W        W25774  12.622   3.448   4.283 -0.4446  0.0464 -0.0838
 9701W        W25775   7.267  16.441   5.733 -0.1044 -0.2713  0.3210
 9702W        W25776   8.056   7.009   3.348  0.1981 -0.2235 -0.4515
 9703W        W25777   5.668  13.628   2.432  0.0488 -0.1938  0.2177
 9704W        W25778  16.071   6.964  11.793  0.3184 -0.4271  0.0501
 9705W        W25779   0.336   7.053   4.754  0.1330  0.0162  0.0676
 9706W        W25780  17.488   5.020  14.157 -0.1916  0.0565 -0.1104
 9707W        W25781   2.596   8.860   3.559 -0.2581 -0.1259  0.3344
 9708W        W25782  16.493   8.865  15.158 -0.1042 -0.1810  0.0927
 9709W        W25783  15.778  13.357   0.024 -0.1900  0.0541  0.2743
 9710W        W25784  11.526  18.030  11.678  0.3649  0.3876  0.0905
 9711W        W25785   9.899   8.587   1.075  0.1150 -0.1049  0.1806
 9712W        W25786   6.000   3.402  15.718 -0.0505  0.1875 -0.0684
 9713W        W25787   5.153  15.276   1.067  0.1556  0.2367  0.2040
 9714W        W25788   9.685  16.825  11.301 -0.1790 -0.0543  0.3403
 9715W        W25789   6.128   7.157  12.474 -0.1685 -0.4314  0.0526
 9716W        W25790   6.929   1.389   3.105 -0.1986  0.1632  0.1304
 9717W        W25791  10.300   6.997  13.164  0.0450  0.1781 -0.0097
 9718W        W25792   8.405   1.837   4.163  0.0676  0.2599 -0.0003
 9719W        W25793  12.092  12.317  14.766  0.2204  0.2874 -0.3591
 9720W        W25794   8.359  12.806   2.895  0.3761 -0.0889 -0.2128
 9721W        W25795  13.520  16.969   4.702  0.2669 -0.3704 -0.0097
 9722W        W25796   8.742  17.743   5.063  0.1493  0.1668 -0.2850
 9723W        W25797  15.399  16.122  12.732  0.2096  0.0123  0.1141
 9724W        W25798   7.849   0.633  13.233  0.1512  0.1479  0.0550
 9725W        W25799   8.221  10.987   0.852  0.1953  0.1385  0.1103
 9726W        W25800   7.407  17.258  13.341 -0.2223  0.0601  0.1223
 9727W        W25801   7.335   6.762   1.563 -0.0676  0.0309  0.0404
 9728W        W25802   3.326  13.780  15.060 -0.2297 -0.0341 -0.1711
 9729W        W25803  13.280   8.877  13.627 -0.2273  0.1502 -0.0364
 9730W        W25804  13.075   6.378   2.907  0.0665 -0.2172  0.3629
 9731W        W25805   0.869   9.980   0.092 -0.0311  0.3019 -0.2021
 9732W        W25806   4.084   0.321  14.906 -0.1945  0.1074  0.3755
 9733W        W25807  13.011   9.580   1.224 -0.0780  0.0841 -0.4126
 9734W        W25808  11.703  12.050  13.129  0.2681  0.1359  0.2662
 9735W        W25809   8.772  17.178   0.928  0.0116  0.1358  0.0696
 9736W        W25810  17.302   7.234  13.078  0.0173 -0.0068 -0.0459
 9737W        W25811  12.206   5.466   0.941  0.4280  0.0291 -0.3032
 9738W        W25812  11.503  15.945   4.369 -0.0609 -0.1216 -0.3389
 9739W        W25813   8.244  10.349  14.177  0.2931 -0.0873 -0.0988
 9740W        W25814  17.794   3.121  11.112 -0.0881 -0.2474 -0.2076
 9741W        W25815  10.025   0.613  13.278  0.0159  0.0743 -0.2566
 9742W        W25816   2.023   5.152  14.726 -0.1121 -0.0650  0.3636
 9743W        W25817  14.803  14.550   2.742 -0.2587  0.0009  0.2080
 9744W        W25818  16.721   4.225   1.361 -0.2035  0.1960  0.3414
 9745W        W25819  15.370   9.973  15.410  0.0437 -0.0574 -0.0165
 9746W        W25820   7.188  10.230  11.123 -0.0268  0.0234 -0.0957
 9747W        W25821  16.689   8.694   0.806  0.2423  0.2998  0.1659
 9748W        W25822   0.684  16.797   2.712  0.2645  0.1493  0.1041
 9749W        W25823   5.084   6.903  13.301 -0.2285 -0.1525 -0.0154
 9750W        W25824   8.852   0.308   1.962 -0.0149 -0.1946  0.1574
 9751W        W25825  10.222  14.495   4.327 -0.0425 -0.2184  0.0296
 9752W        W25826  14.447   5.462  13.342  0.0487 -0.1065  0.1101
 9753W        W25827   6.336  12.904   4.870 -0.1326 -0.0500  0.2336
 9754W        W25828   0.456   4.737   0.933  0.2594  0.3523 -0.1882
 9755W        W25829   7.047   8.255   5.623 -0.1712  0.0211 -0.0682
 9756W        W25830  16.617  15.910   3.159 -0.1229 -0.1254  0.2078
 9757W        W25831   2.233  16.229  15.307  0.4831 -0.0191  0.2034
 9758W        W25832  16.197  18.480   3.838 -0.1301 -0.1165  0.0238
 9759W        W25833   6.667   4.431   5.068 -0.1568 -0.0671  0.1224
 9760W        W25834  11.315  14.899   3.639 -0.2975 -0.0645 -0.1599
 9761W        W25835   1.404  18.158   0.612 -0.1330  0.2703  0.2158
 9762W        W25836   0.865   7.731   1.559  0.0614 -0.1353  0.1439
 9763W        W25837   3.024   7.709  11.859 -0.3836  0.3254 -0.1463
 9764W        W25838   0.056   2.897  14.008 -0.1883 -0.0608 -0.0210
 9765W        W25839  12.905   9.207  14.626  0.1385  0.0139 -0.1694
 9766W        W25840   7.405   0.775  11.507 -0.0013  0.2232  0.0715
 9767W        W25841  10.500   0.699  11.914 -0.3188 -0.0134  0.0781
 9768W        W25842   4.979   6.651  11.611 -0.1166  0.1253  0.0160
 9769W        W25843   0.880  15.356   3.183  0.0419  0.3443 -0.0598
 9770W        W25844  16.410  18.213  13.078  0.1596  0.1889  0.0275
 9771W        W25845   4.742   2.398   5.730  0.0736 -0.1220 -0.1886
 9772W        W25846   4.718  11.862   0.072  0.1753  0.0424 -0.4618
 9773W        W25847   1.936  13.530   0.900 -0.1838 -0.5054  0.1294
 9774W        W25848  10.950   9.391   1.586  0.2991  0.0198 -0.2342
 9775W        W25849  16.995  13.903   2.719  0.2047 -0.1812  0.1699
 9776W        W25850   3.270   5.574   2.501 -0.0470  0.1043  0.0318
 9777W        W25851  15.611  18.021  14.242 -0.0260  0.0787  0.0775
 9778W        W25852   2.246   8.813   1.544 -0.0228  0.1600 -0.1609
 9779W        W25853  11.982  14.185   4.430 -0.0015  0.1178 -0.0834
 9780W        W25854  12.395   1.616   3.377  0.1641 -0.0729  0.1341
 9781W        W25855   0.889  17.443  13.542  0.3395 -0.0381  0.0017
 9782W        W25856  14.878   4.657  14.421 -0.2197  0.1583  0.2502
 9783W        W25857  15.909   5.302   4.614 -0.1228 -0.3043 -0.1266
 9784W        W25858   2.171  16.361   1.404  0.2053 -0.0395 -0.2689
 9785W        W25859   5.978  13.665   3.855 -0.0863  0.3043  0.1255
 9786W        W25860  16.082   6.096  14.385 -0.1398  0.1965 -0.0932
 9787W        W25861  14.069   5.554   2.556  0.2559  0.0953 -0.0775
 9788W        W25862  14.729  12.318  14.896  0.1798  0.0924 -0.3054
 9789W        W25863   3.338   8.491  11.579 -0.1122  0.2482 -0.1659
 9790W        W25864  11.356   8.172   1.698  0.2886 -0.0075 -0.0467
 9791W        W25865   7.849  13.776   2.294  0.2678 -0.3375  0.0064
 9792W        W25866   7.414  15.621   1.083 -0.0430  0.1699  0.1066
 9793W        W25867   6.524   4.801  12.335  0.2881 -0.1453 -0.0996
 9794W        W25868   8.199  17.312   2.026  0.1471 -0.2572  0.0616
 9795W        W25869   8.530   7.237   4.980 -0.0910 -0.0675 -0.2103
 9796W        W25870   7.548  17.592  12.871  0.0217  0.2459 -0.0412
 9797W        W25871   6.277   4.084   3.141 -0.0368 -0.2324  0.2037
 9798W        W25872   7.615  14.959  15.412 -0.0555 -0.1997  0.0968
 9799W        W25873  15.721  13.625  14.318  0.0007 -0.0926  0.2262
 9800W        W25874   6.670   4.408   2.378  0.0662  0.1820  0.1166
 9801W        W25875  13.895   2.671  14.002 -0.4001 -0.0306 -0.1455
 9802W        W25876   7.710   6.769   3.027  0.0402 -0.2375 -0.1043
 9803W        W25877   6.652  15.405   0.374  0.0330  0.2663  0.0788
 9804W        W25878   6.962   9.396  10.386  0.0899 -0.0312  0.2632
 9805W        W25879  18.004   2.480   2.745 -0.0767  0.2562  0.0295
 9806W        W25880   8.348  12.252  13.492 -0.2665 -0.2103 -0.0577
 9807W        W25881  12.336   8.435   2.597 -0.2747 -0.0759  0.1366
 9808W        W25882  13.024   6.689   0.527  0.2140  0.1751 -0.2723
 9809W        W25883   3.915  13.255   0.629 -0.3193  0.2936  0.0535
 9810W        W25884  15.755   5.204   2.174  0.1838 -0.2138  0.1069
 9811W        W25885  11.024   6.902   0.987 -0.3580  0.0111 -0.2529
 9812W        W25886   4.259  12.073   1.864 -0.0946  0.1503  0.1636
 9813W        W25887  11.433   1.866   0.106  0.3808 -0.1258 -0.1697
 9814W        W25888   5.995   4.587   1.077 -0.0485  0.3877 -0.1844
 9815W        W25889   3.764   1.034  15.712 -0.0302 -0.0444  0.1038
 9816W        W25890   0.013  12.104   4.733  0.0569  0.1119  0.1855
 9817W        W25891   6.089   7.405   3.202 -0.1468  0.0619 -0.0481
 9818W        W25892  12.360  14.785   4.794  0.0409 -0.2452  0.0033
 9819W        W25893  14.310   7.201   0.543  0.1605 -0.1022 -0.0926
 9820W        W25894   7.471   2.609   0.284 -0.1490 -0.0698 -0.1847
 9821W        W25895  18.529   4.189  11.773  0.4358  0.1420  0.0403
 9822W        W25896   7.806   5.077  11.868  0.4733 -0.1786 -0.0607
 9823W        W25897  11.023   5.964   2.844 -0.0413 -0.0850  0.2506
 9824W        W25898   9.456   3.302  13.400  0.1880 -0.2488 -0.3932
 9825W        W25899   2.527  15.303   5.101 -0.2187 -0.1109  0.0473
 9826W        W25900  16.986   3.300  15.202  0.2609  0.1974 -0.0561
 9827W        W25901   1.449  18.016   3.636 -0.1310 -0.0775  0.0394
 9828W        W25902   7.223  13.829   3.743 -0.1026  0.1170  0.0497
 9829W        W25903   3.448  16.747   0.079  0.0610  0.1459 -0.3575
 9830W        W25904   5.975  12.211  14.479  0.0252  0.1530 -0.0906
 9831W        W25905   4.026   0.127   0.044  0.1099 -0.0800  0.2304
 9832W        W25906   3.242  10.158  15.291  0.0016 -0.1115  0.0609
 9833W        W25907  18.315  10.716   5.201  0.1420 -0.0383 -0.4449
 9834W        W25908  11.254  13.024  13.854  0.0584 -0.0043 -0.1912
 9835W        W25909  11.327   1.254   1.470  0.1262 -0.1697 -0.0479
 9836W        W25910  11.474   3.647  13.318  0.2400 -0.1079  0.2405
 9837W        W25911  14.580   8.313   3.275 -0.1261  0.0672 -0.2553
 9838W        W25912   7.692   1.199  15.764 -0.2908 -0.0965 -0.1214
 9839W        W25913  10.267  10.373  11.053 -0.1444 -0.0022  0.1672
 9840W        W25914   8.187  17.602  10.629 -0.2494 -0.0891 -0.2372
 9841W        W25915  11.538   8.925  12.600  0.0046 -0.0553 -0.0752
 9842W        W25916  12.494   4.047   2.016  0.0819 -0.0094  0.2494
 9843W        W25917   6.408  17.079  14.954  0.1711  0.2049 -0.1079
 9844W        W25918  13.469   2.744  11.553  0.3944  0.0392 -0.0027
 9845W        W25919   0.734   3.675   3.518  0.1203  0.1391  0.0448
 9846W        W25920   8.015  14.957  14.662  0.1815  0.3122  0.4191
 9847W        W25921  16.113   5.662   4.260 -0.0988 -0.1726 -0.2368
 9848W        W25922  12.281   3.080  14.779 -0.2390  0.0133 -0.0892
 9849W        W25923  10.897   5.421   1.700 -0.0548 -0.1474 -0.1394
 9850W        W25924  10.902  12.060   1.279 -0.2152 -0.0009 -0.0808
 9851W        W25925  11.949   1.392   0.722  0.2980 -0.1632  0.0054
 9852W        W25926  16.383  17.569  11.949 -0.1401 -0.0626 -0.1834
 9853W        W25927  18.331  16.490   5.110 -0.1668  0.0847 -0.0138
 9854W        W25928  14.948   6.871   4.233 -0.3171 -0.0029 -0.1316
 9855W        W25929   5.351  15.671   0.717 -0.0529  0.4500  0.2738
 9856W        W25930  16.048  18.157  14.636 -0.1182  0.1088 -0.3063
 9857W        W25931   4.827  11.916  11.742 -0.1266  0.0113 -0.0589
 9858W        W25932   6.495   4.827  14.306  0.0081 -0.0007 -0.0138
 9859W        W25933   0.355  18.330  12.818 -0.3070  0.1424 -0.0112
 9860W        W25934   9.200   1.340  10.835  0.2584  0.1299  0.0826
 9861W        W25935  15.669   0.612   0.514 -0.3330  0.1423 -0.1522
 9862W        W25936   9.679   0.946   5.158 -0.1473 -0.0693 -0.2842
 9863W        W25937   6.980  12.177   0.339  0.1610  0.0444  0.2727
 9864W        W25938  13.456  13.210   2.422 -0.0725 -0.4028 -0.1526
 9865W        W25939  12.963   8.832   3.239 -0.0219 -0.0731 -0.0201
 9866W        W25940  16.641  14.475   3.269 -0.1400  0.1742 -0.0307
 9867W        W25941   7.311  18.168   2.542  0.0688 -0.2346  0.0668
 9868W        W25942  13.231  11.470  15.892 -0.0195  0.1104  0.1010
 9869W        W25943   5.615  15.424  13.554 -0.1770  0.0258  0.0390
 9870W        W25944  15.469   5.964  13.663 -0.0151 -0.2139  0.0555
 9871W        W25945  11.284   3.431   2.187  0.0609 -0.0035  0.1615
 9872W        W25946   6.060  16.035  12.985 -0.1927  0.1754  0.0880
 9873W        W25947   3.227  17.877  12.979 -0.0512 -0.2015  0.0184
 9874W        W25948  17.736  10.438  14.124  0.2153  0.0247 -0.3393
 9875W        W25949   0.257   9.764  14.726  0.4427 -0.0504  0.1624
 9876W        W25950   9.818   2.586   2.752  0.2346 -0.0927  0.0225
 9877W        W25951  17.800   2.429  15.226 -0.2555 -0.1229 -0.1948
 9878W        W25952   8.003  12.581  15.233 -0.0452 -0.3125 -0.0018
 9879W        W25953  10.500   7.149   2.970 -0.1537  0.1757 -0.1858
 9880W        W25954   4.584  13.919   4.048 -0.1435 -0.0548 -0.0176
 9881W        W25955   2.030   4.834   4.270 -0.2367 -0.3113  0.1440
 9882W        W25956   9.049  13.990  14.740 -0.0803  0.0814  0.2994
 9883W        W25957   6.321   3.176   3.047 -0.1501 -0.0091  0.4284
 9884W        W25958  12.431   5.216   5.701  0.1134  0.0973 -0.2851
 9885W        W25959  14.930  10.816   3.345 -0.0153  0.2497 -0.3386
 9886W        W25960   7.266  16.580   3.026  0.1184  0.1847  0.1311
 9887W        W25961   3.651   5.119   5.312 -0.2814  0.3673  0.1308
 9888W        W25962  10.911  12.484  15.936  0.0325  0.2603 -0.1100
 9889W        W25963  15.861   3.338  12.366  0.0724 -0.1756 -0.1536
 9890W        W25964  16.559   9.059   3.559  0.1936 -0.1213  0.0577
 9891W        W25965  13.258   3.373   0.378  0.2704  0.3155 -0.0553
 9892W        W25966  11.343  15.692  14.650 -0.0290 -0.1467 -0.0781
 9893W        W25967  18.437   7.288  14.051  0.0194  0.1045 -0.0331
 9894W        W25968  12.825  14.750   1.956  0.1979  0.0557  0.0778
 9895W        W25969   1.474   6.236   2.181  0.2391 -0.0119  0.0312
 9896W        W25970  15.964  10.552  14.610 -0.1516 -0.1331  0.0265
 9897W        W25971  14.802   5.829   5.276  0.0083  0.0986 -0.1969
 9898W        W25972   7.203  10.291  15.265 -0.2621  0.1220  0.0171
 9899W        W25973  11.064   8.452   4.063 -0.1266 -0.3648 -0.1270
 9900W        W25974   8.720   8.084   1.449  0.0694  0.4404 -0.0735
 9901W        W25975  12.791  17.514  16.004 -0.1045  0.2468  0.1423
 9902W        W25976   8.323   4.649   0.727  0.3965  0.1451 -0.0874
 9903W        W25977  11.044   1.512  10.800 -0.0464 -0.1613  0.0292
 9904W        W25978  12.780  15.460  15.901 -0.2152 -0.1004  0.1550
 9905W        W25979   6.983   1.662  12.430 -0.0227 -0.1248 -0.0230
 9906W        W25980   7.591  12.310   4.498  0.1332  0.0446 -0.0849
 9907W        W25981   8.305   5.825   2.483 -0.2437  0.0332  0.0913
 9908W        W25982   8.074   2.308   2.742  0.1889  0.0509  0.2810
 9909W        W25983   4.976   0.583  12.446  0.0999  0.1882 -0.1374
 9910W        W25984  17.374   2.564   2.705 -0.3155 -0.1070 -0.0597
 9911W        W25985   0.292  14.725  11.984  0.1157  0.1378  0.1501
 9912W        W25986   3.360  13.228   3.186  0.2342  0.0254  0.0787
 9913W        W25987   5.650  11.126  12.670  0.0715 -0.3190 -0.3295
 9914W        W25988  18.094  12.463  11.014  0.1426  0.0638 -0.0282
 9915W        W25989   2.133  12.045   5.710  0.0732 -0.0391 -0.0758
 9916W        W25990  16.903   3.009  15.643  0.1973  0.0004 -0.3253
 9917W        W25991  17.571  10.461   4.719  0.1441  0.1016 -0.0875
 9918W        W25992  16.007   5.313  14.047 -0.0537  0.0681 -0.4604
 9919W        W25993  15.907  17.075   6.117 -0.0688 -0.0449  0.1817
 9920W        W25994  12.230  14.544   3.585 -0.0934 -0.1385  0.0860
 9921W        W25995  16.426   8.626  12.010  0.2536  0.1423  0.0291
 9922W        W25996   7.447  14.446   0.323  0.0933 -0.0995 -0.2464
 9923W        W25997   8.272   7.677  15.078  0.0944  0.2775 -0.0208
 9924W        W25998   7.971  16.875  15.773  0.1201  0.2468 -0.4368
 9925W        W25999  11.983  18.444  10.848 -0.0755  0.1871  0.1506
 9926W        W26000  13.104   0.504   2.159  0.0652  0.0420  0.1589
 9927W        W26001   7.913   2.464   3.840 -0.1224 -0.0924  0.2569
 9928W        W26002  16.595   2.218  12.309 -0.0923 -0.0556 -0.2039
 9929W        W26003   1.079   3.385  15.731  0.1838 -0.0222  0.1630
 9930W        W26004  16.505   5.197   0.096 -0.1545  0.2998  0.2444
 9931W        W26005   9.947   1.790   2.991  0.1155 -0.3347  0.0871
 9932W        W26006   1.992  15.717   4.932 -0.0308 -0.1132  0.0853
 9933W        W26007   1.325  17.709   5.279 -0.0872  0.2274  0.2532
 9934W        W26008  16.976   1.467   2.296 -0.0918  0.0458 -0.1666
 9935W        W26009  12.596  13.371   1.174  0.2076 -0.0354  0.3332
 9936W        W26010   1.862   9.960   0.745 -0.1908 -0.1023 -0.1273
 9937W        W26011  15.075   7.185   1.300  0.0713  0.0301  0.4246
 9938W        W26012  17.943  12.926  15.642  0.2081  0.0363 -0.1191
 9939W        W26013  13.873   0.630   2.657 -0.0527  0.0455 -0.0105
 9940W        W26014  16.358   8.210   3.058  0.0781  0.1870  0.0243
 9941W        W26015   5.089  12.473   4.762  0.1908  0.0096  0.4152
 9942W        W26016   6.953  10.724   0.710 -0.0189  0.3635 -0.0320
 9943W        W26017   1.144   6.116   2.611  0.0490  0.1290 -0.1676
 9944W        W26018   9.510   2.908   5.005 -0.2268 -0.5581 -0.1178
 9945W        W26019   6.787  17.054   2.438  0.0419  0.1736 -0.0920
 9946W        W26020  16.025  16.056  11.179 -0.1246 -0.1208 -0.2309
 9947W        W26021   0.779   2.876  14.930 -0.0260 -0.1473 -0.2944
 9948W        W26022   9.410  12.408  12.139  0.1232  0.1393 -0.2184
 9949W        W26023  12.049  12.337   2.193 -0.2515 -0.1800  0.2082
 9950W        W26024   0.279   2.961   1.202 -0.0630 -0.1359 -0.1209
 9951W        W26025  10.632  15.387   5.136  0.1149 -0.1565  0.2309
 9952W        W26026  13.940   7.813   3.506  0.1521  0.1791  0.1855
 9953W        W26027   0.103   0.420  14.118 -0.2410  0.0331  0.2300
 9954W        W26028  10.762  18.052   3.943 -0.0107 -0.0076 -0.3134
 9955W        W26029   1.357   7.205  11.539 -0.1744  0.1252 -0.0078
 9956W        W26030  12.573   2.073   5.128 -0.1105 -0.0261 -0.3797
 9957W        W26031  16.399   7.930  15.680  0.1651 -0.0347  0.0750
 9958W        W26032   7.517   6.310   4.347  0.3472  0.0185 -0.0777
 9959W        W26033  17.398   8.818   3.521 -0.1121 -0.0634 -0.1386
 9960W        W26034   0.332   0.091  15.777 -0.0197 -0.0176  0.3962
 9961W        W26035   3.011  13.652  14.603  0.3192  0.0616 -0.1100
 9962W        W26036   3.763  12.251  12.749  0.1859 -0.4274  0.0775
 9963W        W26037  15.147   1.500  12.599 -0.1593  0.1931 -0.0301
 9964W        W26038  12.024  16.856  13.881  0.1826 -0.2312  0.0942
 9965W        W26039  10.837  10.947   0.447  0.1052 -0.0432 -0.0032
 9966W        W26040   9.090  13.667  12.267  0.0273  0.0481  0.1460
 9967W        W26041  11.277  10.505  11.004  0.2205  0.3580 -0.0010
 9968W        W26042  13.451   5.367   4.213  0.0745 -0.1550  0.2271
 9969W        W26043   8.355   3.913   5.297  0.2353 -0.1422 -0.1073
 9970W        W26044  12.870  10.902   4.579 -0.2938 -0.1159  0.3251
 9971W        W26045  11.027  12.598   2.323 -0.1849 -0.0512 -0.0049
 9972W        W26046   2.350   1.190  11.360 -0.2300  0.1286 -0.0369
 9973W        W26047   9.600  15.290   4.868 -0.1837 -0.1955  0.1348
 9974W        W26048  12.161   3.560  12.289  0.2095  0.0735  0.2668
 9975W        W26049   7.043  14.480  12.636 -0.1971  0.0358  0.1425
 9976W        W26050   0.308   1.109   4.324  0.0361 -0.0060 -0.1054
 9977W        W26051   3.449   0.817   3.936  0.1299  0.1649  0.2136
 9978W        W26052   1.320  18.191  15.782  0.1603  0.1174 -0.1663
 9979W        W26053   9.607  10.029   1.389 -0.1959 -0.0012 -0.0288
 9980W        W26054   8.124   4.586  13.688  0.1932 -0.2464  0.1233
 9981W        W26055  13.275   0.941  13.356 -0.1368 -0.2011 -0.1149
 9982W        W26056  15.764  14.279  14.318  0.1949 -0.0258 -0.1739
 9983W        W26057  15.485   2.153  15.184  0.1963  0.2603 -0.0067
 9984W        W26058   1.430  18.021   2.983  0.1513  0.2310 -0.2836
 9985W        W26059  18.116   0.717   4.026  0.3566  0.0058 -0.0831
 9986W        W26060  12.413  10.761   2.365  0.1840  0.2715 -0.2836
 9987W        W26061   8.413  15.105   4.551  0.0416  0.1281 -0.2193
 9988W        W26062   2.761  14.366   5.907 -0.1961  0.1465 -0.0213
 9989W        W26063  13.551  13.604   0.352  0.0240 -0.1987  0.0170
 9990W        W26064  10.823  10.446   5.177 -0.1738  0.1451 -0.4808
 9991W        W26065   9.143   7.574  13.353 -0.1603 -0.0246  0.0725
 9992W        W26066   3.505   8.871  14.175 -0.1648 -0.0752  0.0049
 9993W        W26067   6.684   7.374  14.722  0.0225  0.3003 -0.3960
 9994W        W26068   8.734   5.688  10.056 -0.0263 -0.0826 -0.2656
 9995W        W26069  10.228  14.052   1.311 -0.0846  0.0517  0.0599
 9996W        W26070   0.487  11.846  13.966 -0.3010  0.1963 -0.2386
 9997W        W26071  16.793   4.040  11.094 -0.0884 -0.1317  0.4629
 9998W        W26072   3.188   3.425   0.559 -0.0098 -0.0834  0.2579
 9999W        W26073   6.877  17.603   0.341  0.1655  0.0661 -0.0644
10000W        W26074  14.773  13.938  13.430  0.2369  0.5350 -0.1823
10001W        W26075  13.503  16.775   0.714 -0.1510 -0.1173  0.0327
10002W        W26076   8.975   3.480   0.692 -0.0852 -0.1058  0.0896
10003W        W26077   1.644  10.287  13.651 -0.2514 -0.0266  0.1049
10004W        W26078   8.092   7.221  14.743 -0.0089 -0.1328  0.2254
10005W        W26079  10.719   0.153   5.095  0.2430  0.1445 -0.1844
10006W        W26080  12.807   5.681  15.524 -0.1396 -0.0242 -0.1029
10007W        W26081  12.818   4.023  15.712  0.1130 -0.0695 -0.4080
10008W        W26082   0.331   4.467  12.000  0.0280 -0.0352  0.1726
10009W        W26083   1.053   2.484  14.748  0.1315 -0.1447 -0.0233
10010W        W26084   1.565   4.111   2.480 -0.0703 -0.0504  0.2327
10011W        W26085   9.751   6.039   3.387  0.0761 -0.0483  0.1289
10012W        W26086  15.429   7.566   1.131 -0.0617 -0.0122 -0.1642
10013W        W26087   1.135   4.899   5.313 -0.0067  0.1993  0.0293
10014W        W26088   0.033   5.531  13.578 -0.0580  0.0733  0.3217
10015W        W26089  13.847   2.802   3.721 -0.0267  0.1404  0.1280
10016W        W26090   3.490   2.294   1.642 -0.1349 -0.1452  0.1722
10017W        W26091  15.165  10.124   1.427  0.1637 -0.3425  0.2095
10018W        W26092   9.975   7.200   5.103 -0.2570  0.0693  0.1511
10019W        W26093  13.272  17.558   0.138  0.0447 -0.2228  0.2123
10020W        W26094   2.776  14.439   0.456 -0.2032  0.1379 -0.3768
10021W        W26095  14.646   1.907   2.228  0.1435 -0.2059 -0.2355
10022W        W26096   7.715   4.787   5.646 -0.3081  0.2242  0.0844
10023W        W26097  18.195  13.683   3.192 -0.0205 -0.0985  0.3955
10024W        W26098  14.431   8.204   0.726  0.1095 -0.0703 -0.3100
10025W        W26099   5.052   1.886  12.866  0.0645 -0.0087 -0.0382
10026W        W26100   8.605  13.377   1.905  0.3692  0.1733 -0.1120
10027W        W26101  11.778   3.524  11.944  0.1224 -0.0102 -0.0229
10028W        W26102  16.853  18.135   0.535 -0.1471  0.0293 -0.2740
10029W        W26103  17.351  17.782  13.447 -0.1663  0.0572 -0.0881
10030W        W26104  12.215   7.475   2.933  0.0392 -0.2296  0.0692
10031W        W26105   6.987   3.325   3.984  0.2404 -0.4253 -0.1164
10032W        W26106   7.569  17.431   3.281 -0.2284  0.0699  0.0324
10033W        W26107   8.519  13.732  13.394 -0.2296  0.1103 -0.2896
10034W        W26108  10.521   2.976   2.652  0.1237  0.2827  0.1266
10035W        W26109   9.381   6.379  12.369 -0.2180 -0.1048  0.1413
10036W        W26110   7.139  11.145   0.542 -0.2484 -0.2926  0.1632
10037W        W26111  12.289  16.341   3.924 -0.3186 -0.0361  0.0092
10038W        W26112   6.467  10.952   2.842  0.4963  0.1128 -0.0012
10039W        W26113   7.419   5.766   3.064 -0.1001  0.0614  0.4003
10040W        W26114   9.625  18.016  13.213  0.0234 -0.3141  0.2462
10041W        W26115   1.398   3.481  10.090  0.0829  0.1417  0.0872
10042W        W26116  17.211  13.658   3.532 -0.1852 -0.0427  0.0814
10043W        W26117  13.975  10.094  12.883 -0.1838  0.2631  0.2498
10044W        W26118   5.695   5.630  15.582 -0.0485 -0.3828  0.0291
10045W        W26119   1.067   9.032  12.816 -0.0924 -0.0277 -0.0701
10046W        W26120   9.944  12.248  12.974 -0.3390  0.1115 -0.1578
10047W        W26121  16.859   6.679   2.454 -0.0614  0.1697  0.3965
10048W        W26122  17.610  10.771  11.615 -0.1221 -0.0873 -0.1234
10049W        W26123   2.289   2.912   2.980 -0.3766 -0.1469  0.1668
10050W        W26124   2.938  14.123  12.841 -0.0969  0.1743  0.1582
10051W        W26125   9.559   5.125  12.168  0.2054  0.0149 -0.0251
10052W        W26126   4.133   3.624  13.595 -0.0724  0.3710  0.2160
10053W        W26127  13.938   6.076  14.433  0.3048 -0.3879  0.1079
10054W        W26128  17.108  17.039   3.966 -0.3305 -0.3769  0.0735
10055W        W26129   9.372  13.927  13.836 -0.0331  0.0549 -0.2994
10056W        W26130   8.081  15.909  14.331 -0.0015  0.1471 -0.0455
10057W        W26131  12.534  13.206  12.736 -0.0779  0.0240  0.0674
10058W        W26132   9.581   5.922  15.871  0.2865  0.0119  0.1104
10059W        W26133   4.372   7.887   0.453 -0.3263  0.0311  0.2877
10060W        W26134   6.940  16.675  12.854 -0.0453  0.1319  0.0845
10061W        W26135   4.409  17.651  11.584  0.2778 -0.2700 -0.0452
10062W        W26136  10.065   6.200  16.023  0.0847  0.1145 -0.1020
10063W        W26137  13.037   7.408   3.198 -0.2807  0.0726 -0.1326
10064W        W26138  17.703  18.300   0.339 -0.0212  0.2727  0.1790
10065W        W26139   7.881  10.128  12.634  0.0746  0.0126  0.0787
10066W        W26140   4.955  10.858   3.963  0.2449 -0.0207  0.0325
10067W        W26141  11.071   4.853  12.786 -0.2434 -0.1015  0.2428
10068W        W26142  11.588   7.051   5.398 -0.1534  0.1519 -0.3481
10069W        W26143  16.952   3.812  13.337  0.2950  0.1102 -0.2886
10070W        W26144   2.260   8.746  13.663 -0.1069  0.1509 -0.2817
10071W        W26145   3.384   9.536   5.727  0.0315  0.3287  0.2105
10072W        W26146   2.934   1.976  12.054  0.0337 -0.1250 -0.0101
10073W        W26147  11.208   6.701  11.440  0.2071  0.1083 -0.1765
10074W        W26148  18.102   3.320   3.690 -0.1936  0.1175  0.1217
10075W        W26149  13.171   4.689  13.901  0.3959  0.0358 -0.0747
10076W        W26150   4.973   8.291  13.643 -0.2149  0.0020 -0.5648
10077W        W26151  16.466   4.427   3.427  0.1278  0.0371  0.1307
10078W        W26152   3.651  16.760  15.674 -0.1199 -0.0810 -0.1052
10079W        W26153   5.325  13.742  15.612 -0.3659 -0.0815 -0.0755
10080W        W26154   0.296   9.044   1.832  0.0385 -0.0143  0.1499
10081W        W26155   8.746   2.537   1.937 -0.3585  0.0246  0.1110
10082W        W26156   4.528  16.380  12.073  0.2357 -0.0970 -0.0523
10083W        W26157  14.344   9.761   2.393  0.2660  0.0015  0.1238
10084W        W26158   0.034  18.080   0.643  0.3236 -0.2340  0.2484
10085W        W26159   7.994   8.088  14.780 -0.1457  0.1974 -0.0390
10086W        W26160  13.226   3.840  11.680  0.0491 -0.2730 -0.0363
10087W        W26161   6.269  11.296   4.852 -0.2784  0.2239 -0.0281
10088W        W26162   1.313  18.361  11.825  0.0226  0.1099  0.1568
10089W        W26163   8.791   9.579   1.788  0.1374 -0.1031  0.2738
10090W        W26164  14.899  18.084   0.319 -0.0439  0.1126 -0.1647
10091W        W26165   6.228   1.739   4.218 -0.0547  0.1732  0.0217
10092W        W26166  13.416  11.847   3.692 -0.1229  0.0662 -0.1141
10093W        W26167  17.372   2.711   1.083  0.2351 -0.0688  0.3551
10094W        W26168   0.093   0.906  14.964  0.1768  0.1261 -0.1839
10095W        W26169  12.725   9.529  15.003 -0.4713  0.2038 -0.0148
10096W        W26170  15.089  16.705   9.661  0.1853  0.1119 -0.0550
10097W        W26171   1.649   5.118  11.777  0.1362 -0.0927 -0.3073
10098W        W26172  10.926  13.038   2.168  0.2607  0.1096 -0.1809
10099W        W26173  17.318   4.708  11.920  0.1895  0.1022  0.0219
10100W        W26174  16.548  17.697  12.848 -0.1826 -0.3435  0.3171
10101W        W26175   0.965   3.028  10.943 -0.0637  0.3682  0.2109
10102W        W26176  16.458  14.881  14.807  0.1244  0.1697  0.2731
10103W        W26177   8.197  15.472  12.030 -0.0091 -0.0720 -0.0825
10104W        W26178   7.360  15.856  10.369  0.0644  0.4365  0.0746
10105W        W26179  12.405   7.197  15.505  0.0778  0.1238 -0.0723
10106W        W26180   4.427   2.163  15.058  0.0971 -0.0258  0.0985
10107W        W26181  10.425   6.144  12.079 -0.0101 -0.0026 -0.1432
10108W        W26182   4.455   8.323   6.065 -0.2679 -0.0457 -0.0717
10109W        W26183  16.755  12.790   0.482 -0.1661 -0.1124  0.0932
10110W        W26184   7.537  12.847  11.914 -0.0583 -0.1250  0.1214
10111W        W26185  18.449   0.243  15.423 -0.0947  0.0807  0.0900
10112W        W26186   5.202   3.698  13.608  0.2910  0.1520  0.2327
10113W        W26187   6.028  18.494  13.144 -0.2708  0.3346 -0.3285
10114W        W26188  16.719   0.603  11.006  0.0648 -0.2472 -0.0259
10115W        W26189   9.260   5.849  11.646  0.0069 -0.0207  0.1981
10116W        W26190  13.741  15.840   5.027 -0.0658  0.1234  0.2065
10117W        W26191  16.131   8.628  13.343  0.0419  0.1303 -0.2316
10118W        W26192   4.476  14.207   1.113  0.3599  0.1525 -0.2571
10119W        W26193  15.768  13.752  15.745 -0.4132 -0.0598  0.0785
10120W        W26194  13.874   7.612  15.953  0.0601 -0.0778 -0.1457
10121W        W26195   9.652   9.990   5.411  0.2113 -0.0409 -0.0892
10122W        W26196  14.167   6.939   1.263  0.2337 -0.1516 -0.0380
10123W        W26197  15.486  15.563   5.011 -0.2004  0.1594  0.0248
10124W        W26198   2.769  15.000   2.288  0.1411  0.2276  0.2842
10125W        W26199   8.102  17.408  10.044 -0.0048 -0.4683  0.0676
10126W        W26200   4.600   4.451   3.777  0.0631 -0.3233  0.1058
10127W        W26201   6.457  11.624  11.722 -0.1979 -0.3275  0.0418
10128W        W26202  18.422  12.202  13.427  0.3193  0.0547 -0.2086
10129W        W26203  18.508  10.358  14.865 -0.2275  0.3009 -0.0629
10130W        W26204   0.168  13.877   4.750 -0.0505 -0.0033 -0.0020
10131W        W26205   3.350   6.308   1.979  0.1458 -0.0070 -0.0529
10132W        W26206  13.925   4.749  13.049  0.0641 -0.1583 -0.2090
10133W        W26207  18.498   7.030   2.072 -0.2455  0.0421  0.2010
10134W        W26208   2.553   7.465   4.336  0.2313 -0.1983  0.0151
10135W        W26209   2.375  12.245  13.482  0.2413 -0.3928  0.4208
10136W        W26210  13.866   8.281   3.741  0.2580 -0.2886  0.1003
10137W        W26211   4.451   0.454   3.021  0.2579 -0.1295  0.0044
10138W        W26212   1.759   1.135  15.970 -0.1239 -0.1583 -0.0204
10139W        W26213  10.923  12.096   2.337 -0.0275  0.1242 -0.1887
10140W        W26214   3.099  16.242   0.061 -0.3080 -0.0863  0.3323
10141W        W26215  11.060   4.293  14.579  0.0488  0.1966  0.2410
10142W        W26216   5.839   0.272   5.929  0.1770 -0.1642  0.2492
10143W        W26217   4.078  18.551  14.156 -0.0095 -0.0321 -0.1201
10144W        W26218   7.701   9.087  14.663 -0.0376 -0.2082  0.0446
10145W        W26219   2.993   1.582   4.291 -0.5792 -0.2871 -0.2241
10146W        W26220  10.590   5.351   2.104 -0.0617  0.0921  0.1294
10147W        W26221   2.302  12.672   0.406  0.3115 -0.3083 -0.1187
10148W        W26222  17.752  16.209  12.828 -0.0861  0.0371 -0.0544
10149W        W26223   0.742  14.677  11.550  0.2853  0.4283 -0.1045
10150W        W26224  15.847   2.604   0.034 -0.1169 -0.0712  0.0430
10151W        W26225   4.704  16.370   2.811  0.1456  0.3013 -0.0446
10152W        W26226  13.486   1.316   3.933  0.2737 -0.3562 -0.3771
10153W        W26227  12.450   7.163  11.548 -0.1666 -0.0260 -0.0948
10154W        W26228  18.016  17.515  11.703 -0.0960 -0.0107  0.3003
10155W        W26229   5.946   9.907  12.909 -0.0583 -0.4228 -0.3465
10156W        W26230   0.400   3.557   0.615 -0.1380 -0.0401  0.1372
10157W        W26231   9.825   3.033  15.002 -0.3234 -0.2013 -0.0065
10158W        W26232  10.977   8.668  11.760  0.0040  0.1844  0.1675
10159W        W26233  13.747  13.895   5.765  0.3924 -0.2140  0.0981
10160W        W26234  13.760   5.775   4.284 -0.2554  0.0511  0.1311
10161W        W26235  10.455  11.108   4.589  0.0614 -0.1214 -0.0858
10162W        W26236   6.199  16.486  10.670 -0.3505  0.4595  0.1973
10163W        W26237   2.457   0.479  14.774 -0.1453  0.2717  0.0392
10164W        W26238   5.959   2.625  14.842  0.2367  0.0372 -0.0106
10165W        W26239  17.182  10.727   3.325 -0.0175  0.0182 -0.1779
10166W        W26240  17.839   0.508   3.071 -0.1533  0.3068 -0.2308
10167W        W26241  13.415   0.784   5.588  0.2907  0.3100 -0.1810
10168W        W26242   5.932  15.978   2.269  0.0926  0.1048 -0.4251
10169W        W26243   3.731  13.735  13.843  0.1717  0.2842  0.0504
10170W        W26244   5.141  17.473   6.222 -0.1576  0.3265  0.0727
10171W        W26245   6.320  10.946   4.012 -0.1041  0.1121  0.2111
10172W        W26246  16.915  12.849  15.966 -0.2565  0.1119 -0.0107
10173W        W26247   1.577  13.968  14.302 -0.1726  0.1025  0.0873
10174W        W26248   7.560   2.721   2.145  0.0883  0.1920 -0.0013
10175W        W26249  16.963   5.976  15.799 -0.1815  0.4209 -0.3485
10176W        W26250  14.197  12.406  15.686  0.1194  0.1030 -0.0928
10177W        W26251   5.574   2.569   2.618 -0.1580 -0.1158  0.2637
10178W        W26252   7.927  17.387  11.955  0.1459  0.2231 -0.1784
10179W        W26253   4.804   5.595  11.764  0.1331 -0.1448  0.0462
10180W        W26254  16.621  10.448   2.608 -0.2246 -0.0752 -0.0695
10181W        W26255  10.567  18.185   3.497 -0.0912  0.0667  0.1659
10182W        W26256   4.040  17.159  12.265 -0.4447 -0.0186 -0.3026
10183W        W26257  16.946  12.501   2.531 -0.0729 -0.0644  0.2184
10184W        W26258  13.544  14.052  11.068 -0.0405  0.1654  0.1946
10185W        W26259   0.220  16.744   0.460  0.0960  0.1947 -0.0727
10186W        W26260  17.221   1.530   0.766 -0.1155 -0.3753 -0.2650
10187W        W26261   4.906   9.798  12.483 -0.0437 -0.1283  0.3412
10188W        W26262  12.979  11.098   3.457  0.1132  0.3660 -0.1648
10189W        W26263  14.257  14.268   4.341 -0.1150 -0.3042 -0.0326
10190W        W26264  10.828  14.653   5.113  0.0510 -0.1197  0.1792
10191W        W26265  13.913  18.341   0.292  0.0355  0.1882  0.1234
10192W        W26266  13.083  17.308  14.786  0.2323 -0.0526  0.1126
10193W        W26267   4.911  10.286   2.556  0.0954  0.1386  0.1292
10194W        W26268   4.970  13.723   2.831  0.0175 -0.3434 -0.1182
10195W        W26269   4.306   1.305  12.485 -0.3309 -0.2271 -0.1264
10196W        W26270   0.308  14.567   3.934 -0.0522 -0.1053  0.1572
10197W        W26271  18.414   3.810   4.466 -0.1886 -0.0460  0.2099
10198W        W26272   2.299   9.477  14.138  0.0494  0.0734  0.0867
10199W        W26273   6.262  14.480   3.237 -0.1768 -0.2556  0.3049
10200W        W26274  14.856   8.346  13.972  0.0736  0.1919  0.0049
10201W        W26275   9.900   1.521   0.780 -0.1170  0.1273  0.0576
10202W        W26276  10.443   6.963   5.323 -0.1717 -0.0514 -0.1317
10203W        W26277  10.680   7.555  11.270  0.1247 -0.0225  0.0195
10204W        W26278  15.024   0.854  15.025 -0.0863  0.1433  0.1896
10205W        W26279   1.971  12.436   3.726 -0.0404 -0.0093 -0.1758
10206W        W26280  18.491  10.957  15.681  0.1623 -0.1659  0.0177
10207W        W26281   8.556   5.217   0.591 -0.1629 -0.0519 -0.0279
10208W        W26282  15.034  14.559  15.502 -0.0332 -0.2418 -0.1327
10209W        W26283   3.107  15.888   5.787  0.0354  0.0760  0.2536
10210W        W26284   4.777   6.011  12.093 -0.0800  0.3531 -0.1478
10211W        W26285   0.205   1.043   3.609 -0.0190  0.2151 -0.2228
10212W        W26286   9.603  13.885   0.955  0.2289 -0.1059 -0.4563
10213W        W26287  12.784  13.994   2.197  0.0812  0.0368 -0.0793
10214W        W26288  15.148  14.176  10.374 -0.0143  0.3124 -0.2108
10215W        W26289  13.732   9.108  13.394  0.1571  0.4531  0.0642
10216W        W26290  17.027   6.117   0.587  0.1939  0.0974 -0.1813
10217W        W26291   1.327   7.651   2.494 -0.2204 -0.0573 -0.2074
10218W        W26292   3.249   9.190   5.148  0.1174 -0.0748  0.0864
10219W        W26293  12.233  13.235   1.958 -0.1179 -0.3176  0.2008
10220W        W26294   7.620   5.658   0.576  0.1145  0.1634 -0.1801
10221W        W26295   0.891  16.590  15.260 -0.0468  0.0220  0.0018
10222W        W26296   5.144   1.164  10.946  0.1015  0.2975  0.2458
10223W        W26297  10.862   1.856  11.544 -0.2916  0.0654  0.0690
10224W        W26298   0.341  13.269   2.759 -0.1172 -0.0834 -0.0177
10225W        W26299   8.856  15.366  15.117  0.3470  0.1286  0.0943
10226W        W26300  14.616   7.664   3.970  0.0200 -0.2322 -0.0776
10227W        W26301  17.315   8.441  15.084 -0.0843  0.1204 -0.3182
10228W        W26302   9.556  18.375   0.949 -0.0758 -0.0255 -0.0692
10229W        W26303   9.327   5.463   4.539 -0.1014  0.1523 -0.0879
10230W        W26304   9.535   6.556   5.204 -0.1711  0.2804  0.1194
10231W        W26305   2.420   6.404   4.322  0.2787  0.1814  0.1238
10232W        W26306   2.396   0.706  11.700 -0.0535  0.0472 -0.0035
10233W        W26307  11.229  16.231  11.792 -0.0471  0.0361 -0.0444
10234W        W26308  12.891  10.182   2.939 -0.4436 -0.2337 -0.0182
10235W        W26309  13.439   8.093  13.845  0.0061 -0.2240 -0.2005
10236W        W26310  18.232   8.449  15.279 -0.2658 -0.0477 -0.0869
10237W        W26311   2.439   7.385   4.907 -0.2890  0.4083 -0.2157
10238W        W26312   8.984   6.889   4.189 -0.0203 -0.3774  0.1260
10239W        W26313   1.098  18.247   3.411 -0.4366  0.1067  0.1116
10240W        W26314  10.236   8.089  11.900  0.3220 -0.1249  0.0722
10241W        W26315   9.460   4.963   5.190  0.0725  0.1148  0.0966
10242W        W26316  10.059  18.027   5.044  0.0090  0.0988  0.0263
10243W        W26317   8.235   1.901   3.129 -0.0452 -0.1546  0.1396
10244W        W26318  11.694  13.634   3.895  0.2709 -0.2139 -0.1878
10245W        W26319  16.315   7.990   1.264 -0.0617  0.3454  0.0710
10246W        W26320  12.818   7.261  15.868 -0.0852 -0.1451  0.1791
10247W        W26321   8.254   0.538   1.353 -0.2373  0.0795 -0.1838
10248W        W26322   1.617   4.373   4.887  0.1830  0.3093  0.1127
10249W        W26323   3.858   0.020   2.325  0.2563  0.1523 -0.0604
10250W        W26324  18.305   4.711  13.733  0.1358  0.0874 -0.1773
10251W        W26325   8.010  17.585  12.521 -0.1753 -0.1478 -0.3580
10252W        W26326  16.833   2.709   2.010  0.1564 -0.0270  0.0069
10253W        W26327   7.234  13.650  14.744  0.1178 -0.4901 -0.0628
10254W        W26328   1.444  11.342   1.751 -0.0726  0.0814 -0.2291
10255W        W26329   8.037  12.065   4.910 -0.0433 -0.0673 -0.0142
10256W        W26330   2.770  13.309   0.588 -0.1135  0.0746 -0.0732
10257W        W26331  16.781   9.651   0.600  0.1037 -0.0876  0.3794
10258W        W26332   2.407  17.636  12.460  0.1590 -0.1788  0.1626
10259W        W26333   8.811  12.282   1.446 -0.1913 -0.1424 -0.0511
10260W        W26334  17.468  15.636   2.360 -0.1962  0.0386 -0.0174
10261W        W26335   9.392   2.100   1.234  0.2964  0.0920  0.2574
10262W        W26336  11.585   4.785   3.465  0.0769  0.1057 -0.2082
10263W        W26337   2.036  17.487  10.608  0.1350  0.2847 -0.1206
10264W        W26338  11.187  16.603   5.697 -0.0969  0.1679 -0.0330
10265W        W26339   8.116  11.660  14.168 -0.1132 -0.0681  0.0273
10266W        W26340   5.887   0.241   4.661  0.0658 -0.0990  0.2389
10267W        W26341   9.542  12.888  11.868 -0.3763 -0.2647  0.3030
10268W        W26342   9.715   4.315   1.406 -0.2531  0.0657 -0.0587
10269W        W26343   0.873   0.727   1.736 -0.1451 -0.0492  0.0741
10270W        W26344   4.184  16.861   0.127 -0.0677  0.0167 -0.0519
10271W        W26345   4.978   0.134  12.226  0.1767 -0.0038  0.2830
10272W        W26346   8.740   8.985   0.107 -0.0727  0.2519 -0.1382
10273W        W26347  13.894  15.607  14.075  0.0118  0.2387 -0.0373
10274W        W26348   5.002   7.837   4.816  0.2462  0.1143  0.0397
10275W        W26349   2.785   8.087   1.245  0.3096  0.0780  0.0901
10276W        W26350  12.490  17.101  10.717 -0.0790  0.1852 -0.2403
10277W        W26351  10.034  16.251  14.538  0.1654  0.1303 -0.0232
10278W        W26352  17.817   8.928   3.808 -0.0103  0.5246 -0.0929
10279W        W26353  15.235  16.780   2.949 -0.0193 -0.1152  0.1466
10280W        W26354  16.992  15.438   4.147 -0.1273 -0.0773  0.1958
10281W        W26355   0.843   3.630  13.360  0.0132  0.3089  0.0530
10282W        W26356   0.920   1.398   1.725  0.1648 -0.2316 -0.0202
10283W        W26357  13.256  14.392  15.811 -0.1096  0.2093  0.2625
10284W        W26358   3.114   7.793  12.406  0.1090 -0.2782  0.1614
10285W        W26359  13.388  16.221  15.392  0.0623 -0.0042  0.0895
10286W        W26360  16.589  14.848   5.118  0.0602 -0.1434 -0.2653
10287W        W26361   1.961   4.817   2.111 -0.4958  0.1033 -0.0229
10288W        W26362  16.017   8.038  14.942 -0.1559 -0.0543  0.2475
10289W        W26363  14.220  12.057  14.083 -0.2727 -0.0017 -0.2890
10290W        W26364   8.167  16.202  10.280 -0.1064 -0.1402  0.0284
10291W        W26365   4.027  17.468  15.161 -0.0814 -0.0795  0.1084
10292W        W26366   0.375   7.159  13.045  0.0009  0.0365  0.1080
10293W        W26367   6.934  17.384   2.746  0.0838  0.0713 -0.2645
10294W        W26368  13.604  16.845  15.889  0.1375 -0.0306  0.1929
10295W        W26369   7.499   7.921  14.935 -0.0098 -0.0132 -0.0735
10296W        W26370  14.274   8.476  13.065  0.1861  0.0625  0.1064
10297W        W26371  15.270   3.936   3.087 -0.1173  0.0301 -0.2053
10298W        W26372   0.231   0.318  14.970  0.2630 -0.0337 -0.0153
10299W        W26373  11.016  15.803  12.861  0.0796  0.1573  0.0381
10300W        W26374  11.621  10.496   3.336  0.3684 -0.0912 -0.1341
10301W        W26375   6.672   3.073  12.374 -0.2802 -0.1802 -0.0875
10302W        W26376  18.301   4.657  14.909 -0.0335 -0.1179 -0.0997
10303W        W26377   9.798  14.613  13.673 -0.0077 -0.2107 -0.2839
10304W        W26378  15.991   2.767   3.092  0.0349 -0.2148 -0.1739
10305W        W26379   5.236  14.857   2.514 -0.0324 -0.1853 -0.0792
10306W        W26380   2.599  16.801   1.233 -0.0412  0.1495 -0.1545
10307W        W26381  12.274   2.979  14.278 -0.0119 -0.0335 -0.1231
10308W        W26382  16.104   5.626   5.200 -0.1210 -0.1431  0.0462
10309W        W26383   7.505   7.199  11.594 -0.1293 -0.3301  0.2020
10310W        W26384  13.537  11.111   2.743 -0.0624  0.2956  0.0163
10311W        W26385  10.757  18.432  15.049 -0.0461  0.1769 -0.0432
10312W        W26386  18.166  18.255   3.920 -0.2416 -0.0722 -0.1494
10313W        W26387  15.207  16.285   1.315 -0.1936 -0.3114  0.1319
10314W        W26388   1.231  12.937  12.471  0.0809  0.0680 -0.0919
10315W        W26389  10.111   4.931   4.764 -0.1880  0.1685 -0.0871
10316W        W26390   8.107  13.409   3.666 -0.0715  0.1973  0.1094
10317W        W26391   4.932  12.142   1.430 -0.2127  0.3388  0.0265
10318W        W26392  12.817  18.410   0.193  0.1467  0.0064  0.2237
10319W        W26393   3.391  12.265   5.765 -0.2577  0.0497  0.2000
10320W        W26394  12.593  15.978  13.601 -0.2192 -0.0133 -0.3669
10321W        W26395   4.453   6.396  15.669 -0.0820 -0.1016  0.0197
10322W        W26396  16.330  15.835  10.924  0.0037  0.0026 -0.4846
10323W        W26397   0.358   0.586  13.083  0.1369  0.0329 -0.0870
10324W        W26398   8.526   9.929  11.379 -0.3287 -0.0899  0.2736
10325W        W26399   1.563  10.369  10.837  0.2294  0.1005 -0.1040
10326W        W26400   1.836   8.096   5.464 -0.0945 -0.5123  0.1286
10327W        W26401  12.092   0.187  11.547 -0.2009 -0.1706  0.0964
10328W        W26402   6.227   0.055   1.069  0.1123  0.0202 -0.1005
10329W        W26403   5.141  10.200   3.914  0.2524  0.0620 -0.0358
10330W        W26404  11.386   2.722   0.883 -0.4127  0.1450 -0.0223
10331W        W26405  10.578  15.752   1.170 -0.1484  0.0595 -0.1729
10332W        W26406  10.364  10.702   0.867  0.3099 -0.2212  0.2458
10333W        W26407   0.134   4.601  11.428  0.1271 -0.1013  0.1254
10334W        W26408   5.280  13.627   5.063  0.3283 -0.2016 -0.0145
10335W        W26409   9.253  16.649  12.983  0.0108 -0.1158 -0.0897
10336W        W26410   9.372  15.033  13.521  0.2980  0.2379 -0.0592
10337W        W26411  16.274  16.801  11.865  0.1193  0.0546  0.1604
10338W        W26412  14.097   3.575   4.570 -0.2987  0.1101  0.0482
10339W        W26413  14.173   0.418   4.349 -0.0088 -0.0745 -0.0554
10340W        W26414   2.960  13.129  13.785 -0.0961  0.0177  0.1736
10341W        W26415   1.972  12.651  11.932 -0.2129  0.1258  0.1092
10342W        W26416  11.819   8.370  14.376 -0.0749  0.0979  0.1265
10343W        W26417   5.201  18.129  13.529 -0.0537 -0.2958 -0.1164
10344W        W26418   2.810  12.423  15.572  0.4517  0.1338 -0.0318
10345W        W26419   8.667   7.566   5.331 -0.0428  0.4574 -0.2780
10346W        W26420   7.384   6.157   1.357 -0.0668  0.0532 -0.2225
10347W        W26421  12.226   0.882  13.808 -0.2234 -0.0068 -0.2871
10348W        W26422  18.107   7.638  15.940  0.2871  0.2513  0.1224
10349W        W26423  14.877  12.220  13.220  0.5246 -0.2707 -0.1068
10350W        W26424  17.758   4.019   1.010 -0.3216 -0.1497 -0.2383
10351W        W26425   9.231  11.243   1.041 -0.2694  0.0903 -0.3113
10352W        W26426   1.473   2.308   4.742 -0.1105  0.3003 -0.0017
10353W        W26427  17.189  18.069   0.135  0.1515  0.1433  0.2019
10354W        W26428  16.224  14.358  12.165 -0.1467  0.1426 -0.1383
10355W        W26429   2.327  10.810   2.693  0.0364  0.0999  0.0905
10356W        W26430  10.044  15.667  14.590 -0.1243  0.0459  0.2156
10357W        W26431   0.564   1.651   0.776  0.0244  0.0733  0.1618
10358W        W26432   8.967   2.122   4.319 -0.0881  0.0085  0.0155
10359W        W26433  16.953   7.284   3.223 -0.3809  0.1296 -0.0467
10360W        W26434   7.953   1.507   2.165  0.2491  0.2967  0.0519
10361W        W26435   6.671  14.880   3.660  0.3804  0.1506 -0.0276
10362W        W26436   6.990   7.235  15.107  0.0522 -0.1558 -0.4476
10363W        W26437  14.987  11.179   0.184  0.1852 -0.1881  0.0534
10364W        W26438  10.074   2.113  14.295  0.2276 -0.3726  0.2912
10365W        W26439   1.822   8.386   0.799 -0.2077  0.0198 -0.0385
10366W        W26440  17.710  12.632  12.073 -0.2110  0.1772 -0.1074
10367W        W26441   3.531  16.647  11.720 -0.2343  0.1623 -0.1552
10368W        W26442  17.859   0.009   3.790  0.4574  0.0287 -0.0497
10369W        W26443  12.847  13.235  10.980  0.0420  0.1700  0.2527
10370W        W26444   5.905  11.419   4.269  0.0444  0.1349  0.2739
10371W        W26445   3.533   7.382  11.939  0.0645  0.1160  0.2883
10372W        W26446   2.907  17.511  12.750 -0.2045 -0.3517  0.3500
10373W        W26447   2.857   5.663   1.362  0.2677 -0.0157  0.1345
10374W        W26448   1.797   9.673   3.900  0.0936  0.1048 -0.3280
10375W        W26449   3.054   6.008   3.899  0.1276 -0.0964 -0.1931
10376W        W26450   7.559   1.571  14.873 -0.0110  0.1799 -0.2133
10377W        W26451  16.479   5.612  12.398 -0.1091 -0.0420  0.1287
10378W        W26452   8.256  12.588  12.487 -0.3356  0.2402  0.0686
10379W        W26453   0.554   0.820  15.364  0.2638  0.0162 -0.1218
10380W        W26454   6.190  10.311   4.046 -0.2333  0.0168  0.0560
10381W        W26455  17.891  10.084   2.377 -0.3340  0.2239  0.1556
10382W        W26456  11.737   3.470   4.640  0.2262 -0.0491  0.2731
10383W        W26457   0.164   2.000  10.898 -0.0388  0.0227 -0.0063
10384W        W26458   6.629   9.921  14.827  0.2052  0.2005 -0.1300
10385W        W26459  15.960   0.668  11.539 -0.0590 -0.1431 -0.1086
10386W        W26460  10.400   1.269   1.798 -0.2961  0.3868  0.0288
10387W        W26461   8.200  18.327   0.843 -0.3188 -0.0318  0.0563
10388W        W26462   6.608  14.284   0.737  0.0643 -0.0602 -0.1632
10389W        W26463   6.118   8.496   5.361 -0.2039 -0.0266 -0.2732
10390W        W26464   2.966   1.654  14.240  0.4717 -0.4364 -0.4335
10391W        W26465   1.052   7.500   2.889  0.0473  0.0074 -0.2054
10392W        W26466   7.676   2.405  10.795 -0.1091 -0.0839 -0.2071
10393W        W26467  15.639   9.071   3.989 -0.0006  0.2015  0.1117
10394W        W26468   1.366   4.191   0.093 -0.2426  0.0007 -0.1189
10395W        W26469  18.183   0.840   3.262 -0.1190 -0.0705 -0.2643
10396W        W26470   2.425  16.007  12.500  0.0267  0.0408 -0.0504
10397W        W26471   7.046   0.717  12.592 -0.0651  0.1980 -0.0285
10398W        W26472  10.627   4.936   0.038 -0.3071  0.0731 -0.2489
10399W        W26473   2.057   6.599   3.952 -0.2604  0.2192 -0.1904
10400W        W26474   0.501   3.141  14.116  0.1276  0.1301  0.0687
10401W        W26475   7.958   9.800  13.072 -0.1102  0.1589 -0.3183
10402W        W26476   6.091  17.188  11.975  0.2965  0.3548  0.0281
10403W        W26477  14.093   7.457   4.931 -0.0377  0.1416 -0.0361
10404W        W26478   1.755  12.642   0.990  0.1017 -0.0035 -0.1703
10405W        W26479   5.869  15.156  13.983  0.0411 -0.2561  0.1768
10406W        W26480   8.625  13.789  12.526  0.1246 -0.1721  0.2574
10407W        W26481   6.709   3.962  12.292  0.2605  0.3387 -0.0204
10408W        W26482   5.232  17.599  13.708  0.1660  0.1929  0.1448
10409W        W26483  18.013  12.242   2.340 -0.0105  0.1723  0.1016
10410W        W26484   1.170  15.901   3.023  0.1331 -0.2496 -0.0798
10411W        W26485   5.691   0.411   4.239  0.1234  0.1700  0.2362
10412W        W26486  11.234   1.993  15.705  0.2462 -0.1018  0.0010
10413W        W26487  13.109  18.478   5.415 -0.1710 -0.1081  0.1716
10414W        W26488   3.739  14.846   1.341  0.0544  0.0318  0.0578
10415W        W26489   7.236   2.296  13.905  0.1144  0.0631 -0.0972
10416W        W26490   8.682  10.630  14.376 -0.1540  0.0592 -0.2916
10417W        W26491   7.730  11.975   5.362 -0.0345  0.1331 -0.0630
10418W        W26492  16.145   7.529   2.581 -0.0888 -0.0966  0.2454
10419W        W26493   2.684  10.754   1.830 -0.1823 -0.1696  0.2010
10420W        W26494   7.478   3.567   3.670  0.2946  0.0582 -0.0120
10421W        W26495   4.593   9.358   4.561 -0.3407 -0.4106  0.1023
10422W        W26496  16.599   8.106   4.490 -0.0021 -0.0287  0.2303
10423W        W26497  13.000   1.901   2.331  0.2033 -0.2842  0.1203
10424W        W26498   6.671   2.365   3.778 -0.0298 -0.1495  0.3737
10425W        W26499   3.830   8.202   3.768  0.0480  0.0975  0.4138
10426W        W26500  12.163   8.750   5.259 -0.1563 -0.1210 -0.1806
10427W        W26501  12.878  15.690   5.867  0.1052 -0.0360 -0.2686
10428W        W26502  17.617   9.471  11.738 -0.1646 -0.0720  0.0616
10429W        W26503  18.130   4.852   2.147  0.2536  0.2575 -0.1818
10430W        W26504   9.051  12.361  14.678  0.4105  0.0616  0.2543
10431W        W26505  10.940  13.222   1.317 -0.0161 -0.1411 -0.1130
10432W        W26506   3.090  14.926  11.736 -0.0207  0.0801  0.3174
10433W        W26507   6.922   6.534   2.387 -0.0630  0.0684 -0.0939
10434W        W26508   2.711   5.864  11.320 -0.3140  0.1313 -0.3880
10435W        W26509   8.548   2.477   5.017 -0.0104 -0.3636  0.0146
10436W        W26510  13.109  12.260   0.199  0.0547  0.3477  0.0571
10437W        W26511   1.877   7.909   3.019  0.0144  0.2861 -0.0967
10438W        W26512   6.698   8.280   0.719  0.0739  0.3169 -0.3260
10439W        W26513   5.283  15.063   3.132  0.1944 -0.1143  0.2221
10440W        W26514   5.739   9.810   2.775  0.1443 -0.3038  0.1508
10441W        W26515   7.090   5.189  14.246 -0.1718 -0.0691 -0.1696
10442W        W26516   8.905  18.325   5.790  0.0575 -0.1981 -0.2964
10443W        W26517  16.905   8.591   1.396 -0.0051 -0.1835  0.0750
10444W        W26518   6.996   5.782   2.629 -0.2205 -0.1883 -0.0982
10445W        W26519  10.904  13.735  15.947 -0.0357 -0.1073  0.1953
10446W        W26520  13.796  13.995   1.981  0.1489 -0.2121  0.0741
10447W        W26521  10.176  12.491   3.333  0.0117  0.0905 -0.1861
10448W        W26522   4.497  13.741   5.143  0.0664 -0.0248 -0.2597
10449W        W26523   4.578   6.311   1.141  0.1355 -0.1317  0.1707
10450W        W26524  11.048   2.345  11.712  0.0127  0.2487 -0.2697
10451W        W26525  12.780   3.341   0.273 -0.0444  0.4204  0.0707
10452W        W26526  15.059   8.373  11.398  0.0946  0.0002 -0.0784
10453W        W26527  14.930   9.057   2.214  0.5117  0.0346  0.2015
10454W        W26528   9.615  15.821  14.359  0.0753 -0.1921 -0.2270
10455W        W26529  11.545   2.843   0.004 -0.1510 -0.3380  0.0803
10456W        W26530  16.796   3.858   0.317  0.0682  0.2027  0.1770
10457W        W26531   4.458   7.648   3.184  0.0059  0.0714 -0.1559
10458W        W26532   5.096   9.174   1.683  0.1948 -0.0454  0.1737
10459W        W26533  17.669   8.070  11.779 -0.1287 -0.1892  0.0775
10460W        W26534   4.712  13.446   4.282  0.1712  0.0094 -0.1999
10461W        W26535   5.366  17.907  15.307 -0.1266  0.0679  0.0001
10462W        W26536  14.121  16.760  14.118  0.3336  0.0806 -0.0080
10463W        W26537   7.008  12.109   2.428  0.0956 -0.0285  0.0272
10464W        W26538   3.151  13.028   1.706 -0.0056  0.0007  0.0360
10465W        W26539  14.392   1.555  14.286 -0.1886 -0.0399  0.1322
10466W        W26540   8.881   1.641   2.336  0.0023  0.1144 -0.0912
10467W        W26541  18.186  16.746  13.365  0.4121 -0.1178 -0.0699
10468W        W26542  14.441   6.171  14.625 -0.4659 -0.1204  0.1019
10469W        W26543  10.313  12.357   5.046 -0.4064  0.1260 -0.3948
10470W        W26544   8.678  15.113   3.519 -0.2723  0.1433  0.1745
10471W        W26545   0.762   7.811  13.394 -0.2498  0.2870 -0.0049
10472W        W26546   6.892  13.296   2.655  0.4222  0.0307  0.4215
10473W        W26547   6.834   5.859   5.089  0.1091  0.0770  0.1746
10474W        W26548  13.318   4.285   3.198  0.1617  0.0957 -0.0639
10475W        W26549  12.122  10.817   1.076  0.1341 -0.0324  0.0760
10476W        W26550  14.814  12.526   5.121  0.0725  0.2863 -0.1595
10477W        W26551  17.962  12.117  11.861 -0.0035  0.0749 -0.2994
10478W        W26552  10.349   7.839  10.898 -0.0956 -0.0461 -0.1856
10479W        W26553  18.493   3.263   3.055  0.2862 -0.2094  0.3181
10480W        W26554  14.632  15.158   2.336 -0.2016 -0.1116  0.0665
10481W        W26555   2.241   2.943  12.656 -0.2064 -0.2034  0.3056
10482W        W26556   9.317  12.557  11.562 -0.2918  0.0402  0.1260
10483W        W26557   7.563  12.348  13.709 -0.0599 -0.0152  0.1824
10484W        W26558   7.528  15.334  13.740  0.0988  0.1047  0.0700
10485W        W26559   9.267  16.335   2.504 -0.1031  0.2427  0.0531
10486W        W26560   2.596  17.364   4.545  0.1569 -0.0303 -0.1390
10487W        W26561  13.946  13.797  11.978 -0.0450 -0.4570  0.1751
10488W        W26562   6.997   6.299   4.772  0.1523 -0.0072  0.0340
10489W        W26563  12.409  12.394   2.998 -0.4875  0.0552 -0.1078
10490W        W26564   2.939  13.463   1.039  0.0244  0.0051 -0.2882
10491W        W26565  12.804   8.733  13.551  0.0162 -0.1461 -0.1957
10492W        W26566   1.281  17.362  14.736 -0.2126  0.0579 -0.2230
10493W        W26567   9.470   5.166  14.964  0.0695 -0.0863 -0.2089
10494W        W26568   9.126  14.277   3.326 -0.0551 -0.0350 -0.0681
10495W        W26569  12.209   6.073  13.626 -0.1804 -0.1567 -0.0120
10496W        W26570   6.735   7.322  14.259 -0.1172 -0.1592 -0.1729
10497W        W26571   2.854   3.556   2.074  0.3776  0.1040  0.0092
10498W        W26572  17.853   7.728   2.943  0.1984 -0.2013  0.1452
10499W        W26573  10.127   7.637   0.635 -0.1941 -0.0549  0.1730
10500W        W26574  14.425   3.061  14.160 -0.0379  0.2705 -0.0897
10501W        W26575  16.485   1.015  15.334  0.5501  0.1617  0.0708
10502W        W26576   4.490  14.016   0.636 -0.2963  0.1276  0.1498
10503W        W26577   9.035   6.657   1.541 -0.1347  0.5019 -0.2219
10504W        W26578   4.090  10.485  11.780 -0.0783 -0.1682 -0.1305
10505W        W26579  17.522  13.594  11.314  0.3250  0.0010  0.1309
10506W        W26580  15.483  17.780   4.634 -0.0886 -0.1414 -0.1801
10507W        W26581  17.602   6.791   1.056  0.2383 -0.0504  0.0107
10508W        W26582   3.654   1.740  15.951  0.0618  0.1073  0.2678
10509W        W26583  13.639  14.963  12.683 -0.1872  0.1309 -0.2463
10510W        W26584   4.648  14.447   4.958 -0.2697 -0.0256  0.1528
10511W        W26585   0.844   9.996   2.383 -0.0801 -0.0322 -0.0830
10512W        W26586  16.278  10.950  13.745  0.1974 -0.0545  0.1691
10513W        W26587   2.898  10.735   1.337  0.2518 -0.2152  0.1285
10514W        W26588  16.463  18.461  14.655 -0.1773 -0.0762 -0.0202
10515W        W26589  11.347   3.075  12.522  0.3257 -0.0519  0.1811
10516W        W26590   2.086   5.169  11.140 -0.3300 -0.0619 -0.1868
10517W        W26591  10.049   2.369  12.128 -0.1600  0.1690 -0.3419
10518W        W26592   0.784  10.395   3.450 -0.2647  0.3241 -0.0804
10519W        W26593  14.779  14.100   2.891  0.1028 -0.0726 -0.0967
10520W        W26594   5.781  11.279   4.800  0.1094 -0.1899  0.2179
10521W        W26595  14.306  17.434  14.958 -0.1416 -0.1168  0.0010
10522W        W26596   8.582  18.090  11.251  0.1604  0.4710  0.1385
10523W        W26597   8.921  17.165  11.787 -0.1202 -0.1004 -0.0396
10524W        W26598  13.483   5.232  11.330 -0.2322 -0.0828  0.2734
10525W        W26599   8.449   8.594  11.448 -0.1587  0.0969  0.1544
10526W        W26600  13.383   1.065  10.165  0.1378  0.1382  0.0917
10527W        W26601  17.717   6.150  13.814 -0.0351  0.2782 -0.3469
10528W        W26602   4.578   8.588   5.106 -0.2155  0.2769 -0.0055
10529W        W26603  16.984   9.595  15.685  0.1515 -0.3517  0.1407
10530W        W26604  15.312  11.069   2.067 -0.0142 -0.1487 -0.1209
10531W        W26605  11.611   1.853   0.613 -0.1812  0.1074 -0.1717
10532W        W26606  17.023   6.123   4.475 -0.3280 -0.1478  0.1355
10533W        W26607   8.138   1.279   3.291  0.1598 -0.0556  0.1094
10534W        W26608  10.062  14.457   4.811  0.2152 -0.1913 -0.0773
10535W        W26609  16.417   7.083   0.052 -0.1184 -0.4897  0.1065
10536W        W26610   4.277  11.885  14.438  0.0476  0.0840 -0.0229
10537W        W26611   9.577  14.483   3.486 -0.0900 -0.0730 -0.1751
10538W        W26612   1.421  10.162   2.115 -0.0977  0.1632  0.2378
10539W        W26613  11.092   0.888   2.326  0.2584  0.3663 -0.1351
10540W        W26614  14.074  11.882   1.712 -0.0576 -0.2026 -0.0222
10541W        W26615   3.463   5.734  13.771 -0.0332 -0.3732  0.0800
10542W        W26616   2.811  12.734  11.545 -0.0398 -0.3752  0.0245
10543W        W26617   4.573  10.256  16.013 -0.0144 -0.2809 -0.1018
10544W        W26618  12.769  17.104   0.910 -0.0479  0.1096  0.1810
10545W        W26619  17.365  10.508  13.700  0.0869 -0.1033 -0.0939
10546W        W26620  11.434  15.265  14.275 -0.1561 -0.2005  0.0514
10547W        W26621  13.774  10.508  12.012 -0.0347  0.2712  0.3616
10548W        W26622  16.133   6.638   4.704  0.2962  0.1211  0.3960
10549W        W26623  15.685   0.618   4.278  0.1777 -0.1372 -0.0227
10550W        W26624  13.305   4.612   3.731 -0.0638  0.0874  0.2038
10551W        W26625   9.483  13.296   2.259  0.1497 -0.1328 -0.1602
10552W        W26626   0.774   0.794  12.365  0.2189  0.1164  0.4641
10553W        W26627   4.362  15.287  14.523 -0.0713 -0.0339  0.1348
10554W        W26628  10.000   2.287   3.150 -0.2132 -0.2161  0.0035
10555W        W26629   1.756   8.900   1.758  0.1431  0.4074  0.0469
10556W        W26630  13.248   7.575   3.608 -0.1945 -0.0929  0.1550
10557W        W26631   6.259   7.112   6.290  0.1255 -0.1220 -0.3715
10558W        W26632  12.514  11.053   0.251 -0.2561  0.0099 -0.2507
10559W        W26633  10.283   7.913   3.437 -0.5850  0.1967  0.0862
10560W        W26634   7.270   9.771   1.948  0.4149 -0.1782  0.3650
10561W        W26635   5.599   5.680  15.066  0.0520  0.3682 -0.0178
10562W        W26636  15.085   9.777   2.988  0.3373 -0.0350 -0.1865
10563W        W26637  18.033  15.661   4.134 -0.2519  0.0584 -0.0509
10564W        W26638   4.499   6.023  15.215  0.2148 -0.3180 -0.2611
10565W        W26639   4.107  15.725   3.121  0.2281  0.1151  0.2699
10566W        W26640   8.004   0.516  10.923 -0.3215 -0.0334 -0.0171
10567W        W26641   2.800  12.914   3.351 -0.2707 -0.2705 -0.0949
10568W        W26642  17.080   6.062   5.433 -0.1131 -0.0798  0.2822
10569W        W26643  10.789   0.121  10.514 -0.0212 -0.1378 -0.2408
10570W        W26644   6.797  15.624   1.948 -0.1145 -0.0141  0.3609
10571W        W26645  14.779  11.983  15.300  0.3166  0.0627  0.1129
10572W        W26646  13.411   7.134   1.147  0.1500  0.3505  0.0494
10573W        W26647  16.037  11.693  12.004 -0.1927  0.0012  0.2332
10574W        W26648  11.918   4.997  11.910  0.5223  0.0239 -0.0211
10575W        W26649   3.935  17.562  11.268  0.0015 -0.2455  0.0080
10576W        W26650  16.986   2.298  12.615  0.1761 -0.1636 -0.1445
10577W        W26651  17.583  17.357   5.189 -0.1997 -0.2126  0.3680
10578W        W26652   3.358  10.041  13.127 -0.4489 -0.0070 -0.3515
10579W        W26653   8.604   7.126  14.841  0.1169  0.1127 -0.0171
10580W        W26654   5.694  15.485  12.341 -0.0653 -0.1035  0.0837
10581W        W26655   3.233   5.945  12.771 -0.1114  0.1108  0.0683
10582W        W26656  17.304   2.518   1.892  0.3480  0.6180 -0.1453
10583W        W26657  11.577  17.682  10.830 -0.2324  0.4605 -0.0707
10584W        W26658   9.707  17.029   4.244 -0.1100 -0.1746  0.1167
10585W        W26659   4.196  10.573   0.954  0.3793 -0.1275 -0.0678
10586W        W26660  11.103  16.624  10.929  0.0574  0.0510 -0.2133
10587W        W26661   3.987   7.433  13.256 -0.2281 -0.0233  0.0029
10588W        W26662   1.092   1.216  14.645 -0.0132 -0.1059  0.3943
10589W        W26663  12.137   1.980   3.585  0.1614  0.1443 -0.1716
10590W        W26664   8.878  15.866   4.955  0.0863  0.4248 -0.2031
10591W        W26665   1.364   7.598  12.536  0.1212 -0.2615  0.0673
10592W        W26666  18.174   2.619  13.905  0.4555  0.1042 -0.0863
10593W        W26667   6.140   1.144   1.058  0.1149  0.2213  0.1242
10594W        W26668   6.975  12.921  12.199  0.1449 -0.0071 -0.0364
10595W        W26669  15.528   0.815   5.238  0.0671  0.0821  0.0369
10596W        W26670   4.262  16.413  15.944 -0.0365  0.1529 -0.0479
10597W        W26671  10.619  11.675  12.767 -0.1007 -0.0090 -0.2489
10598W        W26672  13.272  11.486  13.044  0.0661  0.3321 -0.0335
10599W        W26673   9.620   0.820   2.849 -0.0895 -0.1357 -0.1617
10600W        W26674  18.490  11.819   1.392 -0.3470 -0.0192  0.1440
10601W        W26675   3.466   0.764   3.440 -0.0830  0.2369  0.3740
10602W        W26676  15.318  11.818   1.466 -0.3666 -0.0431 -0.0015
10603W        W26677   3.058   2.906   4.618 -0.0280  0.1170  0.0820
10604W        W26678   2.855  14.396  13.748  0.2219 -0.2075 -0.0690
10605W        W26679   8.513   8.858  14.700  0.1551 -0.0584 -0.5111
10606W        W26680   0.528   1.663  14.568 -0.1036  0.4554  0.1464
10607W        W26681   0.765   1.983   2.579  0.0567 -0.1136  0.0911
10608W        W26682  11.310   9.313   1.250  0.1255  0.2043 -0.4107
10609W        W26683   0.797  10.077  14.676  0.1600  0.2016  0.0532
10610W        W26684   8.134   3.946   4.161 -0.2365  0.0701  0.1157
10611W        W26685  10.968   7.129  14.937  0.1359  0.1755  0.0167
10612W        W26686   9.981  10.060   3.093 -0.0210  0.0170  0.1818
10613W        W26687  10.281  10.943  14.361  0.4464 -0.2671  0.1347
10614W        W26688  11.444  12.773  12.757  0.1444  0.0048 -0.1661
10615W        W26689  13.407   3.033  12.022  0.1536 -0.1347  0.2552
10616W        W26690  11.765   4.325  13.093  0.0096  0.0862 -0.1832
10617W        W26691   7.238  16.505  11.359 -0.1423  0.0998 -0.1552
10618W        W26692   7.109  10.713  14.981  0.1654  0.3388  0.0775
10619W        W26693   2.737  18.419   4.556  0.3029 -0.0323 -0.0104
10620W        W26694  18.537   2.996  12.864  0.0897 -0.2549 -0.0284
10621W        W26695  12.931   5.156  14.697 -0.1157  0.2578 -0.0031
10622W        W26696  12.749  10.604  12.855  0.0718 -0.2062 -0.0786
10623W        W26697  13.661   8.993  14.858  0.2723 -0.1976 -0.2531
10624W        W26698  13.947   0.570  15.701 -0.3584  0.0363  0.1561
10625W        W26699  16.801  10.171   1.482  0.0217 -0.0639  0.4443
10626W        W26700   8.008   2.311  13.756 -0.0905  0.1207  0.1084
10627W        W26701   7.047   3.580  15.355 -0.0641 -0.1298  0.0207
10628W        W26702   4.063  10.997  14.002 -0.0269  0.3621 -0.0576
10629W        W26703  11.198  15.650   0.496 -0.3218 -0.1956 -0.0450
10630W        W26704  12.405   4.857   4.567  0.0388 -0.1258 -0.0408
10631W        W26705   2.985   8.984   4.659 -0.0126 -0.3122  0.0085
10632W        W26706   6.964  17.002   0.810 -0.1353  0.2660 -0.3025
10633W        W26707   5.834  12.354  14.943  0.1707 -0.1417  0.0870
10634W        W26708   0.770   5.123   3.974  0.1535  0.0927  0.0882
10635W        W26709  11.826   2.188  14.924 -0.2037 -0.0139 -0.2695
10636W        W26710   0.134   7.803   1.337  0.2196 -0.0326  0.0415
10637W        W26711   3.783  10.568  13.306  0.0515  0.0984  0.0965
10638W        W26712  18.190   7.109  13.671  0.0229  0.1432  0.1964
10639W        W26713   1.486  17.654  14.436 -0.1877  0.2008 -0.0761
10640W        W26714   5.477  16.003   0.315 -0.1141  0.0580 -0.2765
10641W        W26715  14.194   3.040  13.199 -0.0563 -0.2297  0.3105
10642W        W26716   0.539   6.420   5.964 -0.0037 -0.0597  0.6525
10643W        W26717  15.151   6.834  15.442 -0.3092 -0.0476 -0.3004
10644W        W26718  11.420   1.049  16.019  0.0975  0.2033  0.3165
10645W        W26719  11.096   1.383   5.669 -0.0543 -0.1022 -0.0655
10646W        W26720   8.455  13.282   2.870 -0.0385 -0.0722 -0.1616
10647W        W26721  10.368  10.183   2.805 -0.0924  0.0591 -0.0198
10648W        W26722  17.732  11.615  13.106  0.0791 -0.2212 -0.2472
10649W        W26723  17.689   4.193  11.165  0.1054  0.2607  0.0772
10650W        W26724  14.522  11.248   4.119  0.2202 -0.0386  0.0444
10651W        W26725  10.941  12.503  13.018 -0.0900  0.0152  0.0615
10652W        W26726  12.288   0.261  10.599 -0.0822  0.1841 -0.1481
10653W        W26727  10.992   4.322  13.513 -0.1533  0.1109  0.2012
10654W        W26728   1.544  10.277   3.077  0.3269  0.3067 -0.0625
10655W        W26729   1.183   5.917   4.203 -0.1817  0.1700 -0.2024
10656W        W26730   2.653  15.253   4.555  0.0919  0.2763 -0.3087
10657W        W26731   4.922  13.702   0.556  0.1529  0.0892 -0.3748
10658W        W26732  10.645  13.642   1.294 -0.1078  0.0105  0.0409
10659W        W26733  16.423   1.699  13.204  0.2252  0.0304  0.0213
10660W        W26734   7.733   3.945  12.986  0.4088 -0.1091  0.0437
10661W        W26735  10.896  11.165  12.965  0.0012  0.0577 -0.0542
10662W        W26736   8.781   0.651   3.906 -0.3575 -0.2659 -0.0281
10663W        W26737  17.253   1.093   5.590 -0.1764 -0.3238 -0.0735
10664W        W26738  18.308   4.634   4.111 -0.0410  0.3209 -0.4303
10665W        W26739   7.978   8.896   3.740 -0.1121  0.0545 -0.0280
10666W        W26740   7.296   1.260  13.089 -0.2709 -0.1187  0.2839
10667W        W26741  12.024  11.544  13.379 -0.1655  0.0242 -0.0842
10668W        W26742  16.599   2.052  12.838  0.0085 -0.0148  0.2054
10669W        W26743   7.968  17.500  13.177  0.0331  0.2575  0.2028
10670W        W26744  10.250   6.158  15.578  0.0105  0.1390  0.2222
10671W        W26745  11.247   2.889  10.945 -0.2174  0.1405 -0.0546
10672W        W26746   7.952   1.758  13.831  0.0631  0.1636 -0.2191
10673W        W26747  11.179   2.743   4.622 -0.1156  0.0255  0.0231
10674W        W26748  11.050  14.568   0.789 -0.0803 -0.0213 -0.0803
10675W        W26749   2.595  18.483  14.725 -0.1649 -0.1439 -0.2074
10676W        W26750   4.324   4.600   1.684 -0.1165 -0.5243  0.1486
10677W        W26751   9.634   9.033  13.072 -0.1024  0.0596  0.0839
10678W        W26752   1.005  17.295   4.988 -0.0016  0.1342 -0.5060
10679W        W26753  12.580  16.884  12.123  0.4248 -0.0686 -0.0515
10680W        W26754   6.173   4.643  15.620 -0.0345  0.1710  0.3422
10681W        W26755   2.679  17.847  15.921  0.1680  0.0001 -0.0073
10682W        W26756   2.558  18.456  11.399  0.2134 -0.1181  0.3094
10683W        W26757  14.430   1.769  13.685 -0.1606 -0.2178 -0.1016
10684W        W26758  17.964   9.558  15.513  0.3102  0.1289  0.2410
10685W        W26759   7.380  16.431   2.506 -0.0840  0.0642  0.1336
10686W        W26760  15.261  11.141   3.158  0.3507 -0.0529 -0.3084
10687W        W26761  15.250   1.348  10.613 -0.1308 -0.0469  0.4783
10688W        W26762  15.114   9.581   0.676  0.2345 -0.0865 -0.0926
10689W        W26763   8.319  15.253  15.037  0.2282 -0.2747 -0.1103
10690W        W26764   1.573   4.800  14.902 -0.1670 -0.2716  0.2728
10691W        W26765   0.583  11.862   1.750 -0.2368  0.0283  0.2285
10692W        W26766   9.482   3.308   1.484  0.0577 -0.0686 -0.0768
10693W        W26767  10.911   4.916  14.586  0.0616 -0.0616 -0.0110
10694W        W26768  18.570   5.092  12.229  0.2615  0.0096  0.3899
10695W        W26769   2.537   1.479   1.769 -0.1303  0.2556 -0.1082
10696W        W26770   8.012   9.845   2.906  0.0789  0.0343  0.1465
10697W        W26771  18.190  15.033   0.784  0.4369 -0.0796 -0.2134
10698W        W26772  16.921  14.515   3.657  0.0467  0.0705 -0.1517
10699W        W26773   1.924   8.160   4.893  0.4646  0.5495 -0.3883
10700W        W26774   3.843   2.130   0.605 -0.3007  0.0055 -0.3900
10701W        W26775  18.024   6.277   3.261 -0.0788 -0.2671 -0.2315
10702W        W26776  18.197   6.961   0.600  0.0272 -0.0976  0.1889
10703W        W26777  13.076   5.028  13.493  0.0221 -0.2131 -0.0411
10704W        W26778  12.372  10.459   5.139  0.1569  0.1227  0.0492
10705W        W26779   1.159   4.829  15.204 -0.3719 -0.1193  0.2218
10706W        W26780   8.804   7.346   0.552 -0.6273  0.0576  0.1472
10707W        W26781   2.538   3.314  13.983  0.0345  0.0124  0.2209
10708W        W26782  13.413  11.847   0.213  0.1494  0.0402  0.1365
10709W        W26783  11.077  17.226   3.964  0.1779 -0.2117 -0.0103
10710W        W26784  13.120  12.879   2.176  0.0199 -0.1082 -0.1586
10711W        W26785   7.364  14.310  13.610 -0.0175 -0.1564  0.2081
10712W        W26786   2.686   6.768  12.839 -0.2750  0.0728  0.0197
10713W        W26787  13.901   5.991   0.226  0.0136  0.3148 -0.1018
10714W        W26788   3.622   7.552   4.341  0.0208 -0.2284 -0.3112
10715W        W26789   1.337   1.784   3.661  0.2516  0.0052 -0.2363
10716W        W26790  13.862   6.504   0.300  0.0768  0.1278  0.1035
10717W        W26791  13.020   2.971   0.051 -0.1239 -0.0182  0.3827
10718W        W26792  12.233   6.162   2.154  0.0584  0.0089  0.3657
10719W        W26793  15.071  16.923  12.621 -0.2107  0.0011 -0.0962
10720W        W26794   6.375   7.066   5.762 -0.1051 -0.1775 -0.1769
10721W        W26795   9.585  11.198   4.345  0.3785  0.1165  0.0442
10722W        W26796   3.521   6.713  12.053  0.0075  0.0829  0.1329
10723W        W26797   0.759  13.142  11.476 -0.1681 -0.1088 -0.1335
10724W        W26798  16.361   2.327  15.794  0.0497  0.0500 -0.1498
10725W        W26799  17.202   7.572   5.021  0.0324 -0.0678 -0.1829
10726W        W26800   2.790  17.916   4.669  0.1546 -0.3472  0.1299
10727W        W26801   3.668   3.790  12.358  0.0195 -0.4336 -0.3925
10728W        W26802  10.906   7.483  12.490 -0.2961  0.0736  0.3161
10729W        W26803   5.702  13.262   0.135  0.1041  0.0587  0.0951
10730W        W26804   4.119   3.592  12.278  0.1029 -0.1415  0.1800
10731W        W26805   8.058  10.765   2.359 -0.2839  0.0608 -0.2261
10732W        W26806  16.150   4.173   5.080  0.3427 -0.2636 -0.0354
10733W        W26807   8.425   1.557  14.135 -0.2266  0.0462  0.3114
10734W        W26808   3.181  15.045  11.027  0.1237 -0.3036  0.1805
10735W        W26809   5.605   0.718   3.712 -0.0303 -0.3511 -0.1279
10736W        W26810   7.981   0.235   5.326  0.2620  0.4740  0.1405
10737W        W26811   3.454  11.999   4.080  0.1099 -0.0004 -0.0429
10738W        W26812   3.448  18.362   3.580  0.1284 -0.1116 -0.1014
10739W        W26813  13.757   6.800  10.575  0.2726 -0.2304 -0.2920
10740W        W26814   3.763   5.446   2.215 -0.2364 -0.3136  0.2892
10741W        W26815  12.785   9.518  15.841  0.0125 -0.1659  0.1548
10742W        W26816   2.372   8.273   1.539 -0.0233 -0.2945 -0.0216
10743W        W26817   6.590  13.554  15.598  0.1417  0.0804  0.1364
10744W        W26818  16.454   3.630  12.246  0.2138  0.0447 -0.2149
10745W        W26819   5.989  15.298  11.270 -0.0873 -0.0064  0.0180
10746W        W26820  10.141   2.252  12.833  0.0372 -0.0300  0.1684
10747W        W26821  12.000  18.262  15.103 -0.2080  0.1399  0.2603
10748W        W26822  12.824   9.279  15.431  0.0159  0.2086 -0.1907
10749W        W26823   1.952  16.488   2.460  0.1693  0.1269  0.0403
10750W        W26824  10.114   6.949   2.052  0.1439  0.0448 -0.1905
10751W        W26825   6.254  16.056  15.809 -0.0932  0.0196 -0.0061
10752W        W26826  12.210   1.707   4.331 -0.5272  0.2352 -0.3062
10753W        W26827  14.523  13.395   1.859  0.0134 -0.1572 -0.1197
10754W        W26828  11.921  11.863   0.445 -0.1890  0.0562 -0.1473
10755W        W26829  14.196  14.496  15.154  0.2696  0.3399 -0.0599
10756W        W26830  12.786   3.538   0.939 -0.0434 -0.1384 -0.2725
10757W        W26831  15.543  15.836  11.384  0.0972 -0.3730 -0.0414
10758W        W26832   5.816   2.952  15.916 -0.1599  0.5053 -0.0836
10759W        W26833  12.481  16.886  14.153  0.1674 -0.4171 -0.1016
10760W        W26834   1.880   3.709   4.005  0.0336 -0.0569 -0.1106
10761W        W26835  17.688  15.012  14.349  0.2331  0.1495  0.4162
10762W        W26836  14.905   4.040   4.100 -0.0941  0.0138  0.0511
10763W        W26837   3.353   8.994  12.518  0.1101 -0.0488 -0.0260
10764W        W26838  14.837   5.649   0.354  0.0912 -0.0108 -0.0109
10765W        W26839  14.335   1.290   0.156  0.0376 -0.2206  0.2677
10766W        W26840  13.988   7.634   2.286  0.0592  0.0982  0.0293
10767W        W26841  16.571   4.581  12.437 -0.0522  0.0040  0.0902
10768W        W26842  13.630   8.276   1.793 -0.1814  0.0862  0.1034
10769W        W26843  16.566  17.470   3.060 -0.0765 -0.3980 -0.1265
10770W        W26844   0.711   5.312   5.878 -0.3103  0.2010 -0.0579
10771W        W26845  10.569  16.916   0.407  0.0785 -0.1898 -0.2516
10772W        W26846   7.563   4.378   5.254  0.0562 -0.0989 -0.2572
10773W        W26847  12.472  11.285  13.431  0.1277 -0.3358  0.0189
10774W        W26848  17.060  14.690   5.306 -0.0763  0.1530 -0.1112
10775W        W26849  11.640   5.061  14.531  0.0679 -0.0157 -0.0879
10776W        W26850  13.584   6.841   2.369  0.1015  0.0031 -0.0982
10777W        W26851   8.027   9.577  13.522  0.4173  0.1290 -0.1216
10778W        W26852  16.008   8.595   2.942  0.0640  0.1031 -0.0258
10779W        W26853  15.200  14.352  14.972  0.1834 -0.1651  0.2256
10780W        W26854  12.646  11.531   1.126 -0.1999 -0.0663  0.1741
10781W        W26855   6.480   2.374   4.881  0.1702 -0.0061 -0.0573
10782W        W26856   0.146  18.563  12.316 -0.1289  0.0721  0.3609
10783W        W26857  13.559  10.817   4.244 -0.0005 -0.0945  0.2181
10784W        W26858  12.300  14.536   1.107 -0.0588  0.0111 -0.2201
10785W        W26859   5.674  10.315   0.833  0.3744  0.0765  0.2366
10786W        W26860  17.511  12.996   5.210  0.0509 -0.1187 -0.2446
10787W        W26861   9.835   3.003   3.730  0.1265 -0.1320 -0.1527
10788W        W26862  16.587   9.886   5.268  0.2916 -0.0607  0.0331
10789W        W26863   3.613  16.105   1.112 -0.3463 -0.0669  0.0724
10790W        W26864  15.382   3.432   5.121 -0.2006 -0.0620  0.2639
10791W        W26865  14.745  11.578  15.965  0.0286  0.1236  0.5537
10792W        W26866   2.972   0.511   0.235  0.1363  0.0074  0.2216
10793W        W26867   6.428  17.057  14.168  0.0371  0.0641 -0.0574
10794W        W26868   7.802   8.635   1.188 -0.0346  0.1997 -0.1355
10795W        W26869  14.084  10.926   4.223  0.2649 -0.0870 -0.0017
10796W        W26870   8.325  12.713  11.016  0.2631 -0.1793 -0.1396
10797W        W26871  16.323  11.677   0.351  0.1166 -0.1360 -0.2887
10798W        W26872  16.385  15.755   0.199  0.2893 -0.0098 -0.2660
10799W        W26873  12.501   5.395   3.157  0.0649  0.4254  0.1959
10800W        W26874  13.965   1.649  11.918 -0.2309 -0.0761 -0.1749
10801W        W26875   7.559   0.385   4.539 -0.0729 -0.2406 -0.2709
10802W        W26876  17.292  13.788  13.790 -0.1693  0.0528 -0.1257
10803W        W26877   3.569   4.799   1.980  0.0637  0.4203 -0.2926
10804W        W26878   3.161  10.389   1.751  0.0204  0.1719 -0.2478
10805W        W26879  17.926   8.524   2.211  0.2692 -0.1134  0.1025
10806W        W26880   7.167  16.815   3.460  0.2720 -0.0953  0.4594
10807W        W26881  15.757   3.085   0.255 -0.1540 -0.1639 -0.1180
10808W        W26882   8.764  11.561  13.328 -0.0998  0.0157 -0.0516
10809W        W26883   7.142  12.658  12.616  0.0925 -0.0332  0.0852
10810W        W26884   2.178   0.157  12.024 -0.2552  0.0063 -0.1201
10811W        W26885   4.855  13.265   0.252 -0.0888 -0.1372  0.1248
10812W        W26886  11.295   6.616  12.627 -0.0775  0.0675  0.1665
10813W        W26887  17.567  17.144   4.713 -0.1077  0.1045  0.0703
10814W        W26888   8.662   5.356  14.888 -0.3020  0.1803 -0.1569
10815W        W26889  10.278   4.066   4.486  0.1066 -0.2000 -0.1015
10816W        W26890   2.527  13.851   3.471 -0.2559  0.1320 -0.3303
10817W        W26891   3.516  13.931   0.795 -0.0918  0.2950 -0.3868
10818W        W26892   5.591   6.860   4.516  0.1860 -0.0667  0.1699
10819W        W26893   5.308   1.132   2.148 -0.1062  0.0174  0.0583
10820W        W26894   5.410   6.931  11.877  0.0525 -0.0216 -0.2318
10821W        W26895   6.974   7.253  13.814 -0.2231 -0.0506 -0.1444
10822W        W26896   7.859  10.521  12.299 -0.0782  0.2200  0.1411
10823W        W26897   4.635  16.157   3.735 -0.0190  0.0562 -0.1050
10824W        W26898  16.572   9.576   3.987 -0.1131 -0.2792 -0.1458
10825W        W26899   9.625  10.199   6.002 -0.1051 -0.0972  0.0788
10826W        W26900   7.626   5.759  14.458 -0.1810  0.0021  0.1256
10827W        W26901  12.842  12.960   4.586 -0.0448 -0.0074 -0.1220
10828W        W26902   7.699   7.694  12.467  0.0600 -0.0696  0.1143
10829W        W26903   6.435   5.771   3.339  0.1863  0.0411 -0.0233
10830W        W26904  11.942  15.932  14.397  0.1069 -0.1592  0.0393
10831W        W26905   9.902   0.991   2.478  0.0575 -0.1081 -0.0779
10832W        W26906   1.139  11.128  12.998 -0.1182 -0.1511 -0.3003
10833W        W26907   8.240   5.128   1.971 -0.0441 -0.0844 -0.2232
10834W        W26908   1.336  13.147   4.220  0.3335 -0.0021 -0.1654
10835W        W26909   4.926   2.399   0.180  0.1284  0.1170  0.0480
10836W        W26910   4.893   9.782  15.145  0.0896  0.0311 -0.1064
10837W        W26911   1.331  18.248   4.797 -0.2664 -0.1296 -0.0063
10838W        W26912   1.364  13.373  14.320 -0.3266  0.0528  0.0408
10839W        W26913  11.032  11.033   1.457  0.3851 -0.3951 -0.1270
10840W        W26914   6.126  17.883  13.629 -0.5056 -0.0042  0.0245
10841W        W26915  17.189  10.779  13.309 -0.1932 -0.0150 -0.1315
10842W        W26916   5.215   5.610  15.410 -0.0932  0.0819  0.0233
10843W        W26917   9.458   9.388  11.178  0.0153 -0.2198 -0.1130
10844W        W26918   1.669   5.526   5.530  0.3925 -0.0272 -0.0564
10845W        W26919   6.035  13.623  12.601 -0.0495  0.2559  0.0318
10846W        W26920  16.899  15.953   4.249  0.0496 -0.1481  0.1278
10847W        W26921  11.178   9.936  15.255  0.0673  0.1246 -0.1325
10848W        W26922  18.263   0.876  12.173  0.0135 -0.2817  0.1768
10849W        W26923  10.329  17.448   1.542  0.0135  0.3180  0.0985
10850W        W26924   3.388  17.567   5.340 -0.2559 -0.1059 -0.0462
10851W        W26925   9.849   7.436   5.527 -0.0011 -0.0745 -0.2219
10852W        W26926   5.321   8.163   2.413 -0.0997 -0.2584 -0.3071
10853W        W26927  10.494   3.967  13.453  0.2841 -0.1662 -0.0257
10854W        W26928  17.556  14.696   5.333 -0.0091 -0.0306 -0.0895
10855W        W26929   6.587   4.951  15.380  0.1095  0.1655 -0.1725
10856W        W26930  11.088   4.697   4.803  0.0847 -0.3448 -0.2997
10857W        W26931   1.062   4.977  11.917  0.0832 -0.2501  0.0136
10858W        W26932   6.243   9.918   4.971 -0.3266 -0.2026 -0.1306
10859W        W26933   5.904  16.160  14.917  0.1598  0.1058 -0.1184
10860W        W26934  18.403   9.287   5.329 -0.0832 -0.2662  0.3240
10861W        W26935  17.006  18.081   1.080  0.4703 -0.0975  0.0952
10862W        W26936   5.822  15.543   2.068  0.1861 -0.2012 -0.0536
10863W        W26937  11.292   8.441   4.503 -0.2628  0.1975 -0.1485
10864W        W26938   3.490   9.165   4.676  0.0772 -0.1071  0.0340
10865W        W26939  16.448   2.879  15.498 -0.1596 -0.0386 -0.0302
10866W        W26940  13.625  18.088  15.123 -0.1997 -0.1272  0.0184
10867W        W26941  10.128   5.795   1.209  0.2904 -0.1418 -0.3083
10868W        W26942   6.895  11.205   2.698  0.4434  0.2888 -0.0251
10869W        W26943   4.371   1.073   4.668  0.2915  0.2305 -0.0394
10870W        W26944  17.570  13.332   5.634 -0.5155  0.0428 -0.0557
10871W        W26945  16.407   2.867   4.368  0.1233  0.2371  0.1382
10872W        W26946  10.508  17.956   1.856  0.0336 -0.1451 -0.0151
10873W        W26947  14.632   0.338   0.439 -0.2626 -0.2168  0.1847
10874W        W26948   7.055   6.035  12.380  0.1755 -0.2996 -0.2307
10875W        W26949   8.359  14.208   4.598 -0.1192 -0.1827 -0.1992
10876W        W26950   0.707  17.261   2.376 -0.3184 -0.1320 -0.0539
10877W        W26951   0.966   9.238   0.235 -0.2025 -0.1194  0.1259
10878W        W26952   7.813   3.715   0.332 -0.0428 -0.0448 -0.1931
10879W        W26953  12.405   2.719  13.861 -0.0136 -0.1422 -0.1392
10880W        W26954  10.273  12.539  11.979  0.0127  0.1944 -0.3019
10881W        W26955   0.398   0.494  12.424  0.1307 -0.0267 -0.1052
10882W        W26956   7.426  17.900   0.853 -0.0715  0.1645 -0.0024
10883W        W26957  13.654   3.698  12.982 -0.1830  0.0577  0.0732
10884W        W26958   7.549   8.236   1.234  0.0368  0.1567  0.0700
10885W        W26959  10.422   7.826   2.288  0.3772  0.2152  0.0330
10886W        W26960   6.325  12.813  15.628  0.3222  0.3686 -0.2681
10887W        W26961  16.213   4.093  13.531 -0.0269  0.1716 -0.3379
10888W        W26962  16.404   0.582   1.538 -0.0755  0.2653  0.1876
10889W        W26963  14.971  18.003  10.933 -0.1701 -0.1825  0.0344
10890W        W26964  16.126  12.768  14.434 -0.0351 -0.1944 -0.4545
10891W        W26965  17.121   2.001   3.256  0.1468 -0.2562 -0.1651
10892W        W26966   4.268   7.512   5.258  0.2412 -0.1343  0.2825
10893W        W26967   3.941  18.092   1.719 -0.0450 -0.1062  0.0808
10894W        W26968  13.777  14.158  13.168  0.3130 -0.0117 -0.1373
10895W        W26969   5.792  11.090  15.587  0.2224  0.2208  0.0465
10896W        W26970  17.806  13.353  13.248 -0.1370 -0.0688 -0.1556
10897W        W26971  18.204  18.271   0.976  0.0887 -0.1084  0.1354
10898W        W26972  11.555   8.769  14.616 -0.2029 -0.0751  0.1323
10899W        W26973   3.654   5.834  15.990  0.0317 -0.0727 -0.2077
10900W        W26974   1.151   9.593  16.004  0.2984  0.2243  0.1854
10901W        W26975  17.935   8.961   0.309  0.2181  0.0746  0.4196
10902W        W26976  14.635   3.364   4.405  0.1319 -0.2461 -0.1432
10903W        W26977   2.539   4.390   3.650  0.1731 -0.1459 -0.0088
10904W        W26978   4.644  16.136   4.891 -0.1560 -0.0172  0.0046
10905W        W26979   0.518   3.240   3.384 -0.0171 -0.0169 -0.0747
10906W        W26980  10.317   6.487  13.465 -0.1635  0.0265  0.0462
10907W        W26981   7.885  14.456  12.425  0.2519  0.0025  0.1664
10908W        W26982   9.278  16.146  15.200  0.0659  0.0267 -0.2714
10909W        W26983   6.555  15.728  15.511  0.0511 -0.0359  0.4411
10910W        W26984   6.681   6.339  14.385 -0.0232 -0.0527 -0.1260
10911W        W26985   1.539  17.801   2.355 -0.4246  0.0341 -0.0828
10912W        W26986   4.903   1.400  13.569 -0.2342 -0.1407  0.1307
10913W        W26987  10.099  14.369  15.187  0.0173  0.3323 -0.1092
10914W        W26988  12.998   5.388  12.348 -0.0996  0.1135 -0.1523
10915W        W26989   4.557   3.791   2.598 -0.0049  0.0276  0.2656
10916W        W26990  13.171  13.602  10.227 -0.0285 -0.1506 -0.2598
10917W        W26991   0.951  15.086  12.683  0.1840  0.4147 -0.0730
10918W        W26992   3.772  10.226   4.852 -0.1578 -0.2369 -0.3241
10919W        W26993   9.918  13.102  13.618 -0.0293  0.0639 -0.0889
10920W        W26994  11.392  13.085   2.159 -0.0292  0.1523 -0.1731
10921W        W26995  10.869  12.672   0.362  0.0401 -0.0769 -0.0272
10922W        W26996  14.182   9.402  12.973  0.1248 -0.0895  0.0045
10923W        W26997   2.778   2.342  10.127 -0.1566  0.0732  0.2162
10924W        W26998   1.282   4.773  15.930 -0.0147  0.1035 -0.1484
10925W        W26999   1.450  13.212   0.081 -0.2675  0.4183 -0.1957
10926W        W27000  16.739   7.986  13.571  0.2546 -0.1179 -0.3433
10927W        W27001  13.081  18.293  11.644 -0.0075  0.3135  0.0459
10928W        W27002   0.407   2.457   3.279 -0.1621 -0.1206  0.1733
10929W        W27003   7.232   3.749   2.381 -0.1712 -0.0203 -0.1745
10930W        W27004   3.080  16.604  14.727  0.0355 -0.0004  0.1240
10931W        W27005  14.310   5.981  12.176 -0.0007  0.2265 -0.0886
10932W        W27006   1.327  13.913  10.612  0.1374 -0.2719 -0.0560
10933W        W27007  12.019  10.632   4.839  0.4348 -0.2333 -0.0624
10934W        W27008  11.961   4.489   1.697 -0.1378 -0.0278 -0.1444
10935W        W27009  13.704   7.650   0.893  0.0063 -0.0238 -0.1233
10936W        W27010   7.207  18.363  12.577  0.0099  0.2760 -0.1116
10937W        W27011   7.577   6.651  15.594  0.2233  0.0943  0.1353
10938W        W27012   8.462   2.898   1.693 -0.0382 -0.2595 -0.0321
10939W        W27013  18.038   4.122  12.465  0.1465  0.1768 -0.0412
10940W        W27014   3.555  15.677   1.337  0.1089 -0.2460 -0.1749
10941W        W27015   6.428  13.309   3.953  0.1749  0.0356 -0.1708
10942W        W27016  13.487   1.675   0.557 -0.0398 -0.0589 -0.2518
10943W        W27017  12.721   7.329  14.771  0.4416  0.4596 -0.0407
10944W        W27018   2.870   0.791  15.354 -0.1869  0.2522 -0.3161
10945W        W27019  16.553   3.638   0.641 -0.1359  0.5771 -0.2664
10946W        W27020  11.897  17.563   3.589  0.0771 -0.0595 -0.4633
10947W        W27021  11.906   6.345  13.923  0.3077 -0.2354  0.0756
10948W        W27022   2.760  11.913   2.630 -0.1093 -0.1102  0.3029
10949W        W27023  15.414   9.460  14.265  0.0973 -0.0329 -0.0652
10950W        W27024  11.821   3.528   0.829  0.0782  0.2085 -0.1822
10951W        W27025   0.523  11.954  13.272 -0.3030 -0.3636 -0.1896
10952W        W27026   6.426   2.649  11.516  0.2590 -0.2128 -0.2074
10953W        W27027   1.503   0.803   1.325  0.3638  0.0528 -0.0052
10954W        W27028   7.988  12.699   2.250  0.0024  0.3144  0.0394
10955W        W27029   2.431  11.922  12.696  0.2832 -0.0387  0.2518
10956W        W27030   8.086   9.937  12.142 -0.1187  0.0953  0.0624
10957W        W27031   3.694   8.701   2.313  0.0600  0.1213  0.3854
10958W        W27032  18.311   9.888  14.773 -0.0953 -0.1117  0.1772
10959W        W27033  17.811   1.343   9.373 -0.1247 -0.3971  0.5673
10960W        W27034   4.974  16.881   4.085  0.0269 -0.3892 -0.2957
10961W        W27035   6.782   2.735  10.637 -0.2204  0.2841  0.1051
10962W        W27036  12.444   8.900  11.483 -0.2471 -0.0528 -0.0484
10963W        W27037   6.853   1.314  15.768  0.0921 -0.0276  0.0584
10964W        W27038  15.643   8.988  13.970 -0.4297 -0.2339 -0.2110
10965W        W27039   3.953   0.407   1.902  0.2794 -0.1586  0.0466
10966W        W27040  11.188  17.282   5.632  0.0696  0.1515  0.2377
10967W        W27041   7.982  17.893  13.562 -0.1338  0.1861 -0.1448
10968W        W27042  10.378  13.697   2.720  0.2008 -0.0808 -0.0782
10969W        W27043  15.955  16.146  12.681 -0.1833  0.1606  0.2495
10970W        W27044  15.404  11.057   2.562 -0.1741 -0.0028 -0.1099
10971W        W27045   8.514  15.710   5.775  0.0738  0.0967  0.3017
10972W        W27046  13.956  11.864   5.264 -0.0402 -0.1632  0.0048
10973W        W27047   1.695   8.158  13.218  0.1812 -0.2487  0.1015
10974W        W27048  10.845  13.529  12.692 -0.1248  0.4445 -0.0775
10975W        W27049  18.122   7.842   1.432 -0.0641  0.1404  0.0416
10976W        W27050   1.589  10.501   4.217  0.1878  0.2593  0.0976
10977W        W27051   4.562  14.991  15.416  0.2360  0.1070  0.2380
10978W        W27052  11.007   3.055  14.356  0.0050 -0.2614 -0.3595
10979W        W27053   3.431  16.290  14.770  0.1770 -0.4216  0.1667
10980W        W27054  11.230   9.438   0.674 -0.2840  0.2026  0.1114
10981W        W27055  12.049  17.470  10.032 -0.2093  0.1395  0.0261
10982W        W27056   9.429  17.196   3.472 -0.0556  0.2974 -0.1312
10983W        W27057   3.020  11.430  13.469 -0.1814 -0.0662  0.1875
10984W        W27058   5.929  11.420  12.939 -0.1613  0.1811  0.2094
10985W        W27059  14.500   1.313  14.911 -0.3580  0.1265 -0.3243
10986W        W27060   3.202  13.110   5.588 -0.2971 -0.0114  0.2104
10987W        W27061  17.871   4.771  15.557 -0.1041  0.1922 -0.1847
10988W        W27062   3.548   3.425  13.427 -0.1955  0.0061  0.3615
10989W        W27063   4.193   7.646   2.174  0.2848  0.3517 -0.1799
10990W        W27064   4.475   5.146   0.773 -0.2004  0.0635 -0.1071
10991W        W27065  13.121   0.557   3.629 -0.1459  0.0820 -0.1730
10992W        W27066  13.513   6.678   0.769  0.0734  0.0099  0.1101
10993W        W27067  13.245  12.104   1.866  0.1717 -0.1072 -0.1311
10994W        W27068   1.381  15.785  11.422  0.0221 -0.0231  0.1216
10995W        W27069  14.424   2.343   2.382 -0.0092 -0.0446  0.0356
10996W        W27070  13.912  12.957   5.398 -0.0436  0.0318  0.2434
10997W        W27071   0.351   8.419   1.976  0.0195  0.1832  0.4007
10998W        W27072  14.704  15.349   4.996  0.1757 -0.0595  0.0441
10999W        W27073   9.704  15.978   4.193 -0.0032 -0.3444 -0.2005
11000W        W27074   2.962   7.336  12.650 -0.1258 -0.0732 -0.0256
11001W        W27075  14.240  10.011   3.247 -0.1141  0.0862 -0.1730
11002W        W27076  15.711   4.567  14.113 -0.1412 -0.2925 -0.1865
11003W        W27077  10.732  18.068  13.731  0.1712 -0.0398  0.1765
11004W        W27078  15.025  17.796   3.805 -0.0275  0.0886 -0.0473
11005W        W27079   4.893   0.004   3.728  0.0785  0.1865 -0.0253
11006W        W27080  16.405   1.853   0.104  0.2775  0.0873 -0.0199
11007W        W27081   9.384  17.436  11.926 -0.0306 -0.0745 -0.1308
11008W        W27082   0.015   0.497  11.721  0.1610 -0.1658  0.2907
11009W        W27083   5.255   5.477  13.791  0.3533 -0.1525 -0.0992
11010W        W27084  11.619  17.912   2.122 -0.1913 -0.2034 -0.0691
11011W        W27085   4.458  11.361  13.722 -0.0369  0.1439 -0.0371
11012W        W27086   1.021  17.453  11.150  0.0593  0.2209  0.2496
11013W        W27087   0.644  12.392  15.429  0.2874 -0.0658 -0.5411
11014W        W27088   8.929   5.058  12.281 -0.0247  0.0255  0.3504
11015W        W27089   4.254   9.342  14.417  0.1763  0.3318  0.1874
11016W        W27090  17.262  17.723   5.986 -0.0717 -0.1227 -0.0581
11017W        W27091   2.718   8.053   5.718  0.0346  0.1656 -0.2191
11018W        W27092  17.598   7.730   2.337 -0.2074  0.3372  0.1633
11019W        W27093   3.565  15.151   3.714 -0.0826 -0.3012 -0.1517
11020W        W27094   5.764  13.421  12.076  0.0328  0.1425  0.1543
11021W        W27095   4.324   8.723   4.211 -0.0947  0.0854  0.1336
11022W        W27096  14.646   2.462  15.113  0.2064  0.3793  0.0848
11023W        W27097  10.168  13.148  13.175 -0.2761  0.3426 -0.2912
11024W        W27098  17.857   9.438  12.724 -0.2759 -0.1827 -0.1025
11025W        W27099  16.730  10.426   4.494 -0.1088  0.0730  0.1443
11026W        W27100   8.299   6.839   3.763 -0.2057 -0.0935 -0.0440
11027W        W27101  14.201  13.608   2.155 -0.2169 -0.0724  0.1363
11028W        W27102  13.273  14.097   5.176  0.1235  0.1975 -0.0460
11029W        W27103   1.116  11.352  12.459  0.1482 -0.1169 -0.1690
11030W        W27104   4.864  15.867  13.741  0.4789 -0.2191 -0.1852
11031W        W27105  11.416   4.169  11.746 -0.0969  0.3329 -0.0160
11032W        W27106   2.175   9.396   4.790  0.0261 -0.0093  0.1082
11033W        W27107  15.079   4.508   1.158  0.0178  0.0585  0.2125
11034W        W27108  18.473   7.038  15.808  0.1692  0.0313 -0.0829
11035W        W27109  12.751  11.681   0.673  0.0077  0.2792  0.0299
11036W        W27110   6.347   6.775   4.219 -0.4384  0.1170  0.1550
11037W        W27111   6.969   3.936  13.765 -0.0681 -0.1285  0.1633
11038W        W27112  17.145  16.482   4.201 -0.3964  0.1686  0.0420
11039W        W27113   8.216  17.750   3.699  0.0363  0.0127 -0.2454
11040W        W27114   5.343  11.830   5.315 -0.4039  0.3478 -0.4582
11041W        W27115  11.415  16.054  14.240  0.1751  0.1147  0.0308
11042W        W27116   3.344   1.689   4.722 -0.3449  0.2543 -0.2485
11043W        W27117  12.222   3.550  11.675  0.1505 -0.0327 -0.1664
11044W        W27118   9.559   2.312   0.272  0.2657  0.1244 -0.1180
11045W        W27119  13.672  17.867  13.134 -0.2651  0.1344 -0.1545
11046W        W27120   4.226   5.650   0.816  0.3661 -0.2286  0.1220
11047W        W27121  14.328   1.699   5.619  0.0868 -0.4144 -0.0847
11048W        W27122   8.017   4.506  13.196  0.1750  0.0688 -0.1163
11049W        W27123   3.682  15.684  13.600  0.3294  0.2317 -0.2454
11050W        W27124  15.365  14.010  13.341 -0.0339  0.2685 -0.0870
11051W        W27125  12.237  10.647   3.907 -0.1740 -0.2658 -0.0262
11052W        W27126  13.042   9.680   4.704 -0.1532  0.1319 -0.1657
11053W        W27127  18.314  18.023  11.741 -0.0546  0.0548 -0.3426
11054W        W27128  10.542  18.374   4.393 -0.0598 -0.0563  0.0828
11055W        W27129   9.610  14.266   1.280  0.0522 -0.0774 -0.4552
11056W        W27130   2.015   0.214   2.112  0.1598 -0.0006  0.0240
11057W        W27131   1.351   3.696  13.344 -0.1022 -0.0886 -0.0261
11058W        W27132  14.116  14.652  14.547  0.1247  0.2981 -0.0285
11059W        W27133  12.821  13.603  15.961 -0.3324  0.1592 -0.1669
11060W        W27134  16.449   4.988   4.485  0.1383  0.0789 -0.2926
11061W        W27135  13.032  18.129   3.195  0.0243 -0.1153 -0.0959
11062W        W27136   6.478  17.206   3.041  0.0096  0.1437 -0.3772
11063W        W27137  12.826   7.054   2.358  0.0429 -0.0730 -0.2056
11064W        W27138   8.432  13.310   4.838 -0.1588 -0.2221 -0.1619
11065W        W27139   7.207  16.940   2.216 -0.2048  0.2625 -0.2259
11066W        W27140  16.791  17.729   4.311  0.0984  0.0574 -0.1750
11067W        W27141  18.223  12.622   2.173  0.1162 -0.1821  0.2319
11068W        W27142   6.348   3.190   2.435 -0.1516  0.0336 -0.2572
11069W        W27143   9.240   1.511   3.576 -0.2561  0.1355  0.1554
11070W        W27144  13.823   6.276   0.733 -0.0149  0.3524 -0.0242
11071W        W27145   6.179  15.038   3.607  0.0364 -0.0471  0.0496
11072W        W27146  15.513  12.806   1.229  0.3537 -0.2005  0.0220
11073W        W27147  14.393  11.711  11.583  0.2124  0.0531 -0.3428
11074W        W27148   2.637   4.338   2.516  0.0261  0.0181  0.0274
11075W        W27149   8.118   9.589  12.595  0.1986 -0.1296  0.1558
11076W        W27150   1.202   9.223   1.858  0.0065 -0.0314  0.0065
11077W        W27151  13.163  12.014  12.794  0.0089  0.1764  0.0547
11078W        W27152  16.804   5.880  13.360 -0.2745 -0.4403  0.1412
11079W        W27153  10.813  13.800   5.816 -0.1006 -0.2944  0.0856
11080W        W27154  10.730  11.282  10.419 -0.0852 -0.0025 -0.2565
11081W        W27155   6.418  13.115  13.348 -0.0893  0.3870  0.4039
11082W        W27156  15.218   5.242   0.386 -0.2088  0.0005  0.1645
11083W        W27157   9.330  10.783   1.830  0.1701 -0.0555  0.0031
11084W        W27158  10.959   4.371   5.579 -0.0635 -0.1105 -0.1728
11085W        W27159   6.390   5.339   4.953 -0.1872  0.1879  0.2748
11086W        W27160   5.224  12.935  14.554  0.1172 -0.0247 -0.3466
11087W        W27161  15.873  15.471  14.046  0.1915 -0.2874  0.0387
11088W        W27162   9.199  14.742  14.278  0.1313 -0.3546 -0.1145
11089W        W27163   5.412   0.793  15.865 -0.1859 -0.1232 -0.3156
11090W        W27164  17.133   8.751   0.226 -0.0666 -0.0109  0.2196
11091W        W27165  16.661   5.464   2.575 -0.0583 -0.3122 -0.1363
11092W        W27166  10.119  14.007   4.281 -0.2702 -0.1482  0.0705
11093W        W27167  17.205  17.844  15.652  0.0484 -0.1499  0.1772
11094W        W27168  10.222  16.181   4.500  0.4555 -0.2435  0.0314
11095W        W27169  12.272  14.103   2.549 -0.2085  0.2753  0.0100
11096W        W27170   3.406   6.238   3.678 -0.1490  0.1970  0.2256
11097W        W27171   8.421  12.683   0.049 -0.2897  0.0979 -0.1737
11098W        W27172  14.738   2.941   2.917 -0.0571 -0.1480  0.1514
11099W        W27173   4.307  15.985  12.335 -0.2360  0.2497 -0.3257
11100W        W27174   1.084  17.499   1.532  0.0558 -0.0275  0.0213
11101W        W27175   2.559   9.406  12.257 -0.1637  0.0872  0.1906
11102W        W27176   2.181  15.012   2.241 -0.2927 -0.4265  0.0188
11103W        W27177   7.854   1.018   2.357  0.0239 -0.0396  0.0499
11104W        W27178  16.089   0.499  11.043 -0.3017  0.0611 -0.1834
11105W        W27179   7.994   2.244   5.867 -0.1753 -0.1333 -0.2316
11106W        W27180  15.692   6.620   2.840  0.2591 -0.0869 -0.1784
11107W        W27181   8.224  16.820  11.044  0.0850 -0.1748 -0.1436
11108W        W27182  17.775  11.304   2.407 -0.1110  0.0876  0.0619
11109W        W27183  15.368   7.943  13.392  0.1054  0.0253 -0.0197
11110W        W27184  17.168  14.726  11.989  0.0700  0.2227 -0.0587
11111W        W27185  13.516  17.393  13.963 -0.0603  0.2159 -0.0773
11112W        W27186   3.421  16.259  12.975  0.1383  0.0116  0.0480
11113W        W27187   4.107   4.743   0.027  0.1385  0.0174  0.0669
11114W        W27188   9.216   8.030  11.867 -0.1442 -0.0033  0.1122
11115W        W27189   4.111  14.377  12.956  0.0202  0.1268  0.1564
11116W        W27190  16.227   5.828   2.269  0.1482  0.0453  0.0962
11117W        W27191   5.717   6.210  11.270  0.0905  0.1172 -0.1952
11118W        W27192   7.297  17.954  11.343  0.1722  0.1600 -0.4029
11119W        W27193  15.417   7.344   4.385 -0.3448 -0.3022 -0.2176
11120W        W27194   6.394   7.559   0.295 -0.2235 -0.0842 -0.1477
11121W        W27195  11.453   9.517  12.078 -0.0305 -0.1800  0.1990
11122W        W27196   5.159  16.612  13.733  0.1250  0.0109 -0.1664
11123W        W27197   3.026   4.323  13.379 -0.0308  0.2928 -0.0294
11124W        W27198   3.937   8.947   3.259  0.4226 -0.2173  0.2725
11125W        W27199   3.664   9.624   2.767 -0.2065  0.0057 -0.0323
11126W        W27200  11.309  17.296  12.717  0.0271 -0.2708 -0.0877
11127W        W27201  10.239  11.906   4.608  0.2196  0.1218 -0.2552
11128W        W27202   5.254  17.747  14.811 -0.0528 -0.0525  0.1733
11129W        W27203  15.159   5.086  11.419  0.1206 -0.1133 -0.0730
11130W        W27204   5.523   1.512   0.506  0.0118 -0.0836 -0.2631
11131W        W27205  16.421  13.540  14.696 -0.2306  0.0617  0.1425
11132W        W27206  14.466  18.132  11.301 -0.1228 -0.1341  0.0249
11133W        W27207  12.433   1.441   0.727  0.1032  0.0334 -0.2227
11134W        W27208  10.554  17.824   0.049 -0.0709  0.1522  0.1087
11135W        W27209   1.925   7.336   5.023 -0.0736  0.1023  0.0835
11136W        W27210  18.396   1.493  15.641  0.2298 -0.1555 -0.4199
11137W        W27211  17.281  10.184   3.454  0.0518 -0.1263  0.0694
11138W        W27212  10.737   6.990  12.244 -0.3798  0.0350  0.1537
11139W        W27213   6.566   9.282  13.027  0.2711 -0.1744  0.1293
11140W        W27214   7.680   1.279  10.404 -0.2889  0.2119  0.2603
11141W        W27215   8.320  10.802   2.768  0.0251  0.2760 -0.1199
11142W        W27216  14.106   9.492   1.186 -0.1448  0.0984 -0.2447
11143W        W27217   8.728   7.727  12.028 -0.1692  0.0775 -0.1440
11144W        W27218   9.341   0.464   3.121  0.0413  0.0305  0.1646
11145W        W27219  17.665   5.247  14.790  0.1509  0.1492 -0.0651
11146W        W27220   9.066   6.084  13.721 -0.2736  0.0786  0.0544
11147W        W27221  15.032   0.559  14.576 -0.3359 -0.2622  0.1824
11148W        W27222   7.237   9.010   2.513  0.3854 -0.0497  0.0979
11149W        W27223  17.639   8.167   6.160  0.2129 -0.1577  0.0682
11150W        W27224   7.233  15.569  14.399  0.1344  0.2045  0.1305
11151W        W27225   2.727   8.180  15.014  0.1170 -0.2950  0.0974
11152W        W27226  16.147  17.209  10.510  0.3458 -0.2383  0.2491
11153W        W27227   1.640   3.610   3.174 -0.2514  0.1459  0.2143
11154W        W27228   8.247   0.085   5.707 -0.4028  0.0423 -0.0076
11155W        W27229   6.944   8.773   3.891  0.0227 -0.3027 -0.0579
11156W        W27230   0.708   4.253   1.749 -0.3757  0.3327  0.1116
11157W        W27231   2.390  16.172  12.043 -0.1681  0.2733  0.2250
11158W        W27232  18.167  15.180  15.918  0.0259  0.4386 -0.0401
11159W        W27233   6.088   6.570   2.685 -0.1110  0.0456  0.1650
11160W        W27234  12.795   4.764  11.849 -0.1528 -0.2428  0.2794
11161W        W27235  12.649   1.611  12.999 -0.1286  0.0185  0.0237
11162W        W27236   2.662   7.249   0.585 -0.0096 -0.0479 -0.2133
11163W        W27237  16.757  14.400  12.104 -0.4473  0.1374  0.1726
11164W        W27238   0.858  13.178   1.451 -0.5099  0.1043 -0.0017
11165W        W27239   6.667   4.972   2.896  0.1553 -0.3109 -0.3579
11166W        W27240   7.599   2.229  12.319 -0.0363  0.0733 -0.0155
11167W        W27241   1.628  11.129  14.972  0.2803  0.3766  0.1734
11168W        W27242   6.377  16.684   0.568  0.0217 -0.0648 -0.0611
11169W        W27243   0.730   9.659   0.468  0.0984 -0.0430 -0.1031
11170W        W27244  14.688  15.765   0.219 -0.1912  0.1023 -0.3599
11171W        W27245   3.099  12.184  13.463  0.1104  0.0654 -0.0263
11172W        W27246  10.892  15.974   2.169 -0.0824  0.1057 -0.0578
11173W        W27247   8.974  17.023   0.413  0.1966  0.2036  0.2723
11174W        W27248   2.770  12.360   1.363  0.0476 -0.0966  0.2810
11175W        W27249   6.870  15.293  12.935 -0.0919  0.2042 -0.0027
11176W        W27250  14.753   0.149  10.845  0.0493  0.0241  0.0509
11177W        W27251  18.521  11.078   1.663 -0.1079  0.1280 -0.4661
11178W        W27252   2.863   4.360  14.942  0.0111  0.0029 -0.0552
11179W        W27253  10.912  13.881  13.915  0.1853  0.1727 -0.0437
11180W        W27254   7.141  18.352   1.023  0.0501 -0.1570 -0.1294
11181W        W27255   2.935  12.032  12.626 -0.0439  0.2109 -0.1151
11182W        W27256   8.531  11.374   1.717  0.0927  0.1522 -0.0111
11183W        W27257   2.057  12.575   5.621 -0.0587  0.1541  0.2638
11184W        W27258  11.163   8.282  11.341 -0.3427  0.0004 -0.0118
11185W        W27259   6.186   1.166   4.196  0.0413  0.0351  0.0557
11186W        W27260  15.276   2.096  12.862  0.1236 -0.0072  0.3533
11187W        W27261   8.823  18.121   4.681  0.3479  0.0489  0.3225
11188W        W27262  12.130   9.503   0.668  0.1205 -0.1836 -0.0488
11189W        W27263  15.275  11.648  11.419 -0.0534 -0.1500 -0.2209
11190W        W27264  16.797   4.725   3.655 -0.2017 -0.1067  0.3663
11191W        W27265  11.467   7.687  11.768 -0.0647  0.0137  0.0467
11192W        W27266   8.488   5.842   3.377  0.0311 -0.2526 -0.3733
11193W        W27267   2.919   2.849   9.960  0.0368 -0.0757  0.2532
11194W        W27268   2.187   5.378   1.346  0.1745 -0.2216  0.0537
11195W        W27269   0.473   4.591   3.502 -0.2541  0.0693 -0.0829
11196W        W27270  17.485   9.514  15.921 -0.0149 -0.0907 -0.2148
11197W        W27271  16.847   0.979   4.751  0.1115 -0.2407 -0.1071
11198W        W27272   8.531  16.000   4.566 -0.0130  0.1021 -0.3734
11199W        W27273   6.297  17.795  12.393 -0.1747  0.2122  0.0139
11200W        W27274  12.794   5.390   3.692  0.3458 -0.0162  0.0320
11201W        W27275  13.349   0.875  14.328 -0.1182  0.0801 -0.1792
11202W        W27276   4.692  12.158   4.143  0.0249 -0.0535  0.0179
11203W        W27277  17.876   3.901  13.719  0.0246 -0.0543  0.1651
11204W        W27278  13.620   6.643  10.128  0.2027 -0.1781 -0.1960
11205W        W27279   7.723   9.539  12.259 -0.4048 -0.4230  0.0037
11206W        W27280  12.457   4.402  10.978  0.1313  0.0154  0.0667
11207W        W27281  10.304   2.909   3.925  0.1097 -0.1767  0.1783
11208W        W27282  15.415  11.241   1.378  0.1730 -0.2432  0.0609
11209W        W27283   6.185  15.578   3.943 -0.1636  0.4631  0.0823
11210W        W27284   8.673  10.259   1.081  0.0211 -0.2384 -0.0668
11211W        W27285   0.785   8.576  12.611 -0.2105 -0.0544  0.2302
11212W        W27286  16.866   9.352   4.296  0.0965  0.0162  0.1019
11213W        W27287  15.942  17.689   4.496  0.3792  0.2074 -0.0002
11214W        W27288   7.221  18.474  11.298 -0.4393  0.1066 -0.0812
11215W        W27289   5.407   3.302   1.679 -0.3198  0.0257  0.1844
11216W        W27290   5.541  15.225   0.791 -0.1404 -0.0977  0.3160
11217W        W27291   1.054  16.038  13.812 -0.1439 -0.0060 -0.3146
11218W        W27292   6.440   7.191  13.516 -0.2158  0.1426 -0.2200
11219W        W27293  11.590  15.208   2.010  0.1038  0.0963  0.1793
11220W        W27294   7.669  15.540  11.955 -0.3582  0.0946 -0.1057
11221W        W27295   7.380  16.337  10.486 -0.2558 -0.0037  0.0288
11222W        W27296   3.972   5.303   4.926  0.1282 -0.3033  0.0785
11223W        W27297   0.422  16.619  15.565  0.0620 -0.4014  0.1290
11224W        W27298  12.072  10.060   2.523 -0.2490  0.2534  0.1804
11225W        W27299   0.265   7.391   1.088  0.0563 -0.0783  0.0272
11226W        W27300   2.027  15.238  15.795 -0.0673 -0.0462 -0.0426
11227W        W27301  10.345   7.334  11.026  0.0260  0.0708  0.0198
11228W        W27302   1.615   9.693  15.975 -0.0331 -0.0686 -0.0428
11229W        W27303  13.096   3.322  12.341 -0.0775 -0.1435 -0.2158
11230W        W27304   4.814   7.569   1.199  0.0461 -0.2994 -0.1394
11231W        W27305  16.938   2.164   1.876  0.0023 -0.0919 -0.0299
11232W        W27306   5.220   0.892   4.774  0.0213  0.0442 -0.0810
11233W        W27307  18.242   7.481  15.493 -0.0901 -0.0099  0.0381
11234W        W27308   5.360   6.700  12.971 -0.0457  0.3969 -0.1642
11235W        W27309   8.981   5.024   2.352 -0.2180 -0.0159 -0.0329
11236W        W27310   1.116   5.403   5.563  0.1270  0.0780  0.1241
11237W        W27311  15.099  15.714  11.185 -0.1453  0.0584  0.0146
11238W        W27312   8.822   3.452   3.648 -0.1625 -0.0992  0.2880
11239W        W27313  11.062   7.512   5.949  0.0002 -0.1387 -0.0106
11240W        W27314   1.628   9.224   3.736 -0.3782  0.0926  0.3111
11241W        W27315  14.618  11.391  14.819  0.3941  0.1306  0.2708
11242W        W27316   8.871  16.131  13.573 -0.0119  0.3270  0.0408
11243W        W27317  17.793  11.007   1.304 -0.1996  0.1494 -0.1846
11244W        W27318  17.032  13.381  11.202  0.0706 -0.0336 -0.1046
11245W        W27319  14.128   1.211   4.245 -0.1375 -0.3095  0.1775
11246W        W27320   4.891  11.312  14.886 -0.0563 -0.1423 -0.1236
11247W        W27321   5.065  17.359   3.156  0.2394 -0.0802  0.1449
11248W        W27322  17.254  16.208   5.984  0.0677  0.3059 -0.2134
11249W        W27323   4.358   2.686  12.423 -0.3042  0.0759  0.0990
11250W        W27324   9.987  10.950   5.143  0.0314 -0.0045  0.0951
11251W        W27325  13.046   0.475  14.095  0.3159  0.1074  0.0354
11252W        W27326  15.655   0.583   3.750  0.1214 -0.3557 -0.0799
11253W        W27327   3.394  13.442  11.150  0.1378  0.0533  0.0602
11254W        W27328   2.745  14.338  12.354 -0.3117 -0.1177  0.1967
11255W        W27329  10.548   2.025   0.149  0.1785 -0.0465 -0.0651
11256W        W27330   5.379  10.431  16.022  0.0812 -0.0493 -0.1956
11257W        W27331   8.662  12.791   0.859  0.3082  0.0626  0.1429
11258W        W27332   4.171  14.770   0.210  0.0149  0.1584 -0.3171
11259W        W27333   3.207  14.364   0.770 -0.0058 -0.1424  0.2223
11260W        W27334   4.970   6.770   3.075  0.0574  0.1947 -0.1003
11261W        W27335  10.401  13.502  10.496  0.0745  0.2448 -0.0901
11262W        W27336  12.536   1.108   2.225 -0.4062 -0.3218  0.0743
11263W        W27337  11.007   8.166  13.123 -0.2732 -0.0290  0.4270
11264W        W27338   9.852   0.710  11.456 -0.1787 -0.1067 -0.0281
11265W        W27339   8.383  12.225   1.247 -0.1745  0.3356  0.0891
11266W        W27340  16.770   4.481   5.256  0.1200  0.1014 -0.0600
11267W        W27341  15.109  14.278   3.687  0.0141  0.1092 -0.0769
11268W        W27342   7.064   0.551   2.762 -0.2778  0.1937  0.1357
11269W        W27343   3.042  18.177   3.354  0.0814  0.3397  0.0255
11270W        W27344  16.642   2.649  10.709  0.0464 -0.1816 -0.1749
11271W        W27345  15.076   0.544  13.748  0.1420 -0.1354  0.1910
11272W        W27346   3.242   8.662   0.339  0.3815  0.3699 -0.0908
11273W        W27347   2.936  12.326   0.015  0.0941  0.0743 -0.3690
11274W        W27348  11.280   8.753   5.052  0.0846  0.2454  0.1240
11275W        W27349   4.629   6.815  13.468  0.3674  0.3159 -0.3083
11276W        W27350  10.728  14.873  13.711 -0.0930 -0.3506  0.3404
11277W        W27351  17.921   7.879   3.898 -0.1521  0.0872 -0.4181
11278W        W27352   4.994   3.313   2.057  0.4232 -0.0075 -0.3500
11279W        W27353   0.669  18.060  11.696  0.2343  0.1043  0.0994
11280W        W27354   6.982   1.374  13.702 -0.1597 -0.0362  0.2811
11281W        W27355   6.217  13.481   3.391  0.1684 -0.3327 -0.0089
11282W        W27356  15.802  12.512   5.186  0.0382 -0.3920  0.0961
11283W        W27357   7.176  10.724   5.352  0.1249 -0.0723 -0.0941
11284W        W27358   5.042   3.118   1.432 -0.1317 -0.1561 -0.0457
11285W        W27359   0.381  18.171  15.912  0.0559  0.2097  0.0307
11286W        W27360   1.903  17.308   1.572  0.3722 -0.0098  0.0014
11287W        W27361  14.982   8.551   5.132  0.0006 -0.0153 -0.0347
11288W        W27362   2.132  10.916   3.358 -0.1585 -0.1843 -0.6004
11289W        W27363   2.568  15.743  14.571 -0.1536 -0.3681  0.2021
11290W        W27364  12.486  15.486  15.165  0.0756 -0.1128 -0.2701
11291W        W27365  17.574  10.743   5.697  0.1884 -0.2116  0.1273
11292W        W27366  10.849   2.415  12.340  0.0557  0.4033 -0.3155
11293W        W27367  11.839  14.884  14.130 -0.1720  0.3721  0.0166
11294W        W27368   4.672   1.205   0.253 -0.1548 -0.2745  0.2434
11295W        W27369   3.219  13.711   1.979 -0.1794 -0.2638 -0.3436
11296W        W27370   6.115   8.291   0.783  0.2425  0.2134  0.2432
11297W        W27371  18.530  11.153   3.419  0.2690  0.0266 -0.1477
11298W        W27372   7.408  12.280  14.537  0.1709 -0.0793 -0.0820
11299W        W27373   6.438  11.990   5.950  0.1067  0.0699  0.0842
11300W        W27374  12.271  12.704  15.065  0.1080 -0.1000  0.0271
11301W        W27375  17.087   3.439   0.591 -0.0961  0.1790 -0.0902
11302W        W27376   3.694   0.254  15.212  0.2585 -0.0394  0.3223
11303W        W27377  16.717   2.670   4.787  0.0958  0.1958  0.0834
11304W        W27378  10.831  12.809   1.690 -0.1163 -0.1269  0.0094
11305W        W27379   3.152  14.348   1.381  0.1101 -0.0218  0.3525
11306W        W27380   0.076   4.959   3.967 -0.0096 -0.0158  0.2408
11307W        W27381   7.638  11.955  14.246 -0.1112 -0.2364  0.0145
11308W        W27382  15.605   7.792   4.687  0.0371  0.0377  0.1677
11309W        W27383   3.307  17.372   1.508 -0.1146 -0.0825 -0.1587
11310W        W27384   1.574   8.002  14.138  0.0230 -0.0298 -0.1235
11311W        W27385  18.264   3.795   3.775  0.0551  0.0844  0.0772
11312W        W27386  13.539   8.452  12.404  0.2548 -0.1111 -0.3239
11313W        W27387  12.905  11.816   0.142  0.0897 -0.1174 -0.0899
11314W        W27388   9.586  10.458   0.080 -0.0041  0.2035 -0.2133
11315W        W27389  15.208  10.127  13.186  0.0859 -0.2887  0.1016
11316W        W27390   7.940   1.443   2.672  0.0114  0.1534  0.0061
11317W        W27391   4.649  13.733   3.195  0.0343  0.5194 -0.1026
11318W        W27392   8.577  11.010  13.657 -0.1902 -0.2614  0.1592
11319W        W27393   8.414   4.650  14.169 -0.1737  0.1763 -0.1752
11320W        W27394  18.184   3.684  14.088 -0.0464 -0.3365 -0.0748
11321W        W27395  13.236  10.764  16.023  0.0072 -0.2337 -0.1165
11322W        W27396  11.382   8.760   1.673  0.1587 -0.2341  0.1633
11323W        W27397   2.347  18.231  15.128 -0.3817 -0.1050 -0.1752
11324W        W27398   2.976   3.976  14.612  0.0635  0.0968  0.0714
11325W        W27399  13.269  12.114   3.303  0.0394  0.0597 -0.2613
11326W        W27400  10.542   4.658   2.055  0.0393  0.2848  0.1186
11327W        W27401   6.938  17.437  14.003 -0.0462 -0.5965 -0.0508
11328W        W27402  10.692   9.166  14.525  0.0986  0.3437  0.3883
11329W        W27403   0.216   7.883  15.215  0.5875 -0.0542 -0.1539
11330W        W27404  10.205   9.348   4.975  0.2719 -0.1990 -0.1834
11331W        W27405  18.508  14.325   1.338  0.2557 -0.0729  0.2859
11332W        W27406   8.671   9.501   2.642 -0.0647 -0.3955 -0.0009
11333W        W27407   5.423   4.566   1.067  0.3239  0.5749 -0.0356
11334W        W27408  16.317  12.663   0.144  0.2440  0.3571  0.1298
11335W        W27409   6.071  17.031  13.625  0.2500  0.1190 -0.1183
11336W        W27410  17.619   2.799   5.806 -0.2159 -0.0548 -0.1608
11337W        W27411  12.474  11.539   1.653  0.0046  0.0795 -0.3463
11338W        W27412  11.291   6.462  15.419 -0.1737 -0.0271  0.1624
11339W        W27413  18.348   7.280   4.395  0.2881 -0.2030  0.0221
11340W        W27414  18.216   2.776  10.371  0.0041  0.2054  0.2429
11341W        W27415   4.937   4.110   4.761  0.2153  0.1260 -0.1281
11342W        W27416   5.453  11.042   0.629 -0.1079 -0.1683 -0.1415
11343W        W27417   7.009   9.986   4.500  0.0058 -0.1089  0.0736
11344W        W27418  14.775   0.415   3.316  0.3195  0.2659 -0.1500
11345W        W27419  14.900  10.745  13.764  0.1164  0.2300  0.0034
11346W        W27420   8.304  12.852   4.701  0.2682  0.1330  0.1947
11347W        W27421  17.217   6.646  12.034  0.1374  0.0190  0.1155
11348W        W27422   1.686   2.480   1.202  0.4584 -0.1709  0.2597
11349W        W27423  16.153   6.409   5.852 -0.0667  0.0404  0.3107
11350W        W27424  12.632  11.947  14.734 -0.0431  0.0127 -0.2456
11351W        W27425   2.460   6.852  15.457  0.0987  0.2248  0.0546
11352W        W27426   2.487   4.734   0.548  0.2613 -0.3212 -0.0552
11353W        W27427   2.974   5.970  13.886  0.0861  0.1540  0.0678
11354W        W27428  17.607  14.371   0.477 -0.2390  0.1611  0.1517
11355W        W27429  15.004   2.574  15.948  0.1242 -0.1659 -0.2981
11356W        W27430   1.403  17.417   5.704  0.1508 -0.0629 -0.3667
11357W        W27431   0.662   5.468  15.699 -0.3685  0.2033  0.1042
11358W        W27432  15.105  12.772  15.534 -0.2874 -0.0759  0.0243
11359W        W27433   3.807   1.092  11.531  0.2605 -0.3445 -0.1242
11360W        W27434  11.706  11.401  13.804 -0.1330  0.2319 -0.1693
11361W        W27435   1.900   2.255  14.958  0.1376  0.1487 -0.4316
11362W        W27436   0.248   8.133   4.301  0.0985  0.0729 -0.2225
11363W        W27437  15.657   3.696   2.760  0.0116  0.0485  0.2431
11364W        W27438   7.773  11.733   1.689 -0.4130  0.1056 -0.0602
11365W        W27439  13.174  10.867   4.980  0.1211 -0.0984  0.2471
11366W        W27440  16.318   6.904  15.519 -0.0124  0.0190 -0.2765
11367W        W27441   7.132  13.489  14.298 -0.0261  0.0101 -0.0399
11368W        W27442   2.467  16.733   0.540  0.1236  0.0421 -0.2616
11369W        W27443  14.001  10.948   2.890  0.1039 -0.0044 -0.0690
11370W        W27444   3.816   5.094  11.405 -0.0205  0.0955  0.0695
11371W        W27445   9.343   6.816   3.441  0.0320 -0.4415 -0.1557
11372W        W27446  10.051  17.940   1.127  0.5260 -0.3550  0.1505
11373W        W27447   3.452   6.494   4.610  0.1121 -0.0947  0.2994
11374W        W27448  18.398  13.711   5.022  0.0665 -0.2895  0.4053
11375W        W27449  14.473   6.346  11.212  0.0614  0.2908 -0.0011
11376W        W27450  13.744  18.216   2.509 -0.0318 -0.0448  0.2349
11377W        W27451  14.019  12.237   2.165 -0.2170  0.0231  0.2172
11378W        W27452  15.641  16.489  10.543  0.4043  0.5351 -0.1398
11379W        W27453   9.679   5.357   5.728 -0.0290 -0.0540 -0.0288
11380W        W27454   8.942  15.444   2.714  0.0428  0.0250  0.0806
11381W        W27455  16.236  16.535   2.050  0.0248  0.0625 -0.2926
11382W        W27456   4.194   8.609  12.153 -0.1234 -0.0389 -0.1339
11383W        W27457  11.644  12.445   1.038 -0.3082 -0.0714 -0.0786
11384W        W27458  18.169  15.481   0.458 -0.1043  0.1863 -0.0177
11385W        W27459  17.307  16.747  10.621  0.2484 -0.1512  0.0753
11386W        W27460   0.496  11.727   4.001  0.1283  0.0227 -0.1872
11387W        W27461   4.918  12.651   5.820 -0.1024  0.0594  0.2082
11388W        W27462  13.893  12.054  14.811 -0.0542  0.0148  0.1356
11389W        W27463   5.931   9.859   1.015  0.4290 -0.0784  0.0372
11390W        W27464   9.648  14.733   4.864  0.3899  0.0871 -0.0870
11391W        W27465  13.091   2.441   0.164  0.0814 -0.2783 -0.1275
11392W        W27466   7.634   7.642  15.819  0.0184 -0.1238 -0.3438
11393W        W27467  14.503   4.150  10.199 -0.0519  0.1704  0.0636
11394W        W27468   8.995  17.156   2.569  0.1365 -0.0512 -0.0053
11395W        W27469  17.257   4.843  15.234 -0.0940 -0.0373 -0.3253
11396W        W27470   9.514  10.182   3.011  0.2953  0.2046  0.1184
11397W        W27471  16.065  15.917  13.472  0.0586  0.0671 -0.0609
11398W        W27472   6.879   0.845  11.620 -0.0647  0.3137 -0.1148
11399W        W27473   9.206  11.727   0.346  0.4188  0.0943  0.2000
11400W        W27474  18.275   4.122  14.290  0.2996  0.0617 -0.1313
11401W        W27475  14.615   7.846   3.537  0.1584  0.0796 -0.1367
11402W        W27476  10.669   7.052  15.378 -0.1028  0.1323 -0.2142
11403W        W27477   6.364   2.252  12.108  0.1084  0.0963  0.1733
11404W        W27478  13.369   0.568   2.668 -0.0410  0.3595  0.0284
11405W        W27479   8.510  17.748   1.817  0.3473  0.0940 -0.0642
11406W        W27480   7.481   7.407   2.435 -0.0950  0.1523  0.0279
11407W        W27481   6.322   3.196   3.560 -0.2626  0.1320 -0.0963
11408W        W27482   3.438  13.635   0.292 -0.2676  0.0874 -0.2187
11409W        W27483   5.300  17.631   0.362  0.0537 -0.0877 -0.0884
11410W        W27484   8.340  14.901  11.866  0.0604  0.0648  0.3310
11411W        W27485  17.480   3.384  15.153  0.0826 -0.0902 -0.0853
11412W        W27486   7.333   0.609  14.613  0.0154 -0.0578  0.5124
11413W        W27487  16.706  17.563   2.596 -0.2622 -0.2791  0.0208
11414W        W27488   3.740   7.122   0.637  0.4217 -0.1795 -0.0056
11415W        W27489  14.492   0.610  11.849 -0.2306  0.4549 -0.1016
11416W        W27490  15.512   5.924  11.682 -0.0396 -0.1506  0.1610
11417W        W27491  13.861   2.602   5.236 -0.1533 -0.0984 -0.1231
11418W        W27492   1.682   9.420   0.533  0.0141  0.0764 -0.0168
11419W        W27493   8.797   1.258  14.347 -0.0297 -0.1247  0.2321
11420W        W27494   0.180   9.462   3.556 -0.1360 -0.2394  0.3068
11421W        W27495  12.260  15.594  13.855 -0.3634 -0.0912  0.1632
11422W        W27496  15.769  14.111  12.214  0.2860 -0.2279 -0.0284
11423W        W27497   4.485   0.145  15.149 -0.2142  0.0419 -0.1922
11424W        W27498  11.667  18.413   3.942  0.0303 -0.0221  0.2548
11425W        W27499  15.089   5.621  13.865 -0.0315 -0.0304 -0.0460
11426W        W27500  17.421  15.424   3.585 -0.0457 -0.1317  0.1245
11427W        W27501  14.420   9.071  12.706 -0.1708  0.0420 -0.0452
11428W        W27502  14.208   7.372   1.000  0.1368  0.3495  0.0424
11429W        W27503   0.034  10.497   2.726 -0.2180  0.0440 -0.1608
11430W        W27504  15.406   3.400  14.914  0.3436 -0.4759 -0.5747
11431W        W27505  12.970  15.350   1.028 -0.0559  0.0452 -0.0550
11432W        W27506  11.385  13.292  11.915  0.4579  0.1811 -0.1864
11433W        W27507   8.458   8.204   3.478  0.1868  0.3986 -0.4679
11434W        W27508   5.794  16.541  14.565 -0.1295  0.2316 -0.0311
11435W        W27509  15.651  11.313  15.123  0.5285 -0.0917  0.1409
11436W        W27510   1.281   3.213   1.431  0.0379  0.3899 -0.1573
11437W        W27511   2.275   4.668   2.831 -0.0782  0.2097 -0.0813
11438W        W27512   7.035  18.566   1.460 -0.1573  0.2584 -0.0790
11439W        W27513   5.672  15.908  12.564  0.0262  0.0456 -0.1725
11440W        W27514  11.078   5.615   0.941 -0.0240 -0.2840 -0.1258
11441W        W27515   0.662  15.211  15.450 -0.0871 -0.1102  0.2070
11442W        W27516   7.012  11.173  15.249  0.0639 -0.0815 -0.2262
11443W        W27517  18.107   0.606   2.099 -0.0973  0.1056  0.2131
11444W        W27518   7.661  13.299   2.390  0.1188 -0.1701  0.0439
11445W        W27519   1.998   4.911   6.031 -0.0364 -0.0996 -0.2019
11446W        W27520  10.805   4.078  15.077 -0.0783 -0.6166  0.2313
11447W        W27521   7.565  15.796  11.460  0.0202  0.1151 -0.0151
11448W        W27522  18.237  16.660   5.601 -0.0689 -0.0805  0.0691
11449W        W27523  16.903   3.962   0.837  0.1034 -0.1632  0.0897
11450W        W27524   7.187   6.534  13.597  0.1043 -0.0498 -0.1669
11451W        W27525  12.236   5.805  11.751  0.2297  0.1647  0.0214
11452W        W27526   1.551  11.084   4.608 -0.4197  0.0346  0.0619
11453W        W27527  15.839  17.994   1.470 -0.1181  0.0676 -0.1970
11454W        W27528   5.024  11.133   2.264 -0.0571 -0.1072 -0.1712
11455W        W27529   8.235  10.745   4.742  0.0107  0.1710 -0.1185
11456W        W27530   7.150   3.344   1.337 -0.1108  0.2411 -0.0825
11457W        W27531   1.571  17.483  15.126 -0.0499  0.0799  0.1947
11458W        W27532   5.886  17.124   3.901  0.1941 -0.4060 -0.1645
11459W        W27533  10.272  17.847  10.816 -0.2523  0.1072  0.0063
11460W        W27534  14.043  12.486  12.253  0.0238 -0.3512 -0.1752
11461W        W27535  11.102  15.996   4.673 -0.1452 -0.1715  0.0525
11462W        W27536  15.830   3.313  14.692 -0.0581 -0.1420  0.0394
11463W        W27537   5.647  11.847   3.303  0.3759  0.1150 -0.0291
11464W        W27538   2.253   6.362  12.152  0.0674 -0.1931 -0.0987
11465W        W27539  14.126  16.147  11.169 -0.1063  0.2013 -0.1109
11466W        W27540  17.547  14.062   3.285  0.3070 -0.1601 -0.2604
11467W        W27541   2.072  13.549   4.979 -0.2308 -0.1972  0.0048
11468W        W27542   5.492  10.683  14.858  0.0349  0.1650 -0.0013
11469W        W27543   8.877   4.574   4.123 -0.0060  0.3982 -0.3687
11470W        W27544  10.330   6.961   4.734  0.1318  0.4095 -0.0796
11471W        W27545   1.029   1.315   2.621 -0.1366  0.2797  0.0421
11472W        W27546  16.078  15.777  15.827  0.2104 -0.5639  0.1566
11473W        W27547   8.859  15.628  11.498 -0.1700  0.0781  0.1413
11474W        W27548  17.731   8.140  11.183  0.1548  0.0845 -0.1670
11475W        W27549  15.011   0.539  12.104  0.0032  0.1601  0.0161
11476W        W27550  15.205  17.288  14.651 -0.1436 -0.0713  0.0274
11477W        W27551   3.431   1.999   4.293  0.2848 -0.1312  0.1521
11478W        W27552  12.090   6.910   4.123  0.2100 -0.0128 -0.0116
11479W        W27553  18.460  14.956  12.657 -0.2237 -0.0487 -0.0676
11480W        W27554   5.012   2.636  15.754  0.1232  0.1556 -0.0533
11481W        W27555   7.666   7.069   1.810 -0.3025  0.2634  0.2182
11482W        W27556  14.379   5.182   0.383  0.1051 -0.1889  0.1838
11483W        W27557  14.293  15.216   3.613  0.0876  0.1123  0.0393
11484W        W27558   4.732   1.831  13.301  0.1199 -0.1718 -0.2615
11485W        W27559  15.106  17.493  15.553 -0.0762 -0.2174  0.0695
11486W        W27560   9.315   3.905  12.730  0.1199 -0.1215 -0.0232
11487W        W27561  16.956   4.597  13.761  0.1918 -0.1912 -0.2696
11488W        W27562   2.425  10.646  14.854  0.0858 -0.0950  0.0337
11489W        W27563   0.726  11.617  15.845 -0.2999  0.0407  0.1290
11490W        W27564  12.101  10.080  15.752 -0.0879  0.0310  0.2388
11491W        W27565  15.613  14.617   2.583  0.0133  0.4175  0.2477
11492W        W27566  14.835   1.087   0.013  0.0696  0.0209 -0.3039
11493W        W27567   3.577  17.361   0.476  0.2963 -0.0895  0.4036
11494W        W27568   8.104   6.881   0.101 -0.0080 -0.0370 -0.2412
11495W        W27569   5.611   7.080  13.169 -0.1201 -0.1014  0.0185
11496W        W27570  15.263   9.636  14.896  0.1264  0.1025  0.2525
11497W        W27571  17.490  15.794  15.367 -0.1911 -0.0393  0.1251
11498W        W27572  15.948   5.758  13.494 -0.1190 -0.3143 -0.0391
11499W        W27573   2.796  10.046   3.685 -0.2787  0.0407  0.0161
11500W        W27574  13.755   1.759   2.309  0.2552  0.0278 -0.3736
11501W        W27575  13.359   7.996   3.884 -0.1164 -0.0719 -0.3989
11502W        W27576  14.470  16.728   4.602 -0.0336 -0.0493 -0.2805
11503W        W27577   0.972   9.166  13.999  0.0362  0.0821  0.0960
11504W        W27578   8.662  18.510  15.313  0.3589 -0.0430 -0.2563
11505W        W27579  17.821   0.229  13.216  0.2345 -0.3113  0.2119
11506W        W27580   4.051  15.843  15.284 -0.1485 -0.0255  0.1816
11507W        W27581  12.926   2.832   3.181  0.1021  0.4700 -0.0712
11508W        W27582   0.481   3.181  11.151 -0.2113 -0.0309  0.0239
11509W        W27583  14.150   0.618   0.592  0.0281  0.1102  0.0926
11510W        W27584  14.051  13.280  12.176 -0.0531 -0.1473  0.2375
11511W        W27585   2.250   2.137  14.582 -0.2692 -0.3964  0.1747
11512W        W27586   0.107   2.287  10.383 -0.1480 -0.2648 -0.0881
11513W        W27587   0.904  13.162  12.960 -0.2805  0.1817  0.0083
11514W        W27588  15.042  16.368   4.096 -0.1925 -0.1577 -0.3203
11515W        W27589  18.067  14.632  12.846  0.1131  0.0234 -0.0199
11516W        W27590   8.744   1.131   4.114  0.2402 -0.0041 -0.2435
11517W        W27591  16.641   1.684  14.697 -0.1139  0.1595 -0.0051
11518W        W27592  13.952   3.451  14.754 -0.1673 -0.0067  0.0220
11519W        W27593  16.245  10.301  12.796 -0.0965 -0.0244  0.0573
11520W        W27594   2.624  13.211   1.494  0.2385  0.0706 -0.1164
11521W        W27595   1.993   3.848   3.510 -0.0414  0.0290 -0.0040
11522W        W27596  13.882   7.964  11.725 -0.0258  0.1173  0.0694
11523W        W27597   5.206  12.210   5.519 -0.2164  0.1156  0.0470
11524W        W27598  15.287  16.750  10.784  0.2559  0.0103  0.2060
11525W        W27599  16.192  10.139  15.439 -0.2844 -0.2550  0.1477
11526W        W27600   6.682  13.524  10.758  0.0138 -0.0345  0.0797
11527W        W27601  13.071  15.502  12.748  0.0349  0.0169  0.1582
11528W        W27602   2.587   7.488   3.235 -0.2490  0.0781 -0.0683
11529W        W27603  12.206   0.738   1.787 -0.0050 -0.1411 -0.0215
11530W        W27604  10.285   6.458   4.783  0.2632  0.0227  0.3469
11531W        W27605   6.074   3.836   3.653 -0.1126 -0.0739  0.0693
11532W        W27606   7.354   8.847   1.438 -0.5478  0.1729 -0.0619
11533W        W27607  15.657  10.875  14.867 -0.3021  0.1520 -0.1794
11534W        W27608  10.591  17.501  12.571 -0.0233 -0.0392  0.0172
11535W        W27609   7.586   8.660   4.477 -0.2333 -0.0943  0.1268
11536W        W27610   4.018   4.208  15.355 -0.0657  0.0182 -0.1016
11537W        W27611  11.632   7.825   5.294 -0.2985 -0.2860  0.3515
11538W        W27612  14.440  17.819   3.233 -0.0590  0.0966  0.0800
11539W        W27613  10.844   5.659  14.287  0.0562  0.2343 -0.0804
11540W        W27614  11.109   9.211   5.046  0.0389  0.0261  0.0907
11541W        W27615  11.013   7.907  14.553  0.2906 -0.0157 -0.2353
11542W        W27616   3.881  15.278  12.337  0.0183 -0.0388 -0.3985
11543W        W27617   8.624   6.669  15.789  0.2835 -0.0804  0.1595
11544W        W27618  12.973   1.734   1.511  0.3900  0.1170 -0.0768
11545W        W27619  16.644  13.327  15.878  0.0731  0.1090 -0.1642
11546W        W27620   8.181   1.271  11.466 -0.1584  0.1178  0.0437
11547W        W27621  13.724   9.150  15.304 -0.4844  0.2493 -0.1357
11548W        W27622  13.572   1.195  14.693 -0.2506 -0.3238  0.0202
11549W        W27623   8.375   5.852  15.899  0.1591  0.4190  0.3491
11550W        W27624   3.730  15.399  14.909  0.0175  0.1942 -0.1046
11551W        W27625  13.714   5.210  15.639  0.0929  0.2805  0.1943
11552W        W27626   6.003  17.786   1.484  0.2311  0.3121  0.0740
11553W        W27627   8.902   8.695  11.168  0.3205  0.1211 -0.1064
11554W        W27628  18.125  16.427   3.052  0.1202 -0.1749  0.0799
11555W        W27629   9.384   1.583  15.404  0.0604  0.0813  0.0410
11556W        W27630   7.320   1.575  15.909  0.0754  0.3487  0.2797
11557W        W27631  10.429   9.235   4.064  0.0247  0.0995 -0.0147
11558W        W27632   9.543  16.892  13.400 -0.1705  0.4800  0.0172
11559W        W27633   1.513   6.521  15.147 -0.4895 -0.1136  0.1151
11560W        W27634  18.513  15.578   1.412  0.0622  0.0724 -0.0879
11561W        W27635  13.521   8.804  12.792 -0.0307 -0.1896  0.2327
11562W        W27636  10.063  13.276   1.670  0.1079  0.3261  0.0136
11563W        W27637  15.331   1.866  14.746  0.3491 -0.2743  0.0839
11564W        W27638  12.650   9.444   2.934 -0.1798 -0.0831  0.1061
11565W        W27639  16.821  17.095   4.330 -0.1031  0.0971 -0.2314
11566W        W27640  17.408  15.169  13.029  0.1782  0.6020  0.2420
11567W        W27641  15.309  14.711   0.857  0.2761  0.1018 -0.3026
11568W        W27642   8.828   5.672   4.537  0.2138  0.2003  0.0367
11569W        W27643  16.754  13.222   1.072  0.4925 -0.3695  0.2714
11570W        W27644  14.821   5.049   2.516  0.0642  0.3251 -0.0130
11571W        W27645  16.840   3.243   2.963  0.0940  0.0055 -0.0848
11572W        W27646  17.182  15.314   0.903 -0.2171  0.5477 -0.0991
11573W        W27647  12.956   0.906   3.344  0.3617 -0.4754  0.0262
11574W        W27648   9.742  13.407  12.971  0.0334  0.3150  0.1618
11575W        W27649  12.996   2.793  13.710 -0.0807  0.0611  0.1226
11576W        W27650   6.059   0.945  14.080 -0.0485  0.3465 -0.0681
11577W        W27651  17.597   9.421   3.838  0.0879 -0.1252 -0.0045
11578W        W27652   3.887  11.171  12.866  0.1210 -0.1009  0.0829
11579W        W27653   5.582  10.579  14.381  0.1782  0.2127 -0.1734
11580W        W27654  16.679   8.009   5.722  0.3109 -0.0915  0.1275
11581W        W27655  12.016   6.965   3.128 -0.2991 -0.1871 -0.2936
11582W        W27656  14.825   2.221  13.905  0.4989  0.1772  0.0925
11583W        W27657  15.346  17.764  12.352 -0.0197 -0.1821 -0.0330
11584W        W27658   1.332  11.078   3.702 -0.1296  0.2883  0.2898
11585W        W27659   7.500   4.613  11.879  0.2127  0.1657 -0.0124
11586W        W27660   0.256  11.706   5.235 -0.2695  0.3479  0.0604
11587W        W27661  15.310   7.887   2.328 -0.1248  0.0478 -0.2725
11588W        W27662  13.925   1.940  11.409  0.0124 -0.2182  0.0826
11589W        W27663   7.929  10.890  11.822  0.1773 -0.0024  0.2450
11590W        W27664  10.565  10.857   5.028  0.2398 -0.0397 -0.2088
11591W        W27665   6.151  14.070   0.718  0.0389 -0.1411 -0.0056
11592W        W27666   6.889   2.855  15.079  0.2959 -0.2787 -0.3116
11593W        W27667   6.979   4.589  15.125 -0.1752 -0.0389 -0.2144
11594W        W27668   9.671  14.893  14.047 -0.0376 -0.2490 -0.1598
11595W        W27669  13.192  14.680  15.384  0.2882  0.2133 -0.1862
11596W        W27670  10.729  17.002   1.656 -0.0150  0.4232  0.3195
11597W        W27671   1.958  17.123   5.908  0.0423  0.0347  0.1545
11598W        W27672   7.496  10.357  15.833 -0.0253  0.0472 -0.0827
11599W        W27673   0.567   7.829   4.179 -0.1606 -0.2129 -0.0414
11600W        W27674   6.368  15.275  15.770  0.0001 -0.2770  0.0337
11601W        W27675  14.236  16.301   2.430 -0.0928  0.2937  0.2283
11602W        W27676  12.708  12.487   4.404 -0.1924 -0.0276  0.1578
11603W        W27677  13.394  15.415   4.857  0.2484 -0.2221 -0.1729
11604W        W27678  13.560   7.443  13.799  0.0267  0.2018  0.4111
11605W        W27679  16.880  16.313   3.809 -0.3544  0.2750 -0.2152
11606W        W27680   8.731   0.606   3.194 -0.2323 -0.3678 -0.1570
11607W        W27681   7.688   2.511   1.679  0.1261  0.1208 -0.1990
11608W        W27682   0.918  16.409  13.428 -0.0797  0.2667 -0.1740
11609W        W27683  12.211  10.322  13.404  0.2738 -0.0772  0.1135
11610W        W27684   6.214  16.291   5.344 -0.1366 -0.0262 -0.1877
11611W        W27685   4.730   2.026   3.310 -0.1818 -0.2409  0.2133
11612W        W27686  18.514  16.918   1.971  0.0718 -0.3736 -0.0451
11613W        W27687  15.100   1.412  10.129 -0.0572 -0.2778  0.1967
11614W        W27688   6.851  12.101  14.348  0.3913  0.2229  0.3546
11615W        W27689  16.588   7.916   2.644  0.0230 -0.3444 -0.0844
11616W        W27690   9.980  14.578  15.883  0.0916  0.1392 -0.2589
11617W        W27691   8.395   0.441   3.708  0.0212 -0.3161  0.0910
11618W        W27692  14.936  16.353  14.033 -0.0059  0.2306 -0.2767
11619W        W27693   3.502   9.235  14.641  0.1673  0.1105  0.0601
11620W        W27694   7.624   6.218   3.859 -0.1523  0.0388  0.2146
11621W        W27695  15.875   2.452  13.405  0.2025 -0.0513 -0.0272
11622W        W27696  11.206  13.199   1.723  0.1280  0.1972 -0.1472
11623W        W27697   9.906  14.353   2.022 -0.1270  0.1481 -0.1176
11624W        W27698  14.928  12.430   0.615  0.0650  0.1557 -0.3737
11625W        W27699   9.938  16.735  15.468 -0.4293  0.1802 -0.2258
11626W        W27700  15.082  16.197  12.064  0.3700 -0.1780 -0.3376
11627W        W27701   8.112   1.412  15.484  0.1881  0.3046 -0.2035
11628W        W27702   9.437   3.369  14.137 -0.1383 -0.0562 -0.4266
11629W        W27703  14.429   5.548   0.831 -0.1663 -0.2169  0.0128
11630W        W27704  18.068  16.111   0.105  0.1040  0.1422 -0.2680
11631W        W27705   6.383   3.911   1.102 -0.1824  0.2641 -0.0635
11632W        W27706  16.241  10.976   3.099 -0.0565  0.3069 -0.1665
11633W        W27707  16.501   1.182   5.311  0.2484  0.1408  0.1514
11634W        W27708  11.831   9.528   2.014 -0.0761  0.0445 -0.0905
11635W        W27709  15.196  11.220  12.319  0.2735 -0.0072 -0.1301
11636W        W27710  14.801   0.978  14.591 -0.0762 -0.0817 -0.3623
11637W        W27711   7.761   0.915  10.693 -0.0042 -0.0698 -0.2616
11638W        W27712   6.862   1.711  11.644  0.0944  0.1348 -0.0174
11639W        W27713  14.755  17.035  11.975  0.3266 -0.1210 -0.0484
11640W        W27714   4.329  18.234   2.561  0.0629 -0.0927 -0.5986
11641W        W27715  12.970  12.914  14.973  0.1127 -0.0918 -0.1645
11642W        W27716  18.429  10.339   0.434  0.0562 -0.3511 -0.2661
11643W        W27717  14.267  11.653   1.307  0.0203 -0.1444  0.0306
11644W        W27718   2.122  16.818   0.153  0.0899  0.2402 -0.0075
11645W        W27719   6.351   5.662   0.191 -0.2043  0.0673  0.0944
11646W        W27720  16.012   3.284   2.783  0.0303  0.0252  0.1988
11647W        W27721  11.896   8.351  11.977  0.1681 -0.1423  0.4349
11648W        W27722   5.320   6.239   0.836  0.0113  0.3147 -0.0429
11649W        W27723  15.499  11.428  15.574 -0.1519  0.0015 -0.2607
11650W        W27724  11.552  17.934  13.130  0.4148  0.2328 -0.0971
11651W        W27725   2.355  17.760  15.081  0.4027  0.1828  0.0551
11652W        W27726  16.444  13.442   4.661  0.2445 -0.1599 -0.3152
11653W        W27727   1.199  14.409   4.606  0.0787  0.1125 -0.0330
11654W        W27728   8.317   4.366   4.404  0.0860  0.0914 -0.3458
11655W        W27729   7.234  11.283   3.589 -0.2452 -0.0165  0.1218
11656W        W27730  16.474   6.036   3.699 -0.0057  0.0750  0.2370
11657W        W27731  17.252  10.147   1.661 -0.2020 -0.3380  0.0373
11658W        W27732   6.217   6.719  15.580  0.1432 -0.0519  0.1877
11659W        W27733   5.649   4.681  11.432  0.0138  0.4130  0.2498
11660W        W27734   2.366  16.146   3.402 -0.0310 -0.3000  0.1700
11661W        W27735   8.207  11.846   2.612 -0.0052 -0.0338 -0.0228
11662W        W27736  17.681  12.426  14.974 -0.0693  0.3674 -0.0385
11663W        W27737   7.130  15.292  11.930  0.4884  0.1955  0.0162
11664W        W27738   6.219   9.629  14.543  0.0081 -0.3897  0.1816
11665W        W27739   6.890   0.120  13.218 -0.1603  0.1526  0.3184
11666W        W27740   2.200   8.154   1.097  0.3357 -0.2011 -0.1676
11667W        W27741  11.647   8.848  15.567 -0.3213  0.3020  0.0322
11668W        W27742  13.604  12.606   1.325 -0.3603 -0.1555  0.1477
11669W        W27743  15.624   8.069  12.964 -0.1693  0.2296  0.0403
11670W        W27744  10.283   9.141  13.833 -0.2913  0.1897 -0.1654
11671W        W27745   3.897  14.254   0.240 -0.0703  0.4014  0.3469
11672W        W27746   2.025   8.751   5.081 -0.0090  0.0948  0.1085
11673W        W27747   1.399   8.775   1.459 -0.1261  0.0661 -0.1235
11674W        W27748   6.800  10.888   0.230  0.1983 -0.4327  0.1640
11675W        W27749  11.647  13.285   4.300  0.1261  0.2633  0.1174
11676W        W27750   2.997   1.096   4.086  0.0313 -0.1662  0.2515
11677W        W27751  14.339   5.994  12.709  0.2709  0.0404 -0.0332
11678W        W27752  16.519  12.789   5.913 -0.4848 -0.1361  0.0534
11679W        W27753   7.025   6.053  12.899 -0.1967  0.2280 -0.2549
11680W        W27754  15.374  10.363  14.626  0.2636 -0.1908  0.0490
11681W        W27755  11.871   2.944   6.042 -0.4030  0.2906  0.1335
11682W        W27756  13.327  18.220   1.528  0.0462 -0.0754  0.1337
11683W        W27757  11.161   4.392  15.627 -0.1495  0.2596 -0.0216
11684W        W27758  14.425   0.198  11.171  0.1363  0.1575  0.2661
11685W        W27759   4.187  15.636  14.851  0.1099 -0.0192  0.1284
11686W        W27760   1.596  10.182   3.732 -0.1020  0.2516 -0.1227
11687W        W27761   1.008  15.085   5.434  0.0419  0.1237  0.2031
11688W        W27762   4.150  15.919  13.312 -0.0419 -0.0321  0.2383
11689W        W27763  12.778   6.041   1.983  0.1824  0.1246 -0.0521
11690W        W27764   3.429  12.828  13.992 -0.0276  0.1705  0.0018
11691W        W27765   6.455   1.042  11.821 -0.0597  0.2284  0.0176
11692W        W27766  12.151  18.261   2.667  0.3102 -0.1498  0.0840
11693W        W27767  15.043   2.957  14.921 -0.4166  0.0309 -0.0542
11694W        W27768   3.365   1.066   1.430 -0.0591  0.1556 -0.0317
11695W        W27769   3.560  17.970   2.072  0.0568  0.1923 -0.0090
11696W        W27770  16.258  16.112   4.339 -0.1871 -0.4158 -0.1841
11697W        W27771   6.273   5.740   5.218 -0.2283 -0.0291 -0.0231
11698W        W27772  16.573  11.355  13.876  0.0531 -0.2947  0.0838
11699W        W27773  16.927   7.916   3.833  0.0450 -0.2538 -0.1518
11700W        W27774  13.310   2.948  15.367 -0.0684 -0.1690  0.1958
11701W        W27775  17.955  10.407   1.971 -0.0164 -0.0443  0.1409
11702W        W27776  17.813   2.679   1.416 -0.0395  0.0484  0.3399
11703W        W27777   0.882  15.682  12.293 -0.0709  0.2671  0.0283
11704W        W27778  12.697   5.521   1.218  0.1240  0.0401 -0.2784
11705W        W27779   3.026  11.241  14.854  0.1067 -0.4325  0.1762
11706W        W27780   3.051   2.301   3.647 -0.0786 -0.1611 -0.2174
11707W        W27781   8.383  14.022  13.837  0.0228 -0.0705 -0.0490
11708W        W27782  12.418   8.004  11.781 -0.1178 -0.0613 -0.0785
11709W        W27783   2.433  16.131   4.118 -0.3792 -0.0831 -0.3075
11710W        W27784   0.983   0.245  12.432  0.1548  0.1471  0.0129
11711W        W27785   1.630   0.143  14.808  0.3579  0.0429 -0.2911
11712W        W27786   6.516  16.253  11.089  0.0976  0.0109  0.1163
11713W        W27787  12.710  16.567   4.290 -0.1810  0.1461  0.0828
11714W        W27788   7.969   8.202   1.473  0.2655 -0.2263 -0.1326
11715W        W27789   9.357  17.073  13.845  0.0807  0.0097 -0.0387
11716W        W27790   1.611  13.027  15.596 -0.2407 -0.3168  0.0370
11717W        W27791   4.131   8.960   0.682 -0.2026 -0.1575  0.0204
11718W        W27792  17.642  14.758   1.603  0.0301  0.0666 -0.2302
11719W        W27793  10.316   5.373   3.586  0.0247  0.0209  0.2319
11720W        W27794  15.476  12.020   0.108  0.3133 -0.3524  0.2501
11721W        W27795   9.417  13.452   0.210  0.1678  0.2889 -0.2568
11722W        W27796   4.742   3.466  11.514 -0.1674 -0.0823  0.1915
11723W        W27797  14.203  15.919   0.881 -0.0785  0.0984 -0.0255
11724W        W27798   8.976   8.135   0.996  0.3389  0.0188 -0.3220
11725W        W27799   6.470  11.590   0.813  0.1754  0.1253 -0.2811
11726W        W27800  18.422  10.928   0.206  0.2063 -0.1155 -0.0044
11727W        W27801   9.116  12.279   4.963  0.0376 -0.0762 -0.1268
11728W        W27802  16.170   0.743  13.800 -0.0405 -0.1755 -0.0699
11729W        W27803  12.647  14.305   4.543  0.1762 -0.0845 -0.2696
11730W        W27804   1.651   4.439   0.998 -0.1418 -0.0545 -0.0048
11731W        W27805   1.551  16.269  11.613 -0.0971  0.0296  0.0436
11732W        W27806  11.844   9.659  10.672  0.1424  0.2784 -0.2224
11733W        W27807   5.533  12.001  14.642  0.3409 -0.2169 -0.1851
11734W        W27808   1.200   4.550   6.214  0.0322  0.4334  0.4336
11735W        W27809   4.397  15.144  13.018 -0.0866  0.3949  0.0205
11736W        W27810   2.286  18.441   4.799  0.0517  0.0598  0.0200
11737W        W27811   4.270  15.116   1.951 -0.1442  0.1458 -0.0206
11738W        W27812  12.589  11.677   4.774  0.0138  0.0338  0.0820
11739W        W27813  17.434   9.465   2.097  0.3224 -0.0553 -0.0663
11740W        W27814  15.567   4.220  11.052  0.4291 -0.2423 -0.0057
11741W        W27815  11.456  14.434  14.014  0.1208  0.4148 -0.3718
11742W        W27816  18.050  16.635   6.386  0.0077  0.1030  0.0209
11743W        W27817  14.035  13.209   1.003 -0.0866 -0.3018  0.0966
11744W        W27818  12.295   4.620  13.471  0.0138  0.0269 -0.3040
11745W        W27819   9.966   2.181   5.054 -0.2672  0.0893  0.1826
11746W        W27820  17.812  13.074   6.066  0.0512  0.1176  0.0441
11747W        W27821  11.906   2.823   1.607  0.2158  0.3157  0.0689
11748W        W27822   6.901  11.733   1.085 -0.2235  0.4738  0.2373
11749W        W27823  17.433  13.759  13.271  0.3944 -0.3064 -0.2750
11750W        W27824  17.307   5.013  13.684 -0.0610 -0.0198  0.5222
11751W        W27825   8.446  12.065  15.380 -0.1680  0.0134  0.0347
11752W        W27826  14.711   7.340   4.826  0.2925 -0.0560 -0.0368
11753W        W27827   4.333  13.847  11.903  0.2975  0.0551 -0.3556
11754W        W27828  16.674  14.566   5.708  0.1576 -0.0524 -0.0380
11755W        W27829  16.983   3.965   1.816 -0.0312 -0.0360 -0.2792
11756W        W27830  11.799   3.860  14.970  0.0306 -0.0961 -0.3346
11757W        W27831  10.682  16.157  12.016 -0.1026 -0.0876 -0.0310
11758W        W27832   5.607  10.126   1.276  0.0511  0.1236 -0.0759
11759W        W27833   2.594   1.545   2.627 -0.0723 -0.1640  0.2691
11760W        W27834   2.158   1.357   4.722  0.2751 -0.0004  0.0346
11761W        W27835  10.875  17.628   5.236 -0.1831  0.0965 -0.1430
11762W        W27836  14.294  11.316  13.586  0.1886 -0.1438  0.3261
11763W        W27837   7.577   4.819   3.571  0.0969 -0.2736  0.0297
11764W        W27838   5.869   4.249  12.048 -0.1600 -0.2428  0.1591
11765W        W27839   3.834  15.163   2.202  0.0395  0.2022 -0.2345
11766W        W27840  10.540  16.375   2.232 -0.1375 -0.3998 -0.0957
11767W        W27841   2.860   5.285  12.176 -0.1164 -0.0312  0.3779
11768W        W27842   7.489   3.814  15.901 -0.0025 -0.2132 -0.1786
11769W        W27843   3.759   0.272  13.993  0.2251 -0.2413 -0.0949
11770W        W27844   7.555  13.718   5.631 -0.1493  0.1967 -0.1565
11771W        W27845  16.568  15.734   2.670  0.1599 -0.4190 -0.0424
11772W        W27846   0.143   3.190  10.775 -0.0406  0.2781 -0.3344
11773W        W27847   0.889   2.642  12.627 -0.1836 -0.2022 -0.1861
11774W        W27848   8.035   2.244  11.988  0.1031 -0.0855 -0.1316
11775W        W27849  18.312   6.251   1.321  0.0860  0.0822 -0.0037
11776W        W27850   2.196   6.858   3.478  0.1135  0.1014 -0.1750
11777W        W27851  15.889   6.293  13.775 -0.0617  0.1303 -0.0367
11778W        W27852   8.827   9.546   4.748  0.0697  0.0298 -0.1675
11779W        W27853   9.092  17.447   5.219  0.2047  0.5292  0.0500
11780W        W27854   8.621  14.225   0.957 -0.0491  0.3485 -0.1276
11781W        W27855  12.883   2.926   3.730 -0.1561  0.2386  0.0703
11782W        W27856   7.144   9.343  13.252  0.0646  0.2287  0.1080
11783W        W27857   8.858   7.326   2.316  0.4096  0.1145 -0.0392
11784W        W27858   8.075   0.107   3.543  0.1151  0.0998 -0.0657
11785W        W27859   4.497  16.606   5.020  0.0646  0.1306 -0.1506
11786W        W27860   4.591  18.419  15.771  0.2442  0.1798 -0.0059
11787W        W27861   8.554   5.030   6.341 -0.1925  0.2118  0.1570
11788W        W27862  10.462  17.907   5.467 -0.3568  0.2010  0.4186
11789W        W27863   4.483  11.659   5.674  0.1769  0.0028 -0.0803
11790W        W27864   2.540  13.944  12.565 -0.0693 -0.1678 -0.2058
11791W        W27865  17.395  11.330   2.840 -0.1673 -0.2554  0.1957
11792W        W27866  12.378  11.363   6.318  0.2166 -0.0031  0.0585
11793W        W27867  15.225  15.283   2.780  0.0543  0.1055  0.0698
11794W        W27868   4.621  14.756  12.155  0.0512 -0.0331  0.1525
11795W        W27869   4.140  14.935   6.094  0.1637  0.2795 -0.1556
11796W        W27870   5.704   7.180   6.354 -0.0082 -0.0262  0.1957
11797W        W27871   9.179  15.447   5.147  0.0356  0.1727  0.4141
11798W        W27872  15.697  17.367   4.831  0.0693  0.4155 -0.4636
11799W        W27873  12.053   7.967  14.577 -0.1416  0.1082 -0.1762
11800W        W27874   7.042   9.715   5.322 -0.1647 -0.2455  0.2367
11801W        W27875  13.848   2.190  14.440  0.1641  0.3992  0.1352
11802W        W27876  13.367   4.046  15.915 -0.2779 -0.3091  0.0546
11803W        W27877   6.686  11.795   2.622  0.2187 -0.3404  0.1413
11804W        W27878  18.539  15.915  13.191  0.0171  0.1050 -0.0066
11805W        W27879  14.169   1.089   0.590  0.0970 -0.1112  0.2960
11806W        W27880   2.616  12.547  14.557  0.1807 -0.1752 -0.2502
11807W        W27881  14.299   0.050   2.038 -0.0804  0.2267 -0.0427
11808W        W27882  16.782   9.217   2.830  0.3992  0.3897 -0.3551
11809W        W27883   1.028  13.845  12.343  0.2238 -0.0240  0.2243
11810W        W27884  16.939   3.050  14.747  0.1955  0.2686  0.3307
11811W        W27885   9.529   8.085   5.159  0.0331 -0.0883 -0.0951
11812W        W27886  16.218   3.864   2.837  0.3379 -0.1836  0.1561
11813W        W27887   1.285   8.586  12.906  0.2879 -0.1775  0.1203
11814W        W27888   9.889   8.341  14.497 -0.3795 -0.1107  0.0286
11815W        W27889  18.012  13.883  14.935  0.1436 -0.0868  0.0138
11816W        W27890   4.005   0.744   3.280 -0.1014  0.1480 -0.1640
11817W        W27891   7.294   9.257   3.209 -0.0755  0.0699 -0.1106
11818W        W27892  15.502   9.106   9.985 -0.0589  0.0418  0.0441
11819W        W27893  11.147  13.054   4.209  0.0728 -0.1256 -0.1730
11820W        W27894  14.474  11.471  12.629  0.1021 -0.0200  0.0592
11821W        W27895   0.762   3.501  10.909 -0.0745  0.0754  0.0200
11822W        W27896  12.766   4.453   3.785 -0.1057 -0.4356 -0.3518
11823W        W27897   0.708   0.481   2.102  0.1378  0.0063 -0.3488
11824W        W27898   4.398   4.465  14.633  0.0916  0.2709  0.2327
11825W        W27899   0.896  12.396   5.387  0.0162 -0.3756  0.3747
11826W        W27900  14.363  11.691   4.728  0.1047  0.0241  0.1476
11827W        W27901   9.277   9.846   0.071 -0.2277 -0.2234  0.2534
11828W        W27902  13.741   2.494   3.343 -0.0504  0.0659  0.2602
11829W        W27903   3.563   9.884   3.886 -0.0760 -0.0209 -0.1681
11830W        W27904   6.524  11.264   5.381 -0.1045 -0.2226 -0.2709
11831W        W27905   5.589  15.634   4.351 -0.3704  0.3862 -0.1938
11832W        W27906  17.805  15.241   3.863 -0.1661  0.0056  0.4217
11833W        W27907   7.963  15.290   3.020  0.0959 -0.1877 -0.0965
11834W        W27908   6.260  11.808   5.285 -0.3208 -0.0127 -0.0190
11835W        W27909  12.832  16.034   4.433 -0.1099 -0.1301 -0.0893
11836W        W27910  17.586  10.521  13.166 -0.3746  0.1455 -0.3614
11837W        W27911  12.924  11.709   3.663  0.2187  0.4084 -0.0818
11838W        W27912  17.390  15.823  11.288 -0.3981 -0.1694  0.0546
11839W        W27913   0.979   5.063  15.616  0.1553  0.2983 -0.1545
11840W        W27914   0.259  13.475   5.057  0.0107  0.0607 -0.3373
11841W        W27915   9.618  11.034   0.135 -0.0935  0.2174  0.2572
11842W        W27916  13.685  11.443   6.140 -0.3411 -0.3206  0.1332
11843W        W27917  11.630  18.085   3.490  0.3852 -0.1295  0.0609
11844W        W27918  14.228   3.657   1.981  0.0572  0.0383 -0.0336
11845W        W27919   6.567   6.884  12.563  0.0191 -0.0773 -0.0179
11846W        W27920   7.922  14.759   3.767  0.2498  0.1777  0.1502
11847W        W27921  11.229   3.252   4.072  0.1201 -0.1020  0.0577
11848W        W27922   4.228   6.938  13.184  0.1889  0.2029  0.0300
11849W        W27923   8.520   3.595   2.647  0.0517 -0.0885 -0.2263
11850W        W27924  11.854   1.141  11.238 -0.1802  0.1158  0.1733
11851W        W27925  13.378  10.456   1.467  0.0100  0.2581  0.0251
11852W        W27926   1.998   7.355  13.518 -0.0746 -0.0988 -0.1403
11853W        W27927   6.789  14.045   4.596  0.4068 -0.2939  0.1871
11854W        W27928  10.039   4.439  12.005 -0.3010  0.1043  0.0508
11855W        W27929  12.424  15.275   3.729  0.0181  0.0326 -0.1929
11856W        W27930  13.865   1.400  15.929 -0.2169  0.0794  0.1841
11857W        W27931   8.404  13.923  15.720 -0.1867  0.2174  0.0089
11858W        W27932   2.170   4.441   0.293  0.1676 -0.3385 -0.1981
11859W        W27933  11.029   4.977   1.957  0.1317  0.0437  0.3315
11860W        W27934  10.585   9.784   1.393  0.4271  0.0198 -0.1392
11861W        W27935  11.682  17.470   4.270 -0.0074  0.0878  0.1807
11862W        W27936   0.765   6.658  11.307 -0.3410  0.0262 -0.1755
11863W        W27937   9.982  10.588  12.520 -0.2490 -0.4354 -0.3191
11864W        W27938   9.975  16.415   3.291  0.0200 -0.2218 -0.4373
11865W        W27939  18.020   4.639  13.271  0.0294 -0.2023  0.0667
11866W        W27940   0.116   8.367   5.626 -0.1849 -0.0697  0.3972
11867W        W27941   3.534  17.797  12.040  0.0797  0.3896  0.0268
11868W        W27942   0.694   2.087  14.265 -0.0430 -0.0970 -0.2984
11869W        W27943  16.060   7.524   1.751  0.0468  0.0782 -0.3597
11870W        W27944   7.249   4.352   3.218 -0.2227  0.1363 -0.0137
11871W        W27945  14.098   5.097   0.850 -0.1571 -0.2636 -0.1064
11872W        W27946  10.228  13.978  12.501 -0.2077  0.0414 -0.1637
11873W        W27947  16.358  11.958   1.289  0.3648  0.1469  0.0870
11874W        W27948   8.231   2.904  14.385 -0.3312 -0.1138 -0.0021
11875W        W27949   2.985   0.937   3.537  0.3394  0.0890 -0.1636
11876W        W27950   0.941   2.921  15.938 -0.2323 -0.1525 -0.0128
11877W        W27951  18.138   7.013  15.439 -0.0996 -0.2721  0.1017
11878W        W27952   2.980   4.324  15.448 -0.0501 -0.0626  0.0450
11879W        W27953   6.260  16.229  15.297 -0.0969 -0.2539 -0.0586
11880W        W27954   6.116   4.372  11.527  0.0566 -0.1538 -0.0987
11881W        W27955   5.432  14.458   4.766  0.1626  0.1483  0.0040
11882W        W27956  18.090   4.457   1.235  0.1862  0.2231 -0.2493
11883W        W27957   9.956   8.435   2.227 -0.1719  0.0217  0.1301
11884W        W27958  13.325  12.686   4.263 -0.0603  0.0792 -0.3352
11885W        W27959  13.186  15.825   1.096  0.2216 -0.0909 -0.0481
11886W        W27960  14.134   8.877  14.562 -0.0460 -0.0284 -0.0477
11887W        W27961  15.291  18.427  14.282 -0.0776  0.3182  0.0644
11888W        W27962  18.161   7.880  11.012  0.2470 -0.2756 -0.1291
11889W        W27963   8.285   0.385  11.797  0.0428  0.0124 -0.2946
11890W        W27964   3.923   5.703   3.806 -0.0237 -0.1686  0.0847
11891W        W27965  11.204  18.296  10.539  0.3921 -0.3234  0.2233
11892W        W27966  10.847  15.128   2.726  0.4617 -0.0102 -0.4459
11893W        W27967   9.590   0.928  14.089 -0.1763 -0.2931  0.2483
11894W        W27968   4.340  17.218  11.866  0.1079 -0.1084 -0.0357
11895W        W27969   5.864   9.890   0.323  0.1353 -0.1240  0.0295
11896W        W27970   2.593   3.900  10.980  0.1573 -0.1058 -0.4399
11897W        W27971  15.599   2.826  10.823 -0.1200  0.3061  0.1316
11898W        W27972  14.234   6.120   1.585 -0.0499 -0.3451  0.3289
11899W        W27973   2.235  11.932   0.725 -0.0366 -0.1420  0.0729
11900W        W27974   9.768  17.307   2.776  0.0749 -0.1929  0.0534
11901W        W27975   9.229   6.727   0.180  0.2508  0.0331 -0.0304
11902W        W27976  11.545  15.629   3.971 -0.2663 -0.0893  0.3633
11903W        W27977   8.720   4.285  11.387 -0.0930  0.1815  0.2161
11904W        W27978  17.872   9.682   4.346 -0.0259  0.1082 -0.0432
11905W        W27979  15.954  18.094   5.526 -0.1711  0.4466 -0.0517
11906W        W27980   0.135   7.018   4.311 -0.0664 -0.1820  0.0258
11907W        W27981  18.477  17.586   0.395 -0.3244  0.2218 -0.2078
11908W        W27982   1.453   7.608  15.164 -0.1357  0.1070  0.1306
11909W        W27983  14.378  12.005   2.547  0.0620  0.2772 -0.0368
11910W        W27984  17.103   0.303  15.561  0.1406 -0.2467 -0.3093
11911W        W27985  10.778  15.042  15.694 -0.1080 -0.0567 -0.0316
11912W        W27986   5.591   6.456   1.275 -0.3514  0.1214  0.0938
11913W        W27987  10.012  13.068   3.649 -0.1753 -0.1788  0.4280
11914W        W27988   3.594  15.623  11.430 -0.3143 -0.0609  0.2567
11915W        W27989  14.554  12.654   0.340  0.0687  0.0094 -0.3555
11916W        W27990  17.809   4.794  14.449  0.0950  0.0308 -0.1207
11917W        W27991  17.866   7.259   4.226 -0.1404  0.3069 -0.2194
11918W        W27992   2.395  15.229   5.604 -0.3692  0.2420  0.2208
11919W        W27993   3.025   3.219  13.219  0.1517 -0.0642 -0.0013
11920W        W27994  12.029   7.522   5.285  0.1392 -0.3445 -0.0887
11921W        W27995  14.462   2.146   4.431 -0.1598 -0.0699  0.2259
11922W        W27996   3.640  11.777  11.543 -0.1900  0.2391  0.0881
11923W        W27997   7.121   7.336  11.891 -0.1090 -0.0092 -0.2389
11924W        W27998   8.570  18.407  14.836  0.4750  0.1152 -0.1664
11925W        W27999  18.559   7.297   0.185 -0.1774  0.2953  0.2502
11926W        W28000  12.457   1.541   2.822  0.3290 -0.1663  0.2888
11927W        W28001  10.903  15.788  11.528  0.0134  0.0066  0.2418
11928W        W28002   4.032   8.772   4.580  0.3843 -0.0287 -0.0037
11929W        W28003  14.167  16.203  12.128 -0.0337  0.5921  0.1567
11930W        W28004  13.374   9.858   4.310  0.0729  0.1786  0.1332
11931W        W28005   9.099  17.121   4.378 -0.0885 -0.0725 -0.1854
11932W        W28006   6.672   4.264  10.899 -0.0622  0.2463  0.0992
11933W        W28007  11.155   4.884  11.496  0.2651  0.0730 -0.2978
11934W        W28008   7.073   4.579  11.522 -0.0602  0.2389 -0.1023
11935W        W28009  18.540  15.197  14.490  0.0090 -0.1280  0.0186
11936W        W28010   0.929  18.111   2.943 -0.1997 -0.0859  0.0877
11937W        W28011  16.741  15.104   4.450 -0.1961 -0.0365 -0.1877
11938W        W28012  16.573  11.352  15.614 -0.1057  0.1038  0.2166
11939W        W28013   5.958   2.627  15.516 -0.2393 -0.3382  0.1847
11940W        W28014   9.164   8.920  12.164 -0.0924 -0.0547  0.2634
11941W        W28015  10.136   0.899   0.069  0.0255 -0.0546  0.1011
11942W        W28016   8.559   3.823   3.820 -0.0542 -0.1949 -0.1584
11943W        W28017  12.253  14.063   1.444 -0.0872 -0.2101  0.1079
11944W        W28018   8.914   3.682  11.717  0.1167 -0.0008 -0.0910
11945W        W28019  14.823   1.842  12.246 -0.1593  0.0707  0.2836
11946W        W28020  15.821  13.568   1.266  0.2173  0.3398 -0.1067
11947W        W28021   0.241   2.061   1.850  0.0285  0.1136  0.1991
11948W        W28022   0.898  11.040  14.963  0.0945  0.2406 -0.0475
11949W        W28023  11.252   0.421  13.538 -0.1877  0.1807  0.2404
11950W        W28024  15.012   9.548   1.185 -0.2995 -0.0993  0.0697
11951W        W28025   7.016   4.785  13.310 -0.1550  0.0118 -0.0964
11952W        W28026  17.573  15.288  11.261 -0.0402  0.0535  0.0222
11953W        W28027   1.158  14.003  11.863  0.0317  0.1809  0.0231
11954W        W28028   8.450   8.913   1.800  0.1301  0.0490  0.1176
11955W        W28029  17.241   0.719  10.966  0.1743 -0.2887 -0.0228
11956W        W28030   9.507  12.847  12.402  0.0520 -0.0496  0.0578
11957W        W28031  16.016   5.532  15.460 -0.1114  0.3131 -0.3035
11958W        W28032   5.952  16.881   4.893  0.0948 -0.0115 -0.0369
11959W        W28033  11.703   4.018   4.559  0.1003 -0.1290  0.1517
11960W        W28034   5.134  13.583  12.003  0.0522  0.1807 -0.0203
11961W        W28035  10.360   5.782   3.923  0.1621  0.2700 -0.0786
11962W        W28036  10.220   6.259  11.635 -0.0100 -0.0359  0.2556
11963W        W28037   0.940   4.770   4.384  0.2241 -0.1500  0.0141
11964W        W28038   4.901   0.528   4.700 -0.3292  0.0653  0.3030
11965W        W28039   5.021   3.592   1.624  0.0646  0.0547 -0.0204
11966W        W28040   0.608   2.630   1.152 -0.1479 -0.1053  0.0446
11967W        W28041  12.164  14.258   3.942  0.1000 -0.1724 -0.0459
11968W        W28042   5.862   1.790   5.305  0.0574  0.1892 -0.2488
11969W        W28043  12.472   4.898   3.179  0.0947 -0.1049 -0.0653
11970W        W28044  12.809   5.179   2.800  0.0728  0.1253 -0.2510
11971W        W28045   2.853  10.384  11.534 -0.0863 -0.0728 -0.1580
11972W        W28046   6.497  17.873   4.610  0.1081 -0.1819 -0.0749
11973W        W28047  14.379   4.751  14.283 -0.2110 -0.2255  0.1614
11974W        W28048   0.439  11.419  13.575  0.6003  0.0163  0.1513
11975W        W28049   1.192   9.680  14.805 -0.0932 -0.1746 -0.1105
11976W        W28050   6.911   1.373  14.837  0.0214  0.0187  0.2550
11977W        W28051   8.261  13.652   3.127 -0.2627 -0.1576  0.1363
11978W        W28052   9.595   4.712   3.592  0.1896  0.2456 -0.1168
11979W        W28053   2.288   4.473   2.147 -0.0979 -0.2477 -0.0356
11980W        W28054  14.548   2.854   0.669  0.0345 -0.0344 -0.2257
11981W        W28055  14.098   4.586   0.743  0.0921  0.0878 -0.0589
11982W        W28056   1.305   4.169   1.130 -0.1006 -0.0756  0.0546
11983W        W28057  12.427   4.955  12.175  0.0941  0.1868  0.4707
11984W        W28058   1.729  11.265  13.005 -0.0061  0.0353 -0.3634
11985W        W28059   3.755   2.519  15.531 -0.1218  0.0081 -0.1999
11986W        W28060   1.269  15.038  15.238  0.1979  0.0157  0.0142
11987W        W28061  12.604   7.717   4.579  0.0519  0.0683 -0.1870
11988W        W28062   9.611   7.746   2.722 -0.0499  0.1978  0.3300
11989W        W28063  15.039   8.747  15.763 -0.0944 -0.0255  0.3948
11990W        W28064   5.848  11.436   3.481 -0.2706  0.1938  0.1854
11991W        W28065  10.285  10.959   0.036  0.1543 -0.5476  0.1106
11992W        W28066  17.978  14.941   6.827  0.1324  0.0738  0.1654
11993W        W28067   4.584   1.117   1.278  0.1721  0.0584  0.2059
11994W        W28068  11.569  17.195  10.665 -0.0083  0.2827 -0.2563
11995W        W28069  11.501   7.239  13.881 -0.0910  0.0619  0.1473
11996W        W28070  12.773  15.621   3.094 -0.2950  0.3127  0.0036
11997W        W28071  17.938  16.853   4.296 -0.0103 -0.2008 -0.0015
11998W        W28072  13.014   3.824  13.140 -0.0763  0.0591 -0.0367
11999W        W28073  10.177   4.852  11.697  0.1997 -0.2229  0.0870
12000W        W28074   8.048   0.135   1.133  0.0350  0.1797 -0.2054
12001W        W28075  13.483   4.503  14.409  0.0145  0.3512  0.0143
12002W        W28076  17.725  12.534   1.975  0.2830  0.0732 -0.0926
12003W        W28077   8.150  16.452  11.381  0.0144  0.1412 -0.0157
12004W        W28078  12.068  13.684   4.189  0.0336  0.0023 -0.1704
12005W        W28079  17.818  15.082  13.374  0.0465  0.0476 -0.2245
12006W        W28080  18.065   3.992  11.448  0.0987 -0.0863  0.0460
12007W        W28081  12.209   5.577   3.675 -0.1190  0.1832  0.1056
12008W        W28082   4.346   6.542   0.226  0.0232 -0.3319  0.0298
12009W        W28083  11.475  16.867   4.415 -0.2208 -0.2875  0.0755
12010W        W28084   1.139   4.192   5.040 -0.1039  0.3848 -0.1092
12011W        W28085  18.508   3.612   9.978 -0.3872 -0.1699  0.0902
12012W        W28086   5.805   6.358   0.838 -0.0985 -0.0683  0.0831
12013W        W28087  16.592   2.658  14.786  0.0542 -0.0162 -0.0678
12014W        W28088   4.596  18.117  12.910  0.0234 -0.0018  0.0059
12015W        W28089   2.151  16.558   4.299  0.1331 -0.1650 -0.2122
12016W        W28090  14.628   6.297  14.180 -0.1596 -0.0745 -0.0772
12017W        W28091   5.772   9.708  10.298 -0.3188 -0.1905  0.1184
12018W        W28092  10.939  17.469  11.408 -0.0179  0.0738  0.2324
12019W        W28093  10.970   0.848  11.150 -0.1942  0.0885  0.2738
12020W        W28094   7.460   3.496  12.926 -0.2629  0.4216 -0.1806
12021W        W28095   2.977  15.617  15.944 -0.0931 -0.0202 -0.1221
12022W        W28096   5.733  16.153   5.220 -0.3741 -0.1570  0.0827
12023W        W28097   6.785  15.647   4.479 -0.0303  0.0014  0.0247
12024W        W28098  12.520  10.781  11.548 -0.0571 -0.2316  0.0533
12025W        W28099  13.220  13.606   2.791 -0.1679  0.1616 -0.0827
12026W        W28100   9.313  13.449   3.941 -0.1557 -0.1260 -0.0175
12027W        W28101   6.732  17.622   1.843  0.0718  0.0102 -0.0520
12028W        W28102  12.257   3.548   0.189  0.2261  0.1789 -0.1001
12029W        W28103  12.123  13.859   3.140  0.2454  0.3485  0.0292
12030W        W28104  17.047  11.885   1.970 -0.1027  0.1144 -0.1572
12031W        W28105  17.839  11.429   3.927 -0.1485 -0.0558 -0.2516
12032W        W28106  10.929   2.668   0.621 -0.0973 -0.1379  0.0312
12033W        W28107   7.403   0.101  14.462 -0.1829 -0.1717  0.0148
12034W        W28108   4.988  14.459  15.034  0.0380  0.0703 -0.0436
12035W        W28109   2.338   1.647  14.364 -0.1163 -0.1970  0.2141
12036W        W28110   6.040   5.105  15.415 -0.2207 -0.0827  0.3959
12037W        W28111   9.784   4.224  14.185 -0.1757  0.0266 -0.0060
12038W        W28112  13.305  11.324  10.927  0.3305  0.0061 -0.3115
12039W        W28113   8.992   2.852  12.772  0.0124 -0.0087  0.2698
12040W        W28114   5.932   3.651   1.001 -0.2462  0.1394  0.1624
12041W        W28115  13.609  15.375   4.175 -0.3526  0.3975 -0.3610
12042W        W28116   6.465   9.762  15.296  0.1547  0.2197  0.1877
12043W        W28117   3.563  14.535  12.181  0.2089 -0.1046 -0.0895
12044W        W28118   9.024   8.185  14.335  0.3458 -0.1476 -0.1395
12045W        W28119   3.838   1.986   6.052 -0.0801 -0.1606  0.1185
12046W        W28120   8.705   8.176   5.458  0.2448  0.1726  0.4516
12047W        W28121   1.470   6.830  14.252  0.2577 -0.1800  0.0170
12048W        W28122   4.780  13.953  11.835  0.1226  0.0995 -0.0403
12049W        W28123   7.729  15.327  15.915 -0.0155  0.0885  0.0872
12050W        W28124   9.168   8.639   3.937  0.0388  0.0879 -0.3599
12051W        W28125   9.413  14.062  12.350 -0.2255  0.2532  0.3875
12052W        W28126   8.850  14.407   4.173 -0.0726 -0.0816  0.3782
12053W        W28127   2.355  11.299   5.297 -0.0892  0.2986 -0.2987
12054W        W28128   1.834  18.552  10.780 -0.0084  0.0819  0.1334
12055W        W28129   6.612   5.341  14.045  0.0868 -0.1357 -0.2632
12056W        W28130   1.457  10.957   2.388  0.0740  0.3136  0.0064
12057W        W28131  10.158   6.375   2.020 -0.0743 -0.2936  0.3943
12058W        W28132  13.961   9.540   2.118 -0.0325 -0.0112  0.0581
12059W        W28133  13.015   7.063   0.225  0.0556  0.2263 -0.0410
12060W        W28134  17.909  13.217   4.803  0.0301  0.3959 -0.0166
12061W        W28135  13.341   0.961  11.576 -0.1542 -0.0362  0.3454
12062W        W28136  18.029  18.176   1.449  0.1333  0.0179 -0.0095
12063W        W28137   7.170  12.085  13.942  0.1772 -0.0276  0.0001
12064W        W28138   6.854   2.639  13.828 -0.1876  0.0442  0.0226
12065W        W28139   0.593  17.727  15.245 -0.0554  0.2328  0.1802
12066W        W28140  11.598   2.377   4.205 -0.0299  0.1869 -0.4164
12067W        W28141  14.193  13.939  15.950  0.0799  0.3004 -0.6232
12068W        W28142  10.062  11.117  11.713  0.0600  0.0940 -0.1158
12069W        W28143   5.586  16.722   2.045  0.0832  0.2009 -0.1474
12070W        W28144  13.890   6.749  12.569 -0.4464  0.1704  0.1628
12071W        W28145   8.006   1.762   4.501  0.2417 -0.1658  0.4366
12072W        W28146  18.396  14.977  11.845 -0.0611  0.0505 -0.1714
12073W        W28147  11.077   3.619   3.779  0.0902 -0.3459  0.1170
12074W        W28148   9.676  11.619   3.449  0.0011  0.0591  0.3232
12075W        W28149   4.172  14.478  13.977 -0.0238 -0.0354  0.1493
12076W        W28150   7.706   7.142  12.642  0.3618 -0.0530  0.2560
12077W        W28151  12.851  18.497   1.657  0.1321  0.0571  0.0228
12078W        W28152   5.096  16.817   2.001 -0.0458 -0.1551 -0.3931
12079W        W28153   4.271   4.568  15.609  0.0220  0.0329  0.0929
12080W        W28154   6.265   5.998  11.491 -0.3857  0.1704 -0.0532
12081W        W28155   0.547   2.108   1.038 -0.1335 -0.0327  0.2362
12082W        W28156   6.588   7.339  12.860  0.0023  0.3984 -0.4178
12083W        W28157   9.769   5.175   0.315 -0.2370  0.0011  0.1869
12084W        W28158   6.247   1.718  15.054  0.1713  0.2047  0.0019
12085W        W28159   8.557  14.217   5.050 -0.0776 -0.1758 -0.0542
12086W        W28160   6.521   0.859   1.110 -0.1611 -0.0815  0.1823
12087W        W28161  10.196  10.707   2.737 -0.3957 -0.1426  0.0959
12088W        W28162   8.323   0.293   2.178  0.1511 -0.0750 -0.0098
12089W        W28163   2.833   4.023  12.706 -0.1072  0.2251  0.1251
12090W        W28164  16.859  14.502   6.133  0.3323 -0.3745  0.1653
12091W        W28165  12.031  17.051  14.363 -0.1817 -0.2093 -0.1465
12092W        W28166   0.449  15.080   2.857  0.0886  0.0868  0.0647
12093W        W28167  11.437   4.797   6.108  0.0089 -0.2317  0.1366
12094W        W28168   0.937  11.715   1.393  0.0120  0.3925 -0.3842
12095W        W28169  15.596  10.967  13.154  0.0072  0.0003  0.0419
12096W        W28170  15.600  15.671  12.510  0.2062 -0.1141  0.0521
12097W        W28171   6.428  11.566  11.132  0.1127  0.4678  0.2472
12098W        W28172   3.935   7.124  12.830 -0.0284  0.0454 -0.2100
12099W        W28173  10.803   9.842  12.640 -0.3569  0.0227  0.2917
12100W        W28174   0.534   8.426   0.499  0.1352  0.2467  0.0572
12101W        W28175  10.620   9.726   4.211  0.2491  0.2478  0.3628
12102W        W28176   6.310   0.868  13.297 -0.0600  0.0969 -0.0752
12103W        W28177  11.764   5.640  15.733  0.1267 -0.1310 -0.2812
12104W        W28178  16.831   1.128  15.772 -0.2979 -0.0267  0.1156
12105W        W28179  11.520   6.025  15.091  0.0626  0.1438  0.0971
12106W        W28180   5.661  15.893   3.334 -0.1271  0.2214 -0.3096
12107W        W28181  17.271   4.881  14.647  0.0373  0.2388 -0.0361
12108W        W28182   8.078  15.185  12.943  0.4501 -0.2272 -0.3278
12109W        W28183  17.237  15.278   3.054 -0.1365  0.0097 -0.2628
12110W        W28184   9.446   7.126   5.579 -0.0964  0.0019  0.0968
12111W        W28185   3.261  12.448   4.419 -0.2356  0.2299 -0.0285
12112W        W28186   4.990  11.082   0.910 -0.3375  0.2818 -0.0515
12113W        W28187   6.494  13.691  14.967  0.1106 -0.2917  0.3601
12114W        W28188   7.989  16.266   1.856  0.0923 -0.2571  0.2318
12115W        W28189  11.337   2.479   1.762 -0.1170 -0.1383  0.0122
12116W        W28190  15.148   8.509  13.444 -0.1592  0.0280  0.2633
12117W        W28191  15.583  16.922   0.063  0.0158 -0.1531  0.1326
12118W        W28192   3.062  11.618   1.785  0.2636 -0.1715  0.1362
12119W        W28193   6.554  18.488   3.069 -0.0684  0.1254  0.2321
12120W        W28194  10.837  10.704  15.307  0.0379  0.5605  0.0054
12121W        W28195   3.520   6.162   1.501  0.1241 -0.0259  0.3639
12122W        W28196   4.427  14.793  13.386 -0.1771  0.3988 -0.0219
12123W        W28197   3.656   4.193  11.859 -0.1004 -0.0270 -0.0847
12124W        W28198   7.918   0.168  12.253 -0.2239 -0.0988 -0.3171
12125W        W28199  13.279   9.911   1.552 -0.2645  0.2052  0.0214
12126W        W28200  14.092  10.625   1.445 -0.0047  0.0668 -0.1135
12127W        W28201  16.454   1.718   5.353  0.0576  0.0970 -0.1583
12128W        W28202   9.934   9.431   1.194 -0.0542  0.0115  0.0798
12129W        W28203   0.931   6.427   0.508 -0.3117 -0.2830  0.1777
12130W        W28204  10.412   9.392   0.212  0.0619  0.1755  0.1062
12131W        W28205   3.065   0.570   0.710 -0.0611  0.1155  0.2016
12132W        W28206  11.989   4.312  14.782 -0.4717 -0.0637  0.1372
12133W        W28207  15.682  16.430   2.064  0.1243 -0.0844 -0.0034
12134W        W28208  10.310   5.353   4.607 -0.0305 -0.2014 -0.3622
12135W        W28209  17.331   5.449  12.568 -0.0921  0.1598  0.2907
12136W        W28210   5.112  14.147  15.454  0.0752  0.3259  0.1139
12137W        W28211   8.362   8.137  13.486  0.1386  0.4676 -0.0825
12138W        W28212   3.274   4.756  15.423  0.0887  0.1230  0.3685
12139W        W28213   3.349  17.213   5.721  0.0097  0.1607  0.1264
12140W        W28214  17.929  10.813   0.322  0.1922  0.1482 -0.0240
12141W        W28215   5.630   5.792  12.933  0.2505  0.1198  0.0140
12142W        W28216   0.156   9.244  13.243  0.2728  0.0882  0.4023
12143W        W28217   0.004   7.335   2.462 -0.1988  0.1266  0.0907
12144W        W28218  18.555  11.586   4.656 -0.1945  0.0026 -0.2539
12145W        W28219   8.865  12.076   0.131  0.2605 -0.3187 -0.1883
12146W        W28220   1.528   0.293   1.276 -0.0628 -0.0427 -0.0613
12147W        W28221   5.145  14.807   1.157 -0.1921 -0.0741  0.0425
12148W        W28222  11.006   4.393   1.902  0.2674 -0.2105  0.1764
12149W        W28223  14.061   2.309   2.709  0.2119  0.0060 -0.0367
12150W        W28224   1.985   8.770  15.972  0.2803  0.0317 -0.0424
12151W        W28225   0.333   2.571  13.197 -0.1372  0.1019 -0.0317
12152W        W28226   0.638  12.489   4.234 -0.2282 -0.1449 -0.1732
12153W        W28227   8.975   1.746  11.495 -0.0588  0.1919  0.0304
12154W        W28228   8.275  11.751  15.009  0.2543 -0.0060  0.0314
12155W        W28229   3.201   1.405  14.615  0.1517 -0.2640 -0.1646
12156W        W28230  15.031   8.301  15.509  0.1648 -0.1745 -0.0071
12157W        W28231  14.863  13.574  15.257  0.0229 -0.2799 -0.0845
12158W        W28232  16.046  12.863   4.946  0.0213 -0.2718  0.2628
12159W        W28233   9.185  11.537  15.461 -0.1104 -0.2291  0.3636
12160W        W28234  15.449  18.429   2.869  0.1229 -0.0182 -0.0236
12161W        W28235   1.770   7.997   1.259  0.3559  0.1490 -0.1800
12162W        W28236  16.792   7.110  11.324  0.2207  0.1306  0.2407
12163W        W28237   5.134   1.324  15.256  0.2848 -0.0188  0.1864
12164W        W28238  11.016   3.862  11.222 -0.0501  0.0097  0.4970
12165W        W28239   9.324   8.883  11.317  0.0765 -0.2371 -0.0779
12166W        W28240   3.542   9.103   1.868  0.1391 -0.3279 -0.0328
12167W        W28241  10.810   3.947   1.198  0.1393 -0.2249  0.0502
12168W        W28242   6.611   8.155   3.085 -0.0001 -0.0006  0.0806
12169W        W28243   1.987   9.455  13.710 -0.2205  0.0437  0.2286
12170W        W28244   8.260   5.769  12.052  0.0263 -0.2603 -0.0151
12171W        W28245   3.148  12.765   3.008 -0.0684 -0.1141 -0.0680
12172W        W28246  12.446   5.915   4.300  0.0098 -0.0768  0.1982
12173W        W28247   3.224   0.581   1.276 -0.1539  0.0443  0.0705
12174W        W28248  11.779  14.840   2.235  0.0142  0.3552  0.0640
12175W        W28249   2.330  15.731   5.833 -0.1135  0.0815 -0.3974
12176W        W28250  16.034   4.246   3.114  0.1107  0.0423 -0.1761
12177W        W28251   8.742  13.168  11.799  0.1875 -0.0504 -0.0899
12178W        W28252  11.736  11.289   3.795 -0.0471  0.2436  0.3157
12179W        W28253   4.158  18.197   1.217  0.2164 -0.0886 -0.0611
12180W        W28254   5.438  16.769   2.584 -0.0147  0.0772 -0.0635
12181W        W28255  14.770   7.476   0.423  0.0160  0.0850  0.2113
12182W        W28256  11.682  17.229   0.952  0.0851 -0.0638 -0.0702
12183W        W28257  16.488   2.930   3.848 -0.3140 -0.3265 -0.2468
12184W        W28258   3.904  16.216   4.162  0.6582  0.0359  0.2407
12185W        W28259   4.913   0.668  10.779 -0.4867 -0.1813  0.1184
12186W        W28260  18.195   1.397   4.744 -0.1980 -0.0191  0.0714
12187W        W28261   8.754   0.100  14.443  0.2089 -0.2343  0.0142
12188W        W28262  11.723   7.353   3.178 -0.0421 -0.0538 -0.0297
12189W        W28263  15.667  12.041   1.820 -0.2215  0.0394 -0.2809
12190W        W28264  15.210   3.433   2.934  0.2270 -0.2399  0.1864
12191W        W28265  15.457   7.032  15.798  0.0454 -0.0695 -0.0305
12192W        W28266   9.336   5.665  11.047 -0.0723 -0.0470 -0.5018
12193W        W28267   0.654  11.235  12.400 -0.2737  0.0062  0.2300
12194W        W28268  15.912  14.386  13.197  0.4946 -0.0032  0.1564
12195W        W28269  12.215  16.794  13.022  0.1530  0.0721 -0.1438
12196W        W28270   1.305  14.042   1.202  0.2393  0.1213  0.0045
12197W        W28271  11.073  17.534  10.844 -0.3491  0.1025  0.3144
12198W        W28272   0.066   1.148   4.875 -0.2707  0.0273  0.0236
12199W        W28273  17.652  17.198   1.223 -0.0440 -0.1502  0.2518
12200W        W28274  10.291   0.045  15.842 -0.1483  0.0495 -0.1897
12201W        W28275   8.666   9.314  11.615 -0.2838 -0.0787  0.1014
12202W        W28276  12.344  10.469  15.041 -0.4454  0.0869  0.0001
12203W        W28277   7.959   4.868   2.642  0.0359 -0.0359  0.1463
12204W        W28278   9.938  14.686   1.176  0.0852  0.1816 -0.0087
12205W        W28279   6.211  10.768  13.003 -0.2913  0.3147  0.2325
12206W        W28280   3.072   5.077  10.891 -0.2600  0.0538  0.1612
12207W        W28281  13.702   7.117   4.806 -0.2547  0.3493 -0.0282
12208W        W28282  17.353   8.544   2.987 -0.2005 -0.1411 -0.1107
12209W        W28283   4.492  13.593  12.833 -0.3787 -0.0606 -0.2362
12210W        W28284  15.813  17.623   1.849 -0.2001 -0.0477  0.0542
12211W        W28285   1.915  11.855   3.059 -0.5210 -0.1416  0.5375
12212W        W28286  15.896   0.406  12.600 -0.0433 -0.1731  0.1176
12213W        W28287  15.473   4.232  14.504  0.1163  0.1132  0.2270
12214W        W28288  11.732  14.825   2.741  0.2248  0.3255  0.3085
12215W        W28289   6.213  10.581  14.360 -0.0667  0.1567 -0.3696
12216W        W28290  17.636   0.679  12.005 -0.2838  0.0788 -0.0545
12217W        W28291   8.323   3.407  15.932  0.1200  0.2640  0.1518
12218W        W28292  13.630   0.980  15.513 -0.1561  0.3735 -0.2893
12219W        W28293   8.384   1.131  13.437  0.2798 -0.0317  0.0744
12220W        W28294  14.204   7.677  12.581 -0.2442 -0.1441  0.0515
12221W        W28295  12.305   6.534  14.561 -0.1061 -0.1974  0.2790
12222W        W28296   2.291  18.470   5.436  0.2040  0.1933 -0.0707
12223W        W28297   0.319   6.451  13.430  0.5404 -0.0816  0.1084
12224W        W28298  14.404  18.028  12.640 -0.2305  0.0104  0.0922
12225W        W28299   3.143  18.080   1.424  0.3778 -0.0567  0.4055
12226W        W28300  17.354  12.084   5.026 -0.0624 -0.0424  0.0513
12227W        W28301   2.087  12.881   2.842 -0.0492 -0.4425 -0.2383
12228W        W28302   3.358   1.724   2.281  0.2278  0.0113  0.2704
12229W        W28303   2.794  18.387  15.666 -0.4244  0.0374  0.1726
12230W        W28304  14.644   1.452  13.383 -0.0606 -0.3382 -0.0119
12231W        W28305   3.681  14.901  14.609 -0.0577  0.0216 -0.3162
12232W        W28306   4.902   0.667   0.462 -0.4066 -0.1184  0.0318
12233W        W28307   5.690   3.288   2.964  0.0232 -0.2743 -0.0663
12234W        W28308   2.231   9.262   1.822 -0.1654 -0.2654  0.2189
12235W        W28309   8.910  16.554   4.019 -0.4300 -0.0511 -0.0231
12236W        W28310  10.228  17.093  14.781 -0.0695  0.2059  0.2478
12237W        W28311   7.258  15.762   4.440  0.1097 -0.2589  0.0986
12238W        W28312  16.911  10.773  13.745 -0.0771  0.1645 -0.1195
12239W        W28313   5.583   1.118  14.360  0.1300  0.2637 -0.1138
12240W        W28314   0.893   6.302  13.566  0.0387 -0.1009  0.1471
12241W        W28315  16.153  12.971   4.417 -0.2816  0.1913  0.0416
12242W        W28316  10.668  15.707  15.182 -0.4605  0.1985  0.3989
12243W        W28317   7.520  16.928   0.231 -0.1909  0.0772  0.0213
12244W        W28318   0.396   4.974  11.898 -0.0550 -0.2061  0.1624
12245W        W28319   0.722  14.503   3.702  0.3341  0.1340 -0.1354
12246W        W28320   0.931  17.904  12.212  0.0835 -0.0660 -0.1123
12247W        W28321   0.452  15.993   4.767 -0.3432  0.0931  0.0810
12248W        W28322  13.013  13.476   3.220  0.2668 -0.1496 -0.2785
12249W        W28323  18.181   1.516  12.179 -0.0632  0.4061  0.1794
12250W        W28324   6.438  16.210   2.238  0.0559  0.1329 -0.3032
12251W        W28325   5.961  14.752   4.439 -0.2222  0.0010 -0.1349
12252W        W28326  11.256  11.001  15.291 -0.0993 -0.3010 -0.0398
12253W        W28327   2.581  14.413   4.050 -0.0505 -0.1088  0.1467
12254W        W28328  17.775  14.564   3.236 -0.0505 -0.2159 -0.0959
12255W        W28329   7.315   4.989   1.932 -0.1886  0.1078 -0.0577
12256W        W28330   0.544  12.933  11.857 -0.0799 -0.0474  0.4085
12257W        W28331   0.969  15.133  13.694 -0.2211 -0.2747 -0.1088
12258W        W28332  10.874   2.792  12.929 -0.1251  0.0611 -0.1339
12259W        W28333  11.195  13.667   5.030 -0.1006 -0.0798  0.0599
12260W        W28334   0.536   0.918   2.902  0.3025  0.1097  0.3504
12261W        W28335   7.932  16.642  13.187  0.2089 -0.1211  0.0050
12262W        W28336   6.837  14.280  14.026  0.4690  0.3265 -0.1170
12263W        W28337  17.977   9.693   3.654 -0.0112 -0.1004  0.1016
12264W        W28338  10.038   3.978   2.362  0.3845  0.1805  0.1833
12265W        W28339   3.339  12.089   2.037  0.1008  0.0741  0.1000
12266W        W28340   3.333  13.591  12.901  0.2482  0.1857  0.0284
12267W        W28341  14.095   2.011  12.931  0.0516 -0.0815  0.0399
12268W        W28342  17.725   4.544   0.870  0.0327  0.0260 -0.2197
12269W        W28343   6.325   6.882   1.327  0.3627 -0.2032 -0.0981
12270W        W28344  15.220  13.036   3.235 -0.0247  0.1562  0.1578
12271W        W28345  11.019  13.165   4.677  0.1581  0.0306 -0.0172
12272W        W28346   0.825  16.416  12.930  0.2203 -0.0499 -0.1301
12273W        W28347  18.257  12.054   4.404 -0.1981 -0.0652  0.4255
12274W        W28348   8.810   3.632  15.082  0.3981 -0.0421 -0.0271
12275W        W28349   1.865   1.086   2.481 -0.0994  0.1864 -0.2703
12276W        W28350  11.578  12.567  14.848  0.1663  0.1925  0.2189
12277W        W28351   3.949   6.945  15.739  0.0154  0.3173 -0.2257
12278W        W28352   1.606   9.300  14.689  0.1678  0.3008 -0.1917
12279W        W28353  14.118   1.240  14.583  0.0926 -0.4361  0.1959
12280W        W28354   5.920  14.050   4.984 -0.0481  0.5098  0.0072
12281W        W28355  14.255   7.088   4.636  0.0192  0.0411  0.0569
12282W        W28356   4.438  14.275   0.142  0.1085 -0.1718 -0.0635
12283W        W28357   8.656  14.690   3.267 -0.2445  0.0277 -0.4634
12284W        W28358  16.057   4.873   2.654 -0.0641  0.0210  0.2686
12285W        W28359  10.878   5.773   4.026 -0.4267 -0.1161 -0.1121
12286W        W28360  12.230   6.865  13.634  0.0108 -0.2656  0.0436
12287W        W28361   2.292  11.825   3.931 -0.1850  0.0164  0.0878
12288W        W28362  14.547  12.019   0.983 -0.2474  0.0297 -0.3525
12289W        W28363  18.424   4.699   2.863 -0.1166  0.2443 -0.1067
12290W        W28364   1.570  14.373   4.898 -0.0829  0.0901 -0.0993
12291W        W28365  11.264  17.455   2.822  0.0637  0.1311  0.1734
12292W        W28366   5.770  15.987   2.763 -0.0357  0.0470  0.2077
12293W        W28367   3.563   2.227  12.978 -0.0387 -0.0029  0.2206
12294W        W28368   9.605   4.789  13.811  0.0674 -0.1997 -0.3510
12295W        W28369   7.908   2.844   2.562  0.2811 -0.2120  0.2865
12296W        W28370  17.911   5.181   1.210  0.1695  0.0618 -0.1612
12297W        W28371   9.771   1.091  12.278 -0.0524 -0.2396  0.1758
12298W        W28372   7.263   9.514   1.492  0.1714  0.2396 -0.1757
12299W        W28373  15.470   9.045  15.655 -0.1650  0.3358 -0.2371
12300W        W28374  11.462   5.410   3.215  0.1130 -0.0135 -0.1075
12301W        W28375   9.670   9.114   3.146 -0.3669  0.0569 -0.0216
12302W        W28376  11.365   9.129   4.181 -0.0166  0.1079  0.2191
12303W        W28377   5.570   7.904   3.899 -0.1642  0.0511 -0.2184
12304W        W28378  10.423   9.714   3.735 -0.0179  0.0210  0.1396
12305W        W28379   0.217  16.241   0.775 -0.0508  0.0494 -0.0963
12306W        W28380  12.690  12.715  13.178 -0.3791  0.2704  0.2126
12307W        W28381  15.592   5.590   4.222 -0.2599  0.2689 -0.1278
12308W        W28382   4.380   6.010   0.537 -0.1188  0.0415  0.2325
12309W        W28383   3.365   5.626   1.281  0.0729  0.0650 -0.2031
12310W        W28384   8.661  11.932   1.844 -0.0571  0.2635  0.0640
12311W        W28385   8.916  13.551   0.356  0.0020 -0.1085 -0.1782
12312W        W28386  17.938   6.590   6.043 -0.1453 -0.2741  0.0698
12313W        W28387  12.428   6.057   0.171 -0.0330  0.4097  0.1404
12314W        W28388   1.719   3.896  15.341 -0.2291 -0.0043 -0.0874
12315W        W28389   4.457   7.329  14.765  0.0145 -0.0095 -0.1597
12316W        W28390   5.038   9.486  12.083  0.2875  0.0458 -0.0634
12317W        W28391  17.100   4.472  14.940 -0.1523 -0.0046  0.0621
12318W        W28392   5.267   2.165  11.962  0.1935 -0.0884  0.1083
12319W        W28393   7.308  18.303   2.061  0.1638  0.1476 -0.2401
12320W        W28394  16.109   1.275  13.622 -0.0254 -0.2032  0.0453
12321W        W28395   5.125   8.408  12.934 -0.1060 -0.3521 -0.1520
12322W        W28396  16.263  14.618   5.434 -0.2497  0.1530  0.0083
12323W        W28397   0.065  11.253   5.084 -0.0800 -0.0945  0.0265
12324W        W28398  16.144   9.326   2.292  0.0382 -0.1689  0.3576
12325W        W28399  12.238  10.012  13.864 -0.1486 -0.1704  0.1803
12326W        W28400   7.797   8.375  15.380  0.0233 -0.1444  0.1852
12327W        W28401   3.844   7.863  15.277 -0.2060  0.3690 -0.1668
12328W        W28402   5.903   3.937  15.540 -0.2757 -0.0498 -0.0913
12329W        W28403   5.477   7.782   0.778  0.1993  0.0564  0.0880
12330W        W28404   4.016   0.788   2.816 -0.0622 -0.0274  0.0730
12331W        W28405   4.834  10.986   5.029  0.2029 -0.1449  0.1643
12332W        W28406  17.903   7.431  12.496 -0.1371  0.1446  0.0611
12333W        W28407   6.421  12.410  14.239  0.2392  0.0423  0.2500
12334W        W28408  14.737  10.349   2.608  0.2630 -0.4310  0.0269
12335W        W28409  15.433  10.253   3.698  0.1417  0.1061 -0.1083
12336W        W28410  14.392  10.340  12.631  0.0964 -0.0241  0.2044
12337W        W28411  15.815  11.579  12.855  0.2520  0.0244 -0.0425
12338W        W28412   8.902   7.000  12.407  0.2579 -0.1023 -0.0884
12339W        W28413   6.771   0.494   1.354 -0.0267 -0.2853 -0.1989
12340W        W28414  18.243  17.481  15.483  0.2509 -0.1960  0.1258
12341W        W28415   1.637   1.471   0.382 -0.0194  0.2929 -0.1770
12342W        W28416   1.173   1.712  11.183  0.0591 -0.0983 -0.2671
12343W        W28417   3.119   7.868   4.438 -0.1397 -0.0160  0.0478
12344W        W28418  14.603   9.510   0.845 -0.3503 -0.2425  0.1178
12345W        W28419  12.295   0.801   2.560 -0.0109 -0.3194  0.0053
12346W        W28420   1.679   8.389  14.970  0.1191  0.1184  0.2585
12347W        W28421   4.831  14.280   3.832 -0.1118  0.3445 -0.0744
12348W        W28422   4.037   3.533  10.890  0.1263  0.1604 -0.4115
12349W        W28423   2.026  12.377   2.690  0.0698  0.5570  0.2132
12350W        W28424   4.761   3.256  14.397  0.0965 -0.2157  0.0425
12351W        W28425   9.739   1.285   3.036 -0.1914  0.2960 -0.5352
12352W        W28426   5.928   7.573  13.517  0.1428  0.1496  0.0159
12353W        W28427  17.343  11.932   1.136 -0.1675  0.1286  0.0066
12354W        W28428  13.686   2.607  15.261 -0.0628 -0.3672 -0.1542
12355W        W28429   7.020  18.461   2.880  0.1773  0.2690 -0.1213
12356W        W28430   5.033   6.114  15.282 -0.0978 -0.0449  0.2163
12357W        W28431  14.196   9.919   5.622 -0.2458 -0.1504  0.2083
12358W        W28432   8.289  15.680  14.730  0.1796 -0.0162 -0.1804
12359W        W28433   1.283  17.679  15.919 -0.0298 -0.1306  0.0942
12360W        W28434   4.169  10.094  12.095 -0.0498 -0.0046 -0.1383
12361W        W28435  14.415  16.224  11.585  0.2541  0.0969  0.0408
12362W        W28436  12.537  13.396  11.801  0.0283 -0.1721 -0.1804
12363W        W28437  11.535   4.112  15.906 -0.1203 -0.0644 -0.1431
12364W        W28438   7.275   6.506   0.574 -0.0135  0.2676 -0.1208
12365W        W28439  16.407   7.465   1.399  0.1549 -0.0772  0.2459
12366W        W28440   1.385   7.023  11.992  0.1092 -0.1510  0.1535
12367W        W28441   3.028   1.009   0.454 -0.1479 -0.3292 -0.4498
12368W        W28442   0.153  14.026  14.434  0.3401 -0.0503  0.1976
12369W        W28443   1.441  12.674  12.005 -0.0071 -0.2876 -0.0341
12370W        W28444  18.293  17.203   4.598  0.2966  0.0566  0.1648
12371W        W28445  12.186   3.510  12.763 -0.1164 -0.0655  0.0161
12372W        W28446  17.256  15.196   0.382 -0.1086 -0.0072  0.0491
12373W        W28447   0.574   9.058   1.100 -0.1778  0.0187  0.0205
12374W        W28448   0.528  13.458   1.004  0.0452 -0.0917 -0.1258
12375W        W28449  10.344  11.512   4.946 -0.1516  0.0830  0.0075
12376W        W28450  12.514  16.024  15.138  0.3120  0.0504  0.2938
12377W        W28451  17.033  17.879  12.624  0.1302  0.1911  0.0785
12378W        W28452   3.833   3.508  12.712  0.2554 -0.0410  0.2376
12379W        W28453  14.318  16.966   2.597 -0.0146 -0.0969 -0.0192
12380W        W28454   8.039  11.294   1.895  0.3128  0.0179 -0.0265
12381W        W28455  15.733  11.081   3.771 -0.1941 -0.4090 -0.1045
12382W        W28456  15.669  11.987  15.653  0.2989  0.2384  0.1366
12383W        W28457  10.313   8.942  14.794 -0.0162  0.2807  0.1918
12384W        W28458  15.670  16.757  13.380 -0.0452 -0.1736  0.3633
12385W        W28459   1.718   1.684   3.365 -0.2269 -0.0874  0.6051
12386W        W28460   9.850   1.724   1.894 -0.1916 -0.2036  0.3063
12387W        W28461  10.769  11.185  13.718 -0.0470  0.0516 -0.0027
12388W        W28462   3.677   8.252   0.616 -0.3160 -0.1024 -0.2711
12389W        W28463   7.194  13.185   3.710 -0.0991  0.4644 -0.2991
12390W        W28464   8.090  10.226   3.810 -0.0910 -0.2345  0.1066
12391W        W28465  13.530  14.416   3.831  0.1348  0.0811  0.0236
12392W        W28466   3.313  17.373  11.121  0.2632  0.4876  0.1957
12393W        W28467  10.037  16.700  13.432 -0.1108  0.2309  0.4170
12394W        W28468   3.475   4.335   1.771 -0.1055 -0.2977 -0.2634
12395W        W28469  15.007  17.698   3.283  0.0654 -0.0645 -0.0549
12396W        W28470   0.429  10.249   0.326 -0.0628 -0.0724 -0.3795
12397W        W28471  11.278  12.952  13.195  0.4175  0.0708 -0.0724
12398W        W28472  13.118   4.954  15.213  0.1068 -0.3425 -0.1949
12399W        W28473  13.225  10.972  12.847  0.1253 -0.2196  0.0502
12400W        W28474   8.972   1.665   1.858 -0.0510 -0.1776 -0.2003
12401W        W28475  10.006   8.117  11.300  0.1124 -0.0530  0.3591
12402W        W28476  15.152  17.183  13.088 -0.0395  0.0569 -0.1074
12403W        W28477   6.195  15.185  13.564  0.0709  0.1590 -0.2553
12404W        W28478  13.151  13.878  15.577 -0.2269 -0.1980 -0.0512
12405W        W28479  14.262  17.578   2.515  0.0592  0.0490  0.2344
12406W        W28480  18.056   3.101  13.701  0.0477 -0.3612 -0.0026
12407W        W28481  11.365  16.776  12.635 -0.1015 -0.1505  0.1432
12408W        W28482  10.284   1.911  11.377 -0.1217  0.1563 -0.1760
12409W        W28483   4.894   6.627   4.573 -0.2470  0.1367  0.0270
12410W        W28484   8.526  17.743   4.547 -0.2967  0.1949  0.1558
12411W        W28485   7.352  17.392  15.999  0.0336  0.0981  0.1480
12412W        W28486  11.876  17.970   0.460  0.1629 -0.1752  0.1358
12413W        W28487   8.357  11.162   4.435 -0.3649  0.2337  0.1120
12414W        W28488   2.837   1.567   4.814 -0.1262 -0.1206  0.2234
12415W        W28489   2.391   9.340   0.538  0.0060  0.0577  0.0696
12416W        W28490  18.437  17.886  12.329  0.2608  0.1574 -0.0233
12417W        W28491  12.389  17.654   0.271  0.3949  0.1634  0.0296
12418W        W28492   4.868   0.100  14.666 -0.4923  0.0631  0.0525
12419W        W28493   1.028   4.993  14.745  0.1053 -0.2127 -0.1325
12420W        W28494  17.445   8.754   2.515 -0.1927  0.1903  0.0124
12421W        W28495   5.197   8.657  11.660  0.1555 -0.0813 -0.0965
12422W        W28496  14.976  13.078   3.818 -0.1821  0.0149 -0.1714
12423W        W28497   4.600   2.570   3.150 -0.0641  0.1075  0.2367
12424W        W28498   4.614   4.902  13.766  0.1048  0.0029  0.0268
12425W        W28499   0.167   2.985  15.798  0.2445 -0.1749 -0.1852
12426W        W28500   0.779   5.135   0.094 -0.3425 -0.1926 -0.0646
12427W        W28501   8.264  17.582  15.048 -0.3616  0.3841  0.3918
12428W        W28502  15.038   4.566   1.716  0.2768 -0.0491  0.2303
12429W        W28503  18.344  14.481   3.362  0.1038 -0.1615 -0.2423
12430W        W28504  12.913  14.561  14.132  0.1229 -0.1878  0.2226
12431W        W28505  12.265  17.908  15.438 -0.2071 -0.3147 -0.0209
12432W        W28506   9.705   9.676   4.974  0.0182 -0.1188  0.2217
12433W        W28507   6.229  11.927  12.109  0.1743 -0.0137 -0.3850
12434W        W28508   8.738   9.145  15.628 -0.1003 -0.0579 -0.0718
12435W        W28509   6.721   9.523   1.322 -0.2016 -0.2957 -0.2077
12436W        W28510   1.126   4.458  12.073  0.1141  0.0015  0.0887
12437W        W28511   6.359  17.769   4.107  0.1103  0.2898 -0.0900
12438W        W28512  15.063  15.979   4.466 -0.3872  0.0584  0.4831
12439W        W28513  15.899   5.052  10.771  0.0907  0.0914  0.0596
12440W        W28514  12.397  10.874  13.134 -0.0307  0.0512 -0.0675
12441W        W28515   7.537  16.106   2.945  0.1937 -0.2827  0.0647
12442W        W28516  14.901  10.766  10.961 -0.1839 -0.0539  0.0715
12443W        W28517   3.326  10.514  14.343 -0.0394 -0.0526  0.1132
12444W        W28518  10.874   1.865  12.598  0.0970  0.2618 -0.0075
12445W        W28519   3.229  14.228   2.857 -0.0294  0.1472  0.0124
12446W        W28520  15.183  16.790  12.129 -0.1709  0.0423  0.0073
12447W        W28521   3.109   2.377   0.129  0.0395 -0.0160  0.2217
12448W        W28522  13.419   2.817  15.854 -0.0638 -0.2416 -0.1755
12449W        W28523  18.316   6.122   4.227  0.1644 -0.0361  0.3636
12450W        W28524   3.032  18.348   2.799 -0.2047 -0.1094  0.2483
12451W        W28525   7.850  13.016   3.867  0.3447 -0.3422  0.0033
12452W        W28526  18.343  10.516   3.515  0.0302  0.3395 -0.4246
12453W        W28527   7.317   7.340  12.360 -0.2339 -0.2180 -0.3165
12454W        W28528   1.490  14.161  14.864  0.3237 -0.0338  0.0996
12455W        W28529   3.140   9.888   1.031 -0.2705 -0.0541 -0.0891
12456W        W28530  14.729   0.799   1.206  0.0470  0.3372 -0.1117
12457W        W28531   2.220  12.898   1.751 -0.3809 -0.2567  0.0516
12458W        W28532   1.539   8.071   3.351  0.0346 -0.0708  0.0861
12459W        W28533   7.139   8.799   4.363 -0.0754 -0.0374 -0.2959
12460W        W28534  11.584   7.228   3.894 -0.0287  0.0625  0.5218
12461W        W28535  16.453  14.497   3.940  0.1500 -0.1945 -0.0659
12462W        W28536   0.206   8.272   3.006  0.0369  0.2376  0.1355
12463W        W28537   0.411  16.506   5.579 -0.1695  0.2141 -0.3785
12464W        W28538   9.883   7.089  15.476  0.0162  0.0092 -0.3364
12465W        W28539   9.281  16.401  13.405  0.1775  0.1059 -0.1137
12466W        W28540   4.142   8.766  13.437 -0.1499  0.1035  0.1932
12467W        W28541   8.519  17.029   0.535  0.0308  0.1874  0.2976
12468W        W28542   1.834   3.867  13.314 -0.1103 -0.4113 -0.2178
12469W        W28543   1.549   7.432   5.958  0.0267  0.0506 -0.4693
12470W        W28544  16.372  18.122  15.791 -0.4009 -0.3410 -0.0283
12471W        W28545   3.682   1.622   3.430 -0.1148  0.0436  0.1399
12472W        W28546  12.136  11.844   5.112 -0.0530  0.1524 -0.0192
12473W        W28547   4.540   6.495  13.994  0.0077 -0.0249 -0.4585
12474W        W28548  14.024  15.041   3.227  0.2955  0.0146  0.0079
12475W        W28549   1.192   1.779   1.505 -0.2312  0.2350 -0.0416
12476W        W28550   9.166  16.410  14.768 -0.0593  0.0641  0.0429
12477W        W28551  11.134   2.583  15.578  0.2248  0.1768 -0.1128
12478W        W28552   9.112  14.546  11.586 -0.1705  0.1668 -0.1318
12479W        W28553  11.092   3.942   2.199 -0.3892  0.0495 -0.2147
12480W        W28554  13.336   4.613  13.418 -0.0864  0.0695  0.1309
12481W        W28555  16.531  14.225   5.307 -0.3337  0.4012  0.3642
12482W        W28556  17.530  17.810  12.349 -0.3925  0.1656 -0.0318
12483W        W28557  17.032   6.246   2.363  0.0124  0.1238 -0.0864
12484W        W28558   0.402  17.011   4.109 -0.1189  0.0827 -0.1917
12485W        W28559  14.252   5.897  11.183 -0.1579 -0.1287 -0.2510
12486W        W28560   0.368  12.495  11.754 -0.0619 -0.0951  0.3109
12487W        W28561   2.143  12.583  15.600 -0.0816  0.3286 -0.1169
12488W        W28562   7.098   4.990  14.752 -0.2023 -0.0066 -0.2733
12489W        W28563   8.317  11.975  14.513  0.1100  0.0621 -0.0172
12490W        W28564  12.009   8.130  13.538 -0.1852  0.1433  0.1542
12491W        W28565   8.712   8.147  11.687 -0.1681  0.0278 -0.1067
12492W        W28566  16.506   7.256   1.826 -0.3786 -0.0400 -0.0848
12493W        W28567   0.172  14.995   6.696 -0.0849  0.2936  0.1256
12494W        W28568   5.841  14.538  15.649  0.1083  0.0681  0.5374
12495W        W28569  16.907   6.351  14.146 -0.0364  0.1440  0.1767
12496W        W28570   5.939  13.347  13.651 -0.1062  0.0748 -0.1260
12497W        W28571   2.007  12.536   3.215  0.0403 -0.2619 -0.1279
12498W        W28572   0.844   8.289   1.314  0.2575 -0.0578  0.0017
12499W        W28573   2.320  13.081  11.971 -0.1400  0.1623  0.0148
12500W        W28574   6.927   0.606   4.042 -0.1310  0.0932  0.1646
12501W        W28575  15.229   4.596  12.133 -0.0161 -0.0103 -0.1333
12502W        W28576   5.832  12.179  14.007 -0.2167  0.1457 -0.1311
12503W        W28577  18.118  10.740   1.672 -0.0016  0.1012  0.0411
12504W        W28578  17.760  13.643   3.442 -0.1350 -0.3834  0.2355
12505W        W28579   0.025   4.678  12.450  0.1560 -0.0019  0.0580
12506W        W28580   1.989   6.810   1.303 -0.1629  0.0830 -0.3096
12507W        W28581  15.232   5.739  14.378  0.0117  0.1420 -0.0104
12508W        W28582   3.415  14.114  13.987 -0.0070  0.2807 -0.1494
12509W        W28583  18.388   0.597  13.731 -0.0968  0.0586  0.2408
12510W        W28584  13.623   5.952   2.136 -0.2194 -0.1598 -0.0144
12511W        W28585  13.464  13.808  11.789  0.2923 -0.0481  0.1242
12512W        W28586  18.040   0.192  14.633 -0.1637 -0.0813  0.0222
12513W        W28587   0.077  14.581  12.950  0.1205  0.2919  0.1620
12514W        W28588   1.269  18.033   1.620  0.0345 -0.0860  0.2271
12515W        W28589  15.837   6.467  12.873  0.2059 -0.2156  0.3087
12516W        W28590   9.941   4.842  13.466  0.0742 -0.2878 -0.3320
12517W        W28591   4.769  15.973  11.755  0.0623 -0.0119 -0.0544
12518W        W28592  16.162   9.007   2.665  0.0852 -0.0444 -0.0023
12519W        W28593   3.731  14.921  11.873 -0.1187  0.1725 -0.1287
12520W        W28594   4.890   7.008  12.005 -0.1347 -0.0497  0.3580
12521W        W28595   9.354  10.842  13.117  0.3050 -0.0320  0.2249
12522W        W28596   7.826   6.714  12.353  0.2479  0.1333  0.0686
12523W        W28597   9.531  13.874   5.363  0.2064 -0.0336  0.0320
12524W        W28598  14.970   7.738   1.227  0.3372  0.2279 -0.0422
12525W        W28599   4.182  15.166   5.281 -0.0211 -0.0720  0.0517
12526W        W28600  13.135   8.449  11.540 -0.1106 -0.0556 -0.0183
12527W        W28601  14.632   8.920   3.905  0.0314  0.0014  0.1884
12528W        W28602  15.005  12.896   0.983  0.0822  0.0942 -0.0880
12529W        W28603  12.438   4.783  14.459 -0.3028 -0.0317 -0.2881
12530W        W28604   1.025  11.073   1.535 -0.0579  0.2874  0.0009
12531W        W28605  17.413   4.165   4.462 -0.2765 -0.1319  0.0597
12532W        W28606  16.104   9.464  13.132 -0.1364 -0.4112 -0.2714
12533W        W28607   0.960  15.191   1.355  0.3421 -0.1110  0.0495
12534W        W28608   7.317   9.201  13.793 -0.2539  0.0596 -0.1678
12535W        W28609   9.019   8.656   4.803 -0.1899 -0.3119 -0.1362
12536W        W28610   5.691   0.123  14.337 -0.2364 -0.2244  0.0341
12537W        W28611   0.189   3.507  15.901  0.1380  0.0490 -0.1879
12538W        W28612   5.974   9.834  11.412 -0.1695  0.0684  0.2851
12539W        W28613   7.764  11.261  16.008 -0.1577 -0.2781 -0.0406
12540W        W28614  13.715  10.934   1.657  0.2778 -0.1328  0.0416
12541W        W28615   4.682   7.643  15.126 -0.0545 -0.2724  0.1373
12542W        W28616   0.768   5.001  13.966 -0.1078 -0.1719  0.0915
12543W        W28617   1.215  11.375  14.682  0.3669 -0.2116 -0.0104
12544W        W28618   0.423   2.998   2.258 -0.0981  0.2146  0.1225
12545W        W28619   6.793   2.400  11.292  0.0289  0.0374 -0.4711
12546W        W28620  13.194  14.883   3.254  0.0857  0.4057  0.1451
12547W        W28621   2.601  13.984   5.593 -0.0541  0.1154  0.2351
12548W        W28622   1.672   7.199   1.253 -0.3316  0.1996  0.2675
12549W        W28623   9.825   7.204   1.633 -0.3941 -0.0641  0.0634
12550W        W28624   3.572  12.782  13.011  0.1832  0.1951 -0.1507
12551W        W28625  17.821   8.605  11.850 -0.0260 -0.1440  0.4310
12552W        W28626  11.690   9.300   0.863 -0.1812  0.1830  0.0701
12553W        W28627  18.011  14.737   3.693  0.0118  0.1395 -0.3595
12554W        W28628   1.696  13.462  12.559 -0.0198 -0.0776 -0.0696
12555W        W28629   7.407   8.705  15.590 -0.1121  0.2021 -0.2050
12556W        W28630  12.561   0.759   1.303 -0.2735  0.3415  0.0482
12557W        W28631  11.556  16.947  14.164 -0.1016  0.1891 -0.0942
12558W        W28632   3.940  13.625   0.109  0.0803  0.0387  0.0737
12559W        W28633  14.096  15.204   4.163  0.0414 -0.0347  0.0346
12560W        W28634  16.613  10.164  10.567  0.3401  0.0228  0.2435
12561W        W28635   9.229  15.978   1.392  0.2163  0.2461 -0.0024
12562W        W28636   5.391  12.317   5.072 -0.0406 -0.3170 -0.0459
12563W        W28637   7.407   9.934   5.069  0.2136  0.0346  0.0993
12564W        W28638  15.419   7.471   3.543 -0.2048 -0.0522  0.2126
12565W        W28639   0.494  13.250   1.799 -0.3174 -0.3474  0.2650
12566W        W28640   4.058  16.745   5.335 -0.1560  0.1694  0.1164
12567W        W28641   3.099   6.761   3.233 -0.3885  0.1763 -0.0375
12568W        W28642   4.965   1.494   0.655  0.3594 -0.0773  0.0252
12569W        W28643   5.460   0.076   3.886  0.0630  0.0600  0.0839
12570W        W28644   8.378  12.299   0.704  0.3500  0.2111  0.1504
12571W        W28645  12.925   0.027   3.918  0.1149 -0.0726  0.2306
12572W        W28646  11.260   8.386  14.761 -0.0861  0.2090 -0.1439
12573W        W28647   9.609   5.673   2.567  0.4280  0.1249  0.0525
12574W        W28648  17.395   1.848   2.878  0.2240 -0.3165  0.3280
12575W        W28649  15.905  17.243   5.276  0.1176 -0.4542  0.3384
12576W        W28650  14.747   7.366   0.906 -0.1135 -0.0237  0.0744
12577W        W28651  12.628   2.265   2.462 -0.1454  0.1851 -0.2658
12578W        W28652  18.549  12.704  14.160  0.0640 -0.1505 -0.0996
12579W        W28653   7.845   9.371  15.741 -0.3726  0.2055 -0.2575
12580W        W28654   3.035  18.457  14.466  0.4639 -0.0881  0.0409
12581W        W28655   8.564  14.873   0.065 -0.0969 -0.1186  0.2104
12582W        W28656   3.922   4.328   3.921 -0.1981 -0.0839 -0.1206
12583W        W28657  11.108   1.530  14.962 -0.1217 -0.0565 -0.0009
12584W        W28658   4.364   5.546  12.825 -0.0734  0.2970 -0.2293
12585W        W28659   2.880  16.636   3.998 -0.0141  0.4082 -0.0424
12586W        W28660   0.007  13.412   0.181 -0.3109  0.3162  0.1469
12587W        W28661   0.070   9.201   3.146  0.0793  0.0437  0.1097
12588W        W28662   8.999   4.861   0.546 -0.1425  0.1137 -0.0664
12589W        W28663   9.831   2.504  13.929 -0.1333 -0.3841 -0.1403
12590W        W28664  13.616  18.287  13.468  0.0766 -0.0168  0.1109
12591W        W28665  10.719   8.994  14.047  0.1790  0.0824 -0.2644
12592W        W28666   4.631   8.725  15.266  0.1755 -0.0799 -0.1730
12593W        W28667   7.362   1.331   1.052 -0.1414  0.2446  0.2330
12594W        W28668   6.907  11.697  12.855 -0.1443  0.0478  0.1326
12595W        W28669  11.993  13.500   0.066 -0.2147 -0.1942  0.3612
12596W        W28670  17.182  12.272  14.307 -0.0555 -0.0672  0.0086
12597W        W28671  18.534  12.802   1.351  0.0745 -0.2104  0.0893
12598W        W28672   1.368   7.170   2.017 -0.1793  0.0259 -0.1575
12599W        W28673   8.724   9.607   1.153 -0.0723 -0.2422  0.0490
12600W        W28674  14.983   6.278   2.868 -0.1208 -0.2567  0.0714
12601W        W28675   0.966  13.825   2.963  0.3543 -0.1071  0.0963
12602W        W28676   9.641  17.067   1.076  0.0881 -0.4005  0.2837
12603W        W28677  17.585   0.107   0.696 -0.4342 -0.0361  0.0016
12604W        W28678  11.995   4.928   2.927 -0.0350  0.0533 -0.1261
12605W        W28679   8.919   8.551  14.699 -0.0494  0.3031  0.1105
12606W        W28680   7.717  12.107  15.900 -0.1044  0.0213  0.1266
12607W        W28681   3.034  11.629  13.936 -0.1874 -0.0777 -0.1087
12608W        W28682  15.735   2.179  13.891 -0.0385  0.3403  0.0956
12609W        W28683  15.531   1.237  15.677  0.0779 -0.0402  0.0687
12610W        W28684   7.750  16.769  11.356  0.0595 -0.0106  0.1684
12611W        W28685  15.972  15.319   5.569  0.2026  0.0014  0.1749
12612W        W28686   2.438  16.262  14.100 -0.0178 -0.1597 -0.1466
12613W        W28687   5.935   7.029  14.538  0.1133  0.4837 -0.0010
12614W        W28688  12.946   8.590  12.492  0.0249 -0.0866  0.1153
12615W        W28689  14.565   7.131  11.452  0.3550 -0.1669  0.1237
12616W        W28690  15.197  18.370   4.151  0.1445 -0.0746  0.0617
12617W        W28691  12.048   8.562  15.415  0.2903  0.2463  0.1635
12618W        W28692  15.842   7.361   2.178  0.0429 -0.2307 -0.1128
12619W        W28693  14.179  14.052  14.746 -0.0548  0.1450 -0.0390
12620W        W28694  13.050   9.467   4.251 -0.0765 -0.2314 -0.2088
12621W        W28695   8.473   9.962   2.855  0.1061  0.3033  0.4657
12622W        W28696  12.055  14.352  12.810  0.0895  0.0129 -0.3849
12623W        W28697   2.795   0.362   1.085  0.2240 -0.1641  0.0131
12624W        W28698   7.653   3.372  14.243 -0.2022  0.0435  0.0207
12625W        W28699   6.445  10.069  13.508  0.0137  0.1165  0.3261
12626W        W28700   3.971  13.889   0.560  0.2182  0.1589  0.0232
12627W        W28701   3.042   8.868   3.331  0.0611  0.1295 -0.0007
12628W        W28702  13.562   6.600  13.384  0.0347 -0.0611  0.0143
12629W        W28703  14.169  11.540   4.283  0.2007  0.0975 -0.0348
12630W        W28704  16.568  18.283   3.501 -0.0812 -0.2624  0.4885
12631W        W28705  13.471   3.586  12.065  0.1222 -0.2125 -0.0787
12632W        W28706  11.796   7.186   2.714  0.1711  0.1045  0.1426
12633W        W28707  17.677   1.835   1.410  0.0687  0.1286  0.1170
12634W        W28708   2.280   5.597  14.540 -0.0144  0.0918  0.1876
12635W        W28709   6.258  11.061  14.496 -0.2785  0.0529 -0.1535
12636W        W28710  11.661   9.655   1.497 -0.2064  0.0998  0.0420
12637W        W28711  18.063  11.669  11.502  0.0374  0.2006  0.1019
12638W        W28712  18.381   8.385  13.202 -0.2271  0.4103 -0.0211
12639W        W28713  12.812   1.405  15.406  0.1642 -0.2206 -0.1070
12640W        W28714   5.037  14.110   4.778 -0.0160 -0.0565  0.0781
12641W        W28715   7.813   0.480   4.031  0.1974  0.0595  0.0581
12642W        W28716   8.482   5.229  14.405 -0.2573  0.0627  0.0568
12643W        W28717  11.227   4.218   4.663 -0.3634 -0.0193  0.5193
12644W        W28718   6.349   4.318   1.858  0.2900  0.0099  0.0307
12645W        W28719  15.170  10.330  10.920  0.0954  0.0525 -0.0150
12646W        W28720   1.834   9.478  14.255 -0.1140  0.0472  0.2903
12647W        W28721  18.459  16.895  12.395  0.0013  0.1208  0.2430
12648W        W28722   8.630  15.520  13.675  0.4548  0.0318  0.0131
12649W        W28723   1.508  13.980  10.100 -0.1854  0.1007  0.1092
12650W        W28724  14.678  16.793   1.032 -0.1223  0.1743 -0.2713
12651W        W28725   7.364   2.914  15.142 -0.1533  0.2560 -0.2004
12652W        W28726  11.364   9.699   0.083  0.0630  0.0856  0.0607
12653W        W28727   1.506   0.771  11.339 -0.1229 -0.0948 -0.3178
12654W        W28728   8.585   7.795   4.901 -0.2005 -0.0340  0.0394
12655W        W28729  10.770   1.704  14.593  0.1528  0.0865 -0.1162
12656W        W28730   5.785   9.168  13.029  0.1197 -0.0164  0.3471
12657W        W28731  11.116   8.784  14.442  0.3214 -0.0701  0.0128
12658W        W28732   4.865   3.367   4.074 -0.0569  0.0187  0.1426
12659W        W28733   6.586  14.349   3.601  0.0413 -0.0648 -0.0160
12660W        W28734  16.326  11.476   4.045 -0.0780 -0.0498  0.0183
12661W        W28735   6.557  14.477  14.527  0.2699 -0.1405 -0.1252
12662W        W28736   4.821   1.764  11.312  0.3438  0.0717 -0.0519
12663W        W28737  13.792  17.436   4.779  0.0759  0.0879  0.1345
12664W        W28738   0.236  15.147  13.987  0.1334  0.0737  0.0026
12665W        W28739   9.662   8.704   0.654  0.0836  0.1789 -0.4174
12666W        W28740   8.692   4.981   1.020 -0.1242 -0.1550 -0.0766
12667W        W28741  15.179   5.829  12.690  0.0427 -0.0856  0.0926
12668W        W28742   5.661  16.801  12.852 -0.2523 -0.1141 -0.1226
12669W        W28743   6.201   3.902  15.980 -0.0007 -0.1947 -0.1600
12670W        W28744   7.867   3.877  11.661  0.0960 -0.0378 -0.1416
12671W        W28745  18.367   4.633  14.385  0.3613  0.1334  0.0358
12672W        W28746  10.453   2.200   1.428 -0.1033  0.0805  0.2530
12673W        W28747  15.715  18.222   3.900  0.0329  0.1424 -0.2663
12674W        W28748   2.052   6.671  15.012  0.0285 -0.3916  0.0935
12675W        W28749  17.445  14.350  15.511  0.1127 -0.0337 -0.1381
12676W        W28750   3.203   3.916   1.550  0.0545  0.0170 -0.0542
12677W        W28751   3.767  14.271   1.726 -0.1259  0.0331 -0.2295
12678W        W28752   2.102   3.317  14.220  0.1239  0.0525  0.2587
12679W        W28753  10.825   0.256  14.552  0.1825  0.2666 -0.0557
12680W        W28754   7.688  13.302   0.564  0.0722  0.3201 -0.0115
12681W        W28755   7.772   0.470  11.860 -0.1951 -0.0047 -0.2954
12682W        W28756   5.902   9.318  11.882 -0.0584 -0.0681  0.0063
12683W        W28757   1.459   1.858  15.562  0.0340 -0.0823  0.4063
12684W        W28758  15.536   2.979  15.181 -0.4723 -0.0588 -0.1789
12685W        W28759  12.873   7.239  15.345 -0.3698 -0.1076 -0.4838
12686W        W28760   4.210  15.046  12.053 -0.0369  0.2805 -0.1053
12687W        W28761   6.791  13.847  14.344  0.0658  0.0953  0.3228
12688W        W28762  16.286  15.156   4.182 -0.0606 -0.0616 -0.0266
12689W        W28763  15.181   7.832   4.287  0.0315  0.0844  0.1271
12690W        W28764  15.496   6.423   1.196  0.1144 -0.4155  0.2281
12691W        W28765   4.627   7.911  11.876 -0.0154  0.1464 -0.1480
12692W        W28766  11.747   1.067   4.677 -0.1690  0.0706 -0.2523
12693W        W28767   3.251   1.562   5.269  0.1280  0.2104  0.1677
12694W        W28768   8.748  12.057  14.993  0.3339  0.2468 -0.1980
12695W        W28769  11.383   1.642   3.700 -0.3087 -0.5284  0.2978
12696W        W28770  11.906  11.136  13.094  0.1740 -0.1893  0.1359
12697W        W28771   2.124   9.875   5.558 -0.2557 -0.1291  0.3707
12698W        W28772   5.805   6.634  15.287  0.3400 -0.2411  0.1391
12699W        W28773  15.743  13.042  14.396 -0.0064 -0.1762 -0.0895
12700W        W28774  15.695  17.449  10.871 -0.1599 -0.0822  0.4338
12701W        W28775  17.363  17.465   2.175 -0.3525  0.0156  0.1071
12702W        W28776   0.231  14.614  15.194 -0.1193 -0.1501 -0.1736
12703W        W28777   8.318  18.043   5.754  0.0890 -0.0719  0.3631
12704W        W28778   0.850   9.486  12.654  0.0300 -0.3805  0.1740
12705W        W28779   7.916   5.432   4.215 -0.2183  0.0495  0.1926
12706W        W28780   2.602  15.999   0.102 -0.2382  0.2519  0.2009
12707W        W28781  17.994  15.713  14.126 -0.0267  0.1805  0.0783
12708W        W28782  15.380   9.841  11.170 -0.2130 -0.0258  0.1277
12709W        W28783   8.987   2.242   0.272 -0.3557 -0.0227  0.3897
12710W        W28784  10.861   9.026   0.078 -0.3300  0.0018  0.0669
12711W        W28785   3.300   3.671   4.858 -0.1694  0.1430  0.3491
12712W        W28786   5.111  16.948  14.230 -0.1414  0.1431 -0.1739
12713W        W28787   1.105  10.055  13.437  0.2289  0.1666  0.1138
12714W        W28788   2.290  18.274  11.784  0.1167 -0.0642  0.1350
12715W        W28789   4.765  10.861   1.806  0.4154  0.1627  0.1620
12716W        W28790  10.706  14.445  12.772 -0.1569  0.3253  0.0542
12717W        W28791   6.892  12.999   0.848  0.1324  0.0110  0.1023
12718W        W28792   7.983  14.045   0.564 -0.0873 -0.1334 -0.0220
12719W        W28793   7.443   1.630  11.473 -0.2037 -0.0370 -0.0725
12720W        W28794  10.451  16.937  12.103 -0.1485  0.3594 -0.1087
12721W        W28795  14.104  17.435   4.004 -0.2394 -0.2953  0.0596
12722W        W28796   9.451  18.276   3.661  0.0216 -0.2112  0.2025
12723W        W28797   9.414  16.658   5.503 -0.0166  0.0475 -0.2275
12724W        W28798   0.691   0.506   0.858 -0.0923  0.2018  0.3122
12725W        W28799   1.215  13.925   2.536 -0.2958 -0.1466  0.0972
12726W        W28800  18.361   6.147   0.059  0.2916  0.1294  0.0646
12727W        W28801  13.793  14.844   3.911 -0.2135 -0.0345  0.2688
12728W        W28802  13.454  11.362   4.988 -0.2927  0.0216 -0.0507
12729W        W28803   9.970  11.859  15.148  0.2324 -0.0149 -0.1190
12730W        W28804  10.103   7.945   2.644  0.1788  0.0115  0.1300
12731W        W28805   4.271   5.732   4.955  0.1209 -0.1467 -0.1076
12732W        W28806   2.388  12.657  15.058  0.0547  0.2506  0.2648
12733W        W28807   1.860   6.952   5.638  0.1092 -0.1527 -0.1561
12734W        W28808   7.186  12.719  15.802 -0.1261 -0.0748  0.1477
12735W        W28809   0.894  13.944   4.539  0.1368 -0.3958  0.1729
12736W        W28810  16.437  15.586  13.186  0.2345  0.2990  0.0684
12737W        W28811  13.883   5.720   4.869 -0.2644  0.0590 -0.0913
12738W        W28812  18.372  14.618  15.885 -0.1977 -0.0252 -0.2047
12739W        W28813   5.760   1.598  11.632 -0.1963  0.4193 -0.3992
12740W        W28814  13.745  10.599   2.546  0.1316 -0.2364 -0.1507
12741W        W28815   8.126   1.641  13.346 -0.0708  0.2156 -0.0640
12742W        W28816   7.440  16.259   4.471 -0.0901  0.1895  0.1893
12743W        W28817   0.996  11.404   2.587  0.1315 -0.2046  0.1018
12744W        W28818   9.532   6.188   2.968 -0.3053 -0.0358  0.1177
12745W        W28819   6.504   3.078   5.649 -0.1380 -0.0649 -0.1370
12746W        W28820  16.609  17.049  15.108 -0.2523  0.2890 -0.0495
12747W        W28821   2.322  14.801  11.434 -0.0298 -0.2709  0.1215
12748W        W28822  15.102   2.045   2.423 -0.0726  0.0390  0.1748
12749W        W28823   5.988   9.601  12.287  0.2012 -0.0470 -0.2219
12750W        W28824   5.619  18.065   0.153 -0.1999  0.2932  0.2781
12751W        W28825   4.823   5.305  15.252 -0.2428 -0.0213  0.0530
12752W        W28826  10.932   1.142  15.321  0.3460  0.2293  0.1227
12753W        W28827   6.074  13.965  13.767  0.2041 -0.2435 -0.4410
12754W        W28828  16.526  10.417   0.357  0.2169  0.0296  0.0286
12755W        W28829  17.055   6.790   6.084  0.2301  0.2400  0.2570
12756W        W28830   8.982   5.274  15.344  0.4594  0.0214  0.1473
12757W        W28831   7.745  10.119  15.455  0.1599  0.1983 -0.3546
12758W        W28832   6.196  13.367   6.106  0.3426 -0.2103 -0.2930
12759W        W28833   6.811   5.332   4.362  0.1311 -0.3494  0.1440
12760W        W28834   1.652   3.168   1.896  0.0386 -0.1187  0.1896
12761W        W28835   0.348   3.106   4.222  0.1770 -0.0562 -0.0801
12762W        W28836  12.688  12.880   0.913  0.2893  0.0766 -0.0763
12763W        W28837   5.529   0.328   0.468 -0.3551 -0.0985  0.3070
12764W        W28838   0.958   6.279  11.589  0.3198 -0.0820 -0.2388
12765W        W28839   5.289  18.281   4.615 -0.2746  0.0914 -0.3537
12766W        W28840  14.313   8.166  12.566  0.0416 -0.2936  0.0270
12767W        W28841  13.315  14.100  13.272  0.1326  0.3668 -0.0823
12768W        W28842  14.658   6.627  14.591 -0.0353  0.1543 -0.0770
12769W        W28843  17.082   0.261   4.348 -0.0221  0.0038 -0.0423
12770W        W28844  11.000  15.448   1.341  0.0131  0.2695 -0.1682
12771W        W28845   9.922   7.714   3.186 -0.3412  0.2445  0.0724
12772W        W28846  17.655   9.917  11.947 -0.0975 -0.1435  0.1442
12773W        W28847   6.022   9.780  15.890 -0.0405  0.0828 -0.1746
12774W        W28848   6.783   6.970  10.850 -0.1450  0.1731  0.0184
12775W        W28849  17.661  11.914   3.061 -0.2549  0.0853  0.0909
12776W        W28850   6.429  17.167   1.075 -0.3041 -0.0186 -0.0968
12777W        W28851   9.360  18.228  14.843  0.0905  0.4332 -0.3644
12778W        W28852   9.114   6.876  15.705  0.2201 -0.1567 -0.1688
12779W        W28853   8.062   5.018   6.222 -0.1535 -0.0686  0.1318
12780W        W28854  16.467   7.432  11.308  0.0514  0.2245 -0.1885
12781W        W28855   1.835  15.997   2.457  0.1330  0.0452  0.0314
12782W        W28856   7.162   0.465  15.955 -0.1599  0.1166 -0.3476
12783W        W28857  15.975   7.988   5.076  0.0796 -0.0275 -0.3397
12784W        W28858  17.640  16.392   0.235 -0.1566 -0.0165  0.1166
12785W        W28859  14.143  12.005  10.962  0.2087 -0.1797  0.1358
12786W        W28860  12.299   6.905   1.815 -0.0741  0.0817  0.2194
12787W        W28861  17.680   1.417   4.617  0.2512 -0.2709  0.2267
12788W        W28862   9.283  14.780  12.018 -0.0754  0.0084  0.2821
12789W        W28863  14.458  18.213   1.639  0.1609 -0.4227 -0.1250
12790W        W28864   1.470   8.246  15.406 -0.0780 -0.1193  0.0489
12791W        W28865  11.601  10.142  15.655 -0.1081  0.0326  0.2928
12792W        W28866  11.963   4.758  11.056  0.0898 -0.3260 -0.1822
12793W        W28867  14.478   8.600  12.350  0.0561  0.3488 -0.0218
12794W        W28868  13.634   3.043   2.188 -0.1833  0.1989  0.2800
12795W        W28869  15.901   8.290   0.329  0.0284  0.0499  0.0373
12796W        W28870   9.608  12.711  10.804 -0.3227  0.3002 -0.0596
12797W        W28871  12.533  10.310  15.573  0.0469 -0.4232 -0.0082
12798W        W28872   8.210   3.346  13.451 -0.1760  0.4314 -0.1413
12799W        W28873  15.600   4.594   1.149  0.2991  0.0441 -0.2523
12800W        W28874  12.098   3.981  12.585 -0.0480  0.0966  0.1327
12801W        W28875   3.599   1.219  14.875  0.1147 -0.2026  0.0943
12802W        W28876  10.417  11.213   0.449  0.3141  0.1070 -0.1147
12803W        W28877   4.434  18.545  11.742  0.1624 -0.0093  0.1505
12804W        W28878  17.486   6.397   4.643  0.2159 -0.0359  0.1613
12805W        W28879   7.352   6.326  13.170 -0.1057  0.1406  0.0619
12806W        W28880   0.353   3.383   5.360  0.2563  0.3898 -0.2181
12807W        W28881   0.943  11.747  14.168 -0.0481 -0.0358  0.1880
12808W        W28882   3.395  16.329  15.616  0.1930  0.0256  0.0634
12809W        W28883   9.035   5.202  14.309 -0.0230  0.2238  0.0187
12810W        W28884   4.770   7.990   2.619  0.1769  0.1900 -0.2683
12811W        W28885  18.235   7.996  15.535 -0.2182  0.1334  0.3233
12812W        W28886   2.360   7.924   0.371  0.0998 -0.0973  0.3596
12813W        W28887   9.017  15.383   5.646  0.3617 -0.0039 -0.1773
12814W        W28888  15.031   0.807  15.592 -0.1632 -0.1182 -0.0682
12815W        W28889  13.220  12.139  11.718  0.1990 -0.2186 -0.0763
12816W        W28890   4.384  11.167  11.119 -0.2724 -0.0099 -0.2925
12817W        W28891   6.180  13.471  15.275  0.1983 -0.1285  0.2517
12818W        W28892  11.630   2.041   2.788  0.1159  0.0032  0.0790
12819W        W28893  14.691  15.759  15.210  0.0863 -0.1628  0.1698
12820W        W28894  17.421   1.744  13.267  0.1962 -0.2329 -0.0463
12821W        W28895   3.619  17.249   1.877  0.2276 -0.0400 -0.0895
12822W        W28896   6.814   8.283  15.080 -0.0378 -0.3764 -0.0208
12823W        W28897   5.362   1.338  11.380 -0.0359 -0.1969  0.1676
12824W        W28898   0.506   2.918   5.453  0.1545 -0.1589  0.0280
12825W        W28899  11.872   3.801  11.277 -0.2030  0.0345 -0.1752
12826W        W28900   3.501   3.251   4.736 -0.0177  0.1921  0.0988
12827W        W28901  15.864  17.278   0.373 -0.0210  0.0909 -0.2211
12828W        W28902  12.187   8.396  11.449  0.1249 -0.0739  0.2333
12829W        W28903   8.234   4.188   0.522  0.1037 -0.1715 -0.1512
12830W        W28904   1.446   5.233   0.554 -0.0115 -0.1312  0.0411
12831W        W28905  10.281  17.801   3.827  0.0585  0.5395  0.1221
12832W        W28906  15.990   8.955   1.252  0.5765  0.0387  0.0485
12833W        W28907   0.967  16.676   4.619 -0.1789 -0.0369  0.0784
12834W        W28908  15.663   4.389   4.846  0.2685  0.1231  0.0199
12835W        W28909  15.512  14.178   4.068  0.1009 -0.4638 -0.1799
12836W        W28910  13.801   6.792  12.000  0.0434  0.0101  0.0408
12837W        W28911  10.860  10.290  11.366  0.2954  0.0856  0.3343
12838W        W28912   4.134   3.382   3.962 -0.2694  0.2764  0.0415
12839W        W28913   6.973  11.179   4.499  0.2086 -0.1500  0.0113
12840W        W28914  15.960   4.111  14.312 -0.0073  0.3570  0.0242
12841W        W28915  14.600  13.961   2.443  0.2462 -0.1029 -0.1143
12842W        W28916   4.723   0.478   3.892 -0.0502 -0.1248  0.1245
12843W        W28917   9.616  17.409  11.367 -0.0751 -0.0258  0.1114
12844W        W28918   7.683  16.656   1.213  0.2539  0.3526  0.0834
12845W        W28919  11.763   0.693   3.946  0.3523  0.1660  0.1512
12846W        W28920  13.256  14.670  13.397  0.3474  0.3734  0.1132
12847W        W28921  12.891  15.175   1.493  0.0843 -0.2155 -0.2066
12848W        W28922  15.122   8.389   4.434  0.4183  0.3404  0.2463
12849W        W28923  13.204   5.591   3.349  0.1326 -0.2048  0.0451
12850W        W28924  17.544   4.220  15.026 -0.0320  0.1746  0.3429
12851W        W28925  15.915  11.915   0.550 -0.0115 -0.0256 -0.0462
12852W        W28926   1.810   2.815  14.145 -0.2698 -0.1161  0.0994
12853W        W28927  17.505  15.037  15.871  0.3972 -0.2256 -0.0428
12854W        W28928  17.077   9.320  11.745 -0.0909  0.0898 -0.3111
12855W        W28929  18.386  12.281   2.618 -0.0155 -0.0715 -0.0111
12856W        W28930   6.425   9.058   5.885 -0.1023 -0.2524  0.0522
12857W        W28931  13.720  13.073  11.423 -0.0133 -0.2601  0.0733
12858W        W28932  15.388   2.932  13.464 -0.2165  0.1339  0.2087
12859W        W28933   9.671  13.474   3.528 -0.1788  0.1707 -0.1671
12860W        W28934  10.448   7.849   2.992  0.1092 -0.2026  0.0853
12861W        W28935   3.772   9.090   5.131 -0.2176 -0.0672  0.0985
12862W        W28936  12.779   9.761   1.654  0.0631 -0.0529 -0.0262
12863W        W28937  14.924   3.184  14.003  0.2648  0.1410  0.1181
12864W        W28938  18.392   5.182   1.922  0.1703 -0.0502  0.0622
12865W        W28939  17.874  10.218  11.468  0.1095 -0.3273 -0.2290
12866W        W28940  12.300  14.289   3.019  0.2869  0.1157 -0.0980
12867W        W28941   4.128  15.000  11.540  0.0500 -0.2135  0.0911
12868W        W28942   4.056   2.563  13.787 -0.3309  0.2155  0.0185
12869W        W28943  16.551  15.644   4.084  0.3518 -0.1576 -0.0990
12870W        W28944  14.959   1.807   3.418  0.1596 -0.0190 -0.2357
12871W        W28945  11.692   4.776  12.860 -0.0886 -0.0477 -0.0558
12872W        W28946   5.729   5.215  12.956  0.3655  0.0706 -0.0479
12873W        W28947  15.812   3.002  14.331  0.0371  0.2848 -0.1020
12874W        W28948   6.222  14.544  15.248  0.0849 -0.0319 -0.0039
12875W        W28949   4.889  16.949   1.536 -0.3066 -0.0731  0.0151
12876W        W28950  18.158  13.327   5.770 -0.1577  0.0963  0.1886
12877W        W28951  13.383   8.560  13.992  0.2360 -0.0161  0.0642
12878W        W28952  10.839  10.234   4.163  0.4001 -0.0340 -0.0890
12879W        W28953   7.818  17.951   0.549  0.0311 -0.0396  0.2304
12880W        W28954   1.104   1.656   4.802  0.1830  0.0436 -0.3107
12881W        W28955   6.197   3.400   1.522  0.1224  0.1734 -0.3912
12882W        W28956  10.399  14.622  14.917  0.0543  0.2962 -0.3731
12883W        W28957  14.941  13.198   1.982 -0.0326 -0.1217  0.2980
12884W        W28958   2.348   5.304   3.462  0.0977 -0.0255  0.0553
12885W        W28959   7.455   2.572  13.206 -0.0523 -0.2482  0.3914
12886W        W28960   4.964  15.159   2.177 -0.1198 -0.1340 -0.0352
12887W        W28961   9.413  14.532   0.134  0.5659 -0.1299 -0.1400
12888W        W28962   6.208  14.246  11.963  0.0194 -0.0604  0.1136
12889W        W28963  10.423  13.745  13.863 -0.0537  0.1458  0.4502
12890W        W28964   3.455   0.453  11.306  0.0881  0.0569 -0.0552
12891W        W28965   8.335  13.319   0.641  0.0020 -0.0482  0.1221
12892W        W28966   6.756   5.679   1.515 -0.0072 -0.0455  0.0624
12893W        W28967   0.733  11.387   1.073  0.1974 -0.1829  0.2045
12894W        W28968  10.021  16.667   3.851  0.0659  0.0211  0.0144
12895W        W28969  16.937  18.416  14.759 -0.1174  0.1948 -0.4636
12896W        W28970   1.188   0.972  15.947  0.0699 -0.4170  0.5514
12897W        W28971  11.431  12.326   2.046  0.0507  0.1028 -0.2094
12898W        W28972   8.563   6.732  12.841  0.0204 -0.1395  0.0384
12899W        W28973   8.484  14.138   1.885  0.0354  0.0304 -0.0247
12900W        W28974   5.727   0.729   3.240  0.0214 -0.2419 -0.0883
12901W        W28975   2.152   8.381  13.357 -0.0633 -0.1843  0.1493
12902W        W28976   0.489   2.929   0.157  0.0932 -0.0666  0.4008
12903W        W28977  16.726   2.679   0.368 -0.2785 -0.3050 -0.2993
12904W        W28978  14.396   9.641  14.405 -0.1858 -0.1165  0.1304
12905W        W28979   7.986  12.892  15.676 -0.0036  0.0183  0.0910
12906W        W28980   4.574   5.249   5.093  0.2132 -0.0101  0.1188
12907W        W28981   5.908   4.669  13.743 -0.3298 -0.3102 -0.1154
12908W        W28982  12.827   6.590  13.149  0.1186 -0.1427 -0.1399
12909W        W28983  17.566   6.935   4.495 -0.1866 -0.2244 -0.0022
12910W        W28984  13.938   9.828  11.814 -0.2376  0.3171 -0.0394
12911W        W28985  11.272  13.506   9.866  0.1732  0.1586 -0.1065
12912W        W28986  13.829   4.930   1.860 -0.0334  0.5236  0.4990
12913W        W28987  17.005   7.379  16.024  0.1409  0.1311 -0.2717
12914W        W28988   5.664   3.854  12.388 -0.2047  0.1201 -0.0634
12915W        W28989  10.947   1.964   2.793 -0.4299 -0.0416 -0.1619
12916W        W28990   5.391   1.579   4.163 -0.2126 -0.2934  0.2300
12917W        W28991  14.025  14.868   0.017  0.0283 -0.2701  0.0139
12918W        W28992   4.391   2.332  11.013 -0.2921  0.2511 -0.0888
12919W        W28993   5.907  16.306   3.316 -0.3359 -0.2261  0.0159
12920W        W28994   2.098   3.931   5.402  0.0421 -0.2057 -0.1368
12921W        W28995   8.728  14.554   6.299  0.5210 -0.0012  0.2381
12922W        W28996   3.384  17.642   0.081 -0.0508 -0.0706 -0.0587
12923W        W28997  16.665   5.024   2.334 -0.1423 -0.2390  0.1419
12924W        W28998  17.770   7.505  13.039 -0.0966 -0.0362  0.1444
12925W        W28999   7.179   4.233  15.586 -0.1908  0.1350  0.0813
12926W        W29000  12.421   2.687   4.363 -0.0963  0.1354  0.0982
12927W        W29001  14.654  13.136  11.716 -0.2509 -0.0863  0.0433
12928W        W29002  14.102   0.781   9.567 -0.2872  0.0309 -0.0160
12929W        W29003  12.321  15.485  15.629 -0.0634 -0.0399  0.0403
12930W        W29004   3.343   5.600  15.579  0.2495 -0.2477 -0.1273
12931W        W29005   6.347   9.395   2.465  0.0803 -0.2985 -0.0602
12932W        W29006   2.501  11.436  11.857 -0.2933 -0.0293  0.2056
12933W        W29007   3.248   3.595   5.366 -0.1164 -0.0461  0.0651
12934W        W29008  16.740  16.047   5.719 -0.0554  0.2744 -0.1625
12935W        W29009  13.749  12.499   4.050 -0.2468  0.1625 -0.2365
12936W        W29010   5.537   9.433  12.166  0.1694 -0.1595 -0.0363
12937W        W29011  13.893  15.360  15.342 -0.3738  0.0050  0.2582
12938W        W29012   7.101   2.189  12.938 -0.0304  0.1885  0.0839
12939W        W29013  17.717   3.443  14.716 -0.3251  0.1737  0.0527
12940W        W29014   0.906   1.205  12.665  0.1184 -0.0277  0.2270
12941W        W29015   3.161  15.597  11.082 -0.0106 -0.2222 -0.0174
12942W        W29016   0.264  12.338  13.084 -0.3835  0.0409  0.1887
12943W        W29017   2.065   2.895  12.113 -0.4376 -0.2928  0.0755
12944W        W29018   3.925  17.301  12.898  0.1432  0.1296  0.0094
12945W        W29019  15.577   3.363  10.862  0.2344 -0.0630 -0.0872
12946W        W29020  15.320   9.553  15.763 -0.1913  0.0135 -0.3034
12947W        W29021  16.457   5.356  10.884 -0.1384 -0.0154  0.2029
12948W        W29022  15.265   3.315   0.375 -0.0864  0.0697 -0.1458
12949W        W29023  11.702   1.185   3.199  0.0480  0.0476  0.1188
12950W        W29024   2.881  10.464   2.201 -0.1079 -0.0077  0.1426
12951W        W29025  11.986  17.721  11.937 -0.1572 -0.2928 -0.0620
12952W        W29026   8.222   9.982   1.961 -0.1100 -0.1582 -0.1871
12953W        W29027   8.438   0.166  12.272  0.2193 -0.0824  0.2599
12954W        W29028  11.548   0.017  14.109  0.1282  0.1711  0.3231
12955W        W29029   6.231   5.081   2.676 -0.2174 -0.0865  0.3129
12956W        W29030  13.287   4.093   5.359  0.0858 -0.0218  0.1912
12957W        W29031  14.020  12.131   4.848 -0.0656  0.3062  0.1462
12958W        W29032  13.904   5.111  12.058 -0.5916 -0.1766  0.1874
12959W        W29033  12.893   2.035  14.094  0.0971  0.0254  0.1339
12960W        W29034  14.039   7.725   3.969 -0.2232 -0.1602  0.0214
12961W        W29035  12.248   0.713   0.435 -0.3127  0.0084 -0.0994
12962W        W29036   3.384  14.232   3.943 -0.1333  0.3477 -0.0280
12963W        W29037  15.472  16.071   4.875  0.0097  0.0120 -0.1949
12964W        W29038  16.575  14.051   4.535  0.1379 -0.0584 -0.2025
12965W        W29039   2.492  13.695   1.443  0.1574 -0.0314  0.1583
12966W        W29040   1.286  17.648   0.453 -0.1657  0.2077 -0.1681
12967W        W29041   4.845  16.359  14.041  0.0195 -0.0887 -0.0076
12968W        W29042   2.109   6.070  14.305  0.0641  0.3075 -0.0687
12969W        W29043   8.557   7.688   4.061 -0.0482 -0.3039 -0.1242
12970W        W29044  10.981   8.630   3.254  0.0598  0.2184 -0.1892
12971W        W29045   8.639  16.642  11.498 -0.2367  0.1062  0.0342
12972W        W29046  14.880   8.052  13.385 -0.3734 -0.1537 -0.2184
12973W        W29047   6.910   3.348  14.981 -0.1130  0.1009  0.1808
12974W        W29048   0.527  17.523   4.836  0.0327  0.0566 -0.1523
12975W        W29049  12.794   1.122  14.747  0.0695  0.5530 -0.1366
12976W        W29050   2.463   8.341   3.670 -0.0284 -0.3850 -0.3300
12977W        W29051   4.062  14.012  15.794 -0.1955 -0.2099 -0.1059
12978W        W29052   9.555  11.062  11.807 -0.0934 -0.0926  0.0948
12979W        W29053  15.837   3.815   1.881 -0.2098 -0.0389  0.2080
12980W        W29054  14.506   9.710  15.545  0.0189  0.3866 -0.1302
12981W        W29055  17.140  11.641   3.020 -0.0338 -0.0414  0.2438
12982W        W29056   3.203   2.272  13.353  0.1698  0.3923 -0.2999
12983W        W29057   1.759  17.081   3.310 -0.2782  0.0114 -0.1074
12984W        W29058   5.529   8.974   1.434  0.0743 -0.2056  0.0491
12985W        W29059  16.114  14.102  16.001 -0.0593 -0.0650  0.3125
12986W        W29060   5.902   6.964  13.605 -0.2127  0.0101  0.0671
12987W        W29061  18.310   2.877  10.871  0.1664  0.1958 -0.0223
12988W        W29062   7.381   8.081  11.814 -0.1077  0.1911 -0.1759
12989W        W29063  14.234  10.820   0.986  0.0365 -0.0323  0.1181
12990W        W29064  17.195   5.549  13.450  0.3374 -0.3873 -0.1502
12991W        W29065   1.123  11.089  13.543  0.1052  0.1454  0.0179
12992W        W29066   9.955  13.764   3.851  0.2442 -0.0586  0.1727
12993W        W29067  11.976  18.334   5.330  0.0455  0.1191  0.4402
12994W        W29068   2.863  14.625  15.255  0.0676  0.3288 -0.0229
12995W        W29069   0.185   9.111   6.195  0.1513  0.1946  0.4979
12996W        W29070   8.971  15.634   1.140  0.0406  0.1247 -0.0534
12997W        W29071   3.675  13.476  14.737  0.0645  0.0975  0.0876
12998W        W29072   3.769  12.365  15.533  0.2672 -0.0928 -0.2267
12999W        W29073  18.009  15.538  12.361  0.0158 -0.3023 -0.1332
13000W        W29074  12.725  15.921  13.139  0.1642  0.2457  0.0468
13001W        W29075  14.946  15.393   3.197  0.0070 -0.1780  0.0893
13002W        W29076   9.820   1.759  14.580 -0.1589  0.0584 -0.3383
13003W        W29077  14.038   0.203   3.880 -0.0004 -0.0649 -0.2850
13004W        W29078   3.681   6.675   3.985  0.2317  0.0724 -0.1686
13005W        W29079   4.566   7.954   3.938 -0.0696 -0.1755 -0.2606
13006W        W29080  17.238   8.841   0.772  0.2511 -0.0400 -0.0010
13007W        W29081  12.277   4.172   1.356 -0.2441 -0.0068  0.0043
13008W        W29082  13.119  11.637   3.211 -0.0752 -0.0333  0.0672
13009W        W29083   3.152   0.564   4.533 -0.0090  0.1025  0.1439
13010W        W29084   9.052  15.185   0.637 -0.0950  0.3919  0.1839
13011W        W29085   8.841  14.847   4.539  0.0039 -0.0145 -0.0119
13012W        W29086   8.101  12.580  11.545  0.1101 -0.2226 -0.1214
13013W        W29087   3.937  12.962   2.067  0.1523 -0.3651 -0.3014
13014W        W29088  11.275   4.319  12.744  0.1486 -0.1677 -0.0064
13015W        W29089   4.582   2.643   4.449  0.2392 -0.1127 -0.5315
13016W        W29090   6.948   5.672   2.132 -0.1238 -0.0567 -0.3434
13017W        W29091   1.843  12.302  13.388  0.1815  0.3967 -0.1920
13018W        W29092   8.285  18.438  12.740  0.0022  0.4677  0.0023
13019W        W29093  14.289   8.101   4.229 -0.2055  0.0065 -0.1862
13020W        W29094   2.333  14.162   0.316 -0.3287  0.0273  0.1412
13021W        W29095   8.787   0.920  13.139 -0.1206  0.3320  0.1479
13022W        W29096   3.009   7.620   1.402  0.2253  0.1127  0.1026
13023W        W29097   4.894  16.181  11.279 -0.1540  0.1080 -0.0105
13024W        W29098   7.152   6.527  14.377 -0.0208 -0.1600 -0.0719
13025W        W29099   6.093   8.321   2.562 -0.1799  0.0027  0.1371
13026W        W29100   9.021  13.925   4.223  0.1853 -0.0373  0.0493
13027W        W29101   8.292  10.874  12.220 -0.0543 -0.0796 -0.1073
13028W        W29102   4.867  14.365   5.857 -0.1370  0.0350 -0.0542
13029W        W29103  10.681   8.965   3.067  0.0712 -0.0344  0.0525
13030W        W29104   1.520   2.516   3.473 -0.2140  0.2695 -0.0254
13031W        W29105   4.241  11.050  12.414  0.0592 -0.2989 -0.2142
13032W        W29106   6.782   8.104   2.209  0.4203  0.1016 -0.3104
13033W        W29107  10.881   8.389   5.561 -0.3074 -0.0123 -0.0712
13034W        W29108   2.987   3.843  11.542  0.3786  0.1884 -0.2351
13035W        W29109   6.489   7.598   3.681 -0.0446 -0.1828 -0.1440
13036W        W29110   4.872   0.723   5.157  0.2808  0.2810  0.0290
13037W        W29111  12.572   4.276  14.707 -0.1223  0.5493 -0.2292
13038W        W29112   1.010   4.537  15.574  0.0695  0.0178 -0.0685
13039W        W29113  15.773   4.888  13.731 -0.0265 -0.1106  0.0101
13040W        W29114   4.334  15.978   4.420 -0.3270 -0.0698  0.0728
13041W        W29115  15.222   8.863   3.144  0.0048  0.1467  0.1546
13042W        W29116  14.202   8.814   0.131 -0.0125 -0.0040  0.1371
13043W        W29117   3.847   5.607   4.551 -0.0618 -0.0659 -0.1406
13044W        W29118   9.937   9.529  14.334 -0.2086  0.0594  0.2800
13045W        W29119  13.591   7.824   2.745  0.2154 -0.2261  0.1245
13046W        W29120  18.214   9.717  12.551  0.2415 -0.0192 -0.3029
13047W        W29121  13.251  18.284  12.098 -0.1529  0.2407 -0.2852
13048W        W29122  17.329  12.620  15.684  0.1313 -0.1635 -0.3108
13049W        W29123   1.694   9.683   2.982  0.0465  0.0709  0.1373
13050W        W29124  15.998  16.681  14.691  0.2422 -0.1796  0.1162
13051W        W29125  16.322   8.559   3.411  0.2019 -0.3891 -0.1379
13052W        W29126  15.629   6.065   1.932  0.0258  0.2698 -0.0662
13053W        W29127   5.314  13.542   3.205  0.0063  0.1012  0.3924
13054W        W29128  17.821   9.916  15.913 -0.0456  0.0815 -0.0262
13055W        W29129  13.006   8.334   3.042 -0.2000 -0.0412 -0.2731
13056W        W29130  11.307   2.192   3.701  0.1845 -0.0222 -0.2375
13057W        W29131   2.470  10.815   0.096 -0.1337  0.1779  0.2032
13058W        W29132  15.595  14.434   3.086 -0.4487  0.0447 -0.4415
13059W        W29133  13.588   7.677  12.054  0.0942 -0.0206 -0.1147
13060W        W29134   7.152  16.543   0.032 -0.0814  0.2101 -0.1400
13061W        W29135  10.147  16.363  12.105 -0.3521  0.1757  0.2106
13062W        W29136   2.162   3.274   3.375 -0.3504  0.0203 -0.1669
13063W        W29137   7.613  14.836  11.296  0.0666 -0.0466  0.1415
13064W        W29138   9.472   9.586  14.076 -0.3136  0.3312  0.0121
13065W        W29139   1.007  17.676  12.666  0.2804 -0.2851 -0.4032
13066W        W29140  17.781   8.495   3.508  0.1570  0.1725  0.2349
13067W        W29141   1.341   2.355  12.462  0.3494 -0.2958  0.0323
13068W        W29142  10.852   2.915  11.858  0.1658  0.0752  0.3658
13069W        W29143   0.077  18.401   5.234 -0.2185  0.4044 -0.0168
13070W        W29144   9.222  16.769  14.303 -0.1150  0.1081 -0.3020
13071W        W29145  14.949  11.491   5.088  0.3596 -0.1905  0.0430
13072W        W29146  16.579   9.365  14.880 -0.0311  0.0509 -0.0939
13073W        W29147   5.401  11.090  15.147  0.1339  0.1804 -0.1696
13074W        W29148   7.513  14.006  15.543  0.3800 -0.2303  0.0348
13075W        W29149  11.738  14.199  15.596 -0.0959 -0.1308  0.0043
13076W        W29150   4.147   4.096   0.782  0.2607  0.0789  0.0792
13077W        W29151  10.812  12.678   2.990 -0.0578 -0.1207  0.0370
13078W        W29152   6.474  17.986  15.332  0.0274 -0.2584 -0.1076
13079W        W29153  16.176   8.439   1.507  0.1121 -0.1946 -0.0208
13080W        W29154   5.064  10.838   4.529  0.0542 -0.3554 -0.1329
13081W        W29155   1.253   2.759   4.945  0.0563 -0.5970 -0.0464
13082W        W29156  17.223   5.166  11.557 -0.1849 -0.0321 -0.0250
13083W        W29157  17.857  14.539  14.337 -0.1449 -0.1450 -0.1823
13084W        W29158   4.339  13.509   0.692  0.0267  0.1630  0.2437
13085W        W29159   7.202  10.722  14.420 -0.0503  0.3298 -0.2838
13086W        W29160  17.826   4.502   2.265 -0.1195 -0.1972 -0.0009
13087W        W29161  17.208   2.027  12.932  0.3709  0.2001 -0.1794
13088W        W29162   2.578  14.493  11.762  0.0661 -0.2767 -0.2256
13089W        W29163   8.033   6.412   4.052  0.1354 -0.1226  0.0712
13090W        W29164  14.267   4.909   9.847 -0.1351 -0.1454 -0.1037
13091W        W29165   0.265   3.328  15.417  0.0337 -0.0155  0.2717
13092W        W29166  12.079  18.080   0.004 -0.0929  0.2091 -0.1588
13093W        W29167   2.595  13.297   3.595 -0.0827  0.0300 -0.0281
13094W        W29168  17.375  16.325   0.611 -0.2620  0.0119 -0.1572
13095W        W29169   6.527   1.338  13.330  0.2257  0.0649 -0.1395
13096W        W29170   3.331   5.357   3.070 -0.0167 -0.1350  0.2262
13097W        W29171   7.968   3.931   4.943 -0.0046  0.0264 -0.2882
13098W        W29172   2.265  16.273   5.477  0.2031 -0.1881  0.0066
13099W        W29173   8.335  13.110  10.179 -0.0554 -0.1403  0.0480
13100W        W29174   3.443   0.289   2.479 -0.2467 -0.2523  0.3183
13101W        W29175   5.932   5.255   5.107  0.0638 -0.1953 -0.0347
13102W        W29176  18.031   3.087  13.067  0.1909 -0.3211  0.2824
13103W        W29177  10.558  14.177   2.512 -0.1284  0.0881  0.1229
13104W        W29178   6.504   4.468  15.204 -0.0138 -0.0289  0.1373
13105W        W29179  10.309  17.966  12.925  0.3146  0.2655  0.0373
13106W        W29180   3.843   1.708  12.310  0.0264  0.1304 -0.0486
13107W        W29181   4.893   4.608   2.425  0.0162  0.1363  0.1157
13108W        W29182   3.764  17.585  15.650  0.0197 -0.1972  0.1517
13109W        W29183  18.570  16.431   1.523  0.1821 -0.3122  0.0787
13110W        W29184  11.657  12.659  13.973  0.1241 -0.0140 -0.1409
13111W        W29185   9.477   1.732  14.018 -0.1026 -0.1364  0.3629
13112W        W29186  13.933   7.950  14.611  0.1467 -0.0543  0.0753
13113W        W29187  10.240   4.083  12.397  0.1046 -0.0566 -0.1237
13114W        W29188  17.481  12.480   5.357  0.1393 -0.1262  0.0730
13115W        W29189  16.234   8.979   1.740 -0.1565 -0.1480  0.1761
13116W        W29190  10.958  12.075   3.071  0.2511  0.2354  0.0449
13117W        W29191   8.816   3.222  15.790 -0.1200 -0.0101  0.1945
13118W        W29192  10.620   6.743   2.102  0.4103 -0.0611 -0.0314
13119W        W29193  13.923  17.007  14.704  0.1515 -0.0479 -0.0354
13120W        W29194   3.639  10.463  11.981 -0.1615  0.2279  0.0037
13121W        W29195  17.299  17.976  11.917 -0.0015 -0.0288  0.1899
13122W        W29196   0.885   5.028   1.053 -0.2157 -0.2749 -0.0001
13123W        W29197   5.304  15.132  14.001 -0.3724  0.1550  0.1828
13124W        W29198  16.757  11.366   0.241 -0.0529 -0.0094  0.0909
13125W        W29199   2.103  14.519   4.174  0.1411 -0.0073  0.1095
13126W        W29200  10.844   6.937   1.463  0.0433  0.1859  0.3053
13127W        W29201  12.088  11.875  10.996 -0.3566  0.0737  0.1092
13128W        W29202  14.608  15.544  12.583 -0.3843  0.1343  0.0552
13129W        W29203  12.028  16.264  15.025  0.2596  0.1491  0.1166
13130W        W29204  13.609  17.570   4.171 -0.0609 -0.0210 -0.1819
13131W        W29205   1.796  16.519  14.858 -0.0568  0.0909 -0.0419
13132W        W29206   4.053   5.050   1.601  0.1421 -0.1755 -0.1186
13133W        W29207  10.256   2.305  15.881  0.0214 -0.5707  0.1799
13134W        W29208   1.855   7.484  14.908 -0.0356  0.2022  0.0956
13135W        W29209   6.314  14.774   1.988 -0.0870  0.0081 -0.1811
13136W        W29210  16.825  14.950   3.231 -0.2885  0.1643 -0.0429
13137W        W29211   4.070   1.555  11.395  0.1734  0.0875 -0.1100
13138W        W29212  14.713  11.323   4.594  0.0576  0.0028  0.0051
13139W        W29213  15.630  12.991  13.182 -0.2344 -0.0555  0.2446
13140W        W29214  15.225  13.573  14.488  0.1272  0.2507 -0.2034
13141W        W29215  11.401   1.478  12.727 -0.2599 -0.0419  0.2545
13142W        W29216  18.301   4.884  12.866 -0.0661  0.3068 -0.0139
13143W        W29217  13.355   6.000   0.077  0.0917  0.2545  0.1264
13144W        W29218   2.783  10.701   4.975 -0.2703 -0.2050  0.0779
13145W        W29219  10.784   8.020  15.898 -0.0168  0.0035 -0.3024
13146W        W29220  15.575   6.284   4.688  0.1341 -0.0883  0.2504
13147W        W29221   0.484   4.019  10.812  0.1065  0.0528 -0.2090
13148W        W29222  10.443   8.300   2.493  0.1216  0.0487 -0.1212
13149W        W29223  13.439  11.106   0.274 -0.1205 -0.0614  0.1352
13150W        W29224  17.173   0.490   1.871  0.0937 -0.0067 -0.2543
13151W        W29225   7.960   0.731  11.442  0.0999 -0.1170 -0.0554
13152W        W29226   1.258   1.955   2.712 -0.1128 -0.3993 -0.0504
13153W        W29227   2.320   6.964   0.292  0.2258 -0.3841  0.0297
13154W        W29228   3.187  14.733   2.139  0.1263  0.0684 -0.0178
13155W        W29229   3.161  12.075   1.493  0.2772  0.0124 -0.2068
13156W        W29230   3.349  15.396   3.016  0.1717  0.3318  0.2674
13157W        W29231  13.329   6.110  10.954 -0.0793  0.1193  0.2208
13158W        W29232   3.395  10.937  12.107 -0.1334  0.0492  0.2363
13159W        W29233  13.540   0.980  10.597  0.0164 -0.1612 -0.0302
13160W        W29234  16.112  12.405   4.278  0.2301 -0.0769  0.0042
13161W        W29235  11.887   1.407   5.000  0.1870 -0.0988 -0.1827
13162W        W29236   0.623  15.933   0.710  0.3933 -0.1831 -0.2322
13163W        W29237  16.456   4.570   2.282  0.0377 -0.0066  0.0555
13164W        W29238  12.887   6.899   4.904 -0.2725  0.1859 -0.0552
13165W        W29239   9.148  11.182   3.433  0.1707  0.1641 -0.1223
13166W        W29240  13.577  14.574   5.058 -0.1937  0.1918  0.1758
13167W        W29241   6.648  10.355  12.385  0.2427 -0.1246  0.2912
13168W        W29242  13.561   7.894   2.220  0.1764 -0.1583 -0.1159
13169W        W29243  17.899  16.098  13.794  0.0367  0.6713 -0.0149
13170W        W29244   7.518   2.995  12.893  0.0563 -0.0574 -0.0949
13171W        W29245   3.243  16.002  12.559  0.1390 -0.2358  0.3308
13172W        W29246  14.370   0.983   1.889 -0.0181  0.1426  0.0882
13173W        W29247   1.732  15.613   4.460  0.2988  0.1591  0.0080
13174W        W29248   9.247   7.359  11.169  0.0311  0.0901 -0.2410
13175W        W29249  11.719   4.466   0.232 -0.0420 -0.0255  0.2268
13176W        W29250   5.040  18.065  12.024  0.1188  0.0046  0.1814
13177W        W29251   7.410   6.199   3.346  0.1185  0.0349 -0.2775
13178W        W29252   5.960   5.226  13.590 -0.0880 -0.2616  0.0501
13179W        W29253  10.172   9.356  10.735  0.0892 -0.0631 -0.0380
13180W        W29254  10.661   7.195  12.838  0.0642 -0.2818 -0.1649
13181W        W29255   6.858  12.794  15.426 -0.1463  0.1886  0.1185
13182W        W29256   1.289  11.715   5.763  0.0551 -0.3821  0.1814
13183W        W29257   6.777   0.319  15.458  0.1974 -0.2208 -0.3871
13184W        W29258   1.590  15.168   3.636  0.0438  0.1327 -0.0343
13185W        W29259  17.409   8.090   3.900 -0.1565 -0.1758 -0.0654
13186W        W29260   7.514   5.780  15.243 -0.1822 -0.0876  0.0897
13187W        W29261   0.008  10.577  14.033  0.0676 -0.0071  0.1471
13188W        W29262   8.132   3.613  12.061  0.2489 -0.3707  0.3335
13189W        W29263   9.713   2.109   2.552 -0.2242 -0.0576 -0.1031
13190W        W29264   8.003  16.252  15.812  0.0839  0.1427 -0.1434
13191W        W29265   5.485  12.260   3.062 -0.2381  0.2029 -0.0379
13192W        W29266   8.777  16.259   2.460 -0.2107 -0.0106 -0.1280
13193W        W29267   4.994   5.622   2.428 -0.2067  0.0773  0.2909
13194W        W29268  15.647   1.039   1.277  0.0398  0.1009  0.1235
13195W        W29269  11.024   2.441   1.212  0.4246 -0.1200  0.1400
13196W        W29270  12.670  17.525  11.216  0.3769 -0.1284  0.0671
13197W        W29271  10.991   7.192  11.454  0.3317  0.1413  0.1015
13198W        W29272  18.097  17.879   4.721  0.0882 -0.0828  0.2288
13199W        W29273   0.609   6.968   0.890  0.0780  0.4041 -0.0582
13200W        W29274   1.739   9.453  13.236 -0.2425 -0.0476 -0.2888
13201W        W29275  10.859  17.057  15.555  0.0022 -0.0495 -0.0755
13202W        W29276  12.709   3.096   0.717 -0.0985 -0.3184 -0.1070
13203W        W29277  10.094   1.405  12.978  0.3254  0.0309  0.2000
13204W        W29278   7.177   5.869   1.709  0.1509 -0.1281 -0.0330
13205W        W29279  10.296  16.654  15.024  0.0328  0.2454 -0.1129
13206W        W29280  10.991   9.606  14.835  0.1840 -0.3248 -0.0411
13207W        W29281  10.814  12.356   5.215  0.0517  0.0542 -0.1206
13208W        W29282   8.493  11.264  14.141 -0.1182  0.1776  0.0147
13209W        W29283  10.859  17.535   3.654 -0.1736  0.0094  0.0731
13210W        W29284  17.345   9.160  13.445  0.2598 -0.1280  0.2652
13211W        W29285  12.414   0.773  12.307 -0.1831  0.0273 -0.1106
13212W        W29286   4.226   2.213   3.223 -0.0915  0.1810  0.2930
13213W        W29287   5.296   6.251   3.060 -0.0396  0.1855 -0.4008
13214W        W29288  11.690  13.679  12.306 -0.2134 -0.0763 -0.0016
13215W        W29289   6.093   5.850  12.190 -0.1298 -0.1563  0.3158
13216W        W29290  17.913  10.262  15.598 -0.0266 -0.1320  0.1659
13217W        W29291  12.107  17.414   4.477 -0.0772 -0.2059  0.0471
13218W        W29292   1.992   7.148   3.938 -0.1760 -0.3135 -0.1861
13219W        W29293  17.636  13.664  12.755  0.2244 -0.0256 -0.0820
13220W        W29294   0.569   7.356   0.629  0.1078  0.0523  0.0238
13221W        W29295  17.696  13.723   0.723  0.0325  0.3766  0.0194
13222W        W29296  15.120   5.573  11.662 -0.2043  0.0486  0.0371
13223W        W29297  16.516  11.877   0.772  0.0009 -0.2315 -0.1237
13224W        W29298   3.124  17.308  11.662 -0.3068 -0.0594 -0.0876
13225W        W29299   9.942   1.604  14.018  0.1263 -0.0689 -0.1134
13226W        W29300   9.104   9.389   0.882  0.0160 -0.2291 -0.1806
13227W        W29301   1.515   9.799  13.539  0.0294  0.2139  0.0131
13228W        W29302   4.345   4.428   0.351  0.2391  0.0454  0.0749
13229W        W29303   7.824   6.805  11.603 -0.0976  0.0722 -0.0600
13230W        W29304  12.298   3.064  10.694  0.1034  0.1474 -0.1045
13231W        W29305  16.600   6.148   0.913 -0.0086 -0.1828 -0.0611
13232W        W29306  17.588   8.635   1.444  0.2142 -0.2675  0.2572
13233W        W29307  15.181  16.291   0.771  0.0184 -0.1842 -0.4561
13234W        W29308  15.755  12.579  14.172  0.0037 -0.3964  0.2083
13235W        W29309  11.168  14.220  14.995 -0.1230  0.0383  0.1760
13236W        W29310  10.320  18.289   3.939 -0.0395 -0.0069  0.1592
13237W        W29311  10.424  17.078  10.828 -0.0391 -0.2290 -0.0098
13238W        W29312   5.134   9.185   4.488 -0.3210 -0.2782 -0.0721
13239W        W29313   5.614  13.720  14.020 -0.3123  0.2408  0.3177
13240W        W29314   9.297   8.327   0.526 -0.0530  0.1263 -0.0755
13241W        W29315   7.105  15.710  12.693  0.0941  0.0731 -0.3134
13242W        W29316   0.014   3.394   0.843 -0.2497 -0.0951 -0.1272
13243W        W29317  18.486   6.299  13.109 -0.2375  0.0019  0.2245
13244W        W29318   4.659  15.292  15.784  0.0095 -0.1412  0.1994
13245W        W29319  12.466   6.647   3.726 -0.1323  0.0936  0.0541
13246W        W29320  12.900   3.085  14.180 -0.0501  0.1621 -0.2291
13247W        W29321  10.289   5.361  14.342  0.3768 -0.0180 -0.1166
13248W        W29322  11.115  16.750   1.835 -0.2611 -0.0995  0.2393
13249W        W29323  13.185  12.605  15.869  0.0869  0.3848  0.1119
13250W        W29324  17.881  14.721   5.754  0.3341  0.1186  0.3945
13251W        W29325   9.318   5.320  15.897  0.2068  0.0979 -0.1146
13252W        W29326  16.082   9.855  13.490 -0.0729 -0.2256 -0.0035
13253W        W29327   4.627  12.736  15.545 -0.1725  0.0306  0.0503
13254W        W29328  17.729   9.291   4.792  0.1173 -0.2364 -0.0949
13255W        W29329   0.087  10.132   1.369  0.1931  0.2526  0.4160
13256W        W29330  16.735  14.857  12.354  0.1441 -0.0236  0.1957
13257W        W29331   4.937   2.012  14.780  0.2443 -0.0430 -0.1359
13258W        W29332  11.123  13.720   1.207  0.0147 -0.1372 -0.1468
13259W        W29333   9.838   4.463   2.749  0.0437  0.0685  0.0206
13260W        W29334  15.966  11.917  12.458  0.3376  0.1354 -0.0090
13261W        W29335   8.912   9.633  13.240  0.0182 -0.0188  0.3080
13262W        W29336   9.594  13.968   2.259  0.4363 -0.1404  0.0850
13263W        W29337   9.197  15.312  15.816 -0.0783 -0.1037 -0.2597
13264W        W29338   2.124   1.841   4.630 -0.3983 -0.0173  0.2217
13265W        W29339   4.444   2.556  12.900  0.0830  0.1481 -0.3239
13266W        W29340   8.262   4.372   4.950  0.0808 -0.0425 -0.1700
13267W        W29341  11.301  16.502   2.671 -0.4437 -0.0015  0.1322
13268W        W29342  14.980  13.419  12.043 -0.0828  0.4158 -0.4395
13269W        W29343   2.123  10.007   3.687  0.0158  0.1193 -0.2707
13270W        W29344  10.830  13.112  13.328 -0.0950 -0.1938 -0.0899
13271W        W29345   1.179  13.398  12.575 -0.1833  0.2016 -0.2406
13272W        W29346   5.806  16.658  10.935 -0.3397 -0.1246 -0.1753
13273W        W29347  14.473  11.404   2.145  0.2061 -0.2229  0.0760
13274W        W29348  14.001  10.505  13.406 -0.2499 -0.1686  0.1287
13275W        W29349   9.106   7.529   2.805 -0.1146  0.1293  0.1340
13276W        W29350   9.237  12.139   1.176  0.0993 -0.1192  0.0319
13277W        W29351   3.296  13.129   1.243 -0.5048  0.1171  0.0490
13278W        W29352  12.719   1.723  11.995  0.0605  0.2453 -0.0666
13279W        W29353  10.580  15.947   2.562 -0.0156 -0.1685 -0.2224
13280W        W29354   5.280  17.605  11.535 -0.0513 -0.2000  0.2339
13281W        W29355   9.950  12.760  12.615 -0.1881  0.0135 -0.1128
13282W        W29356  17.348   5.234  12.098 -0.2711 -0.1522 -0.1305
13283W        W29357   4.283  16.295   1.443  0.2426 -0.0522  0.5340
13284W        W29358   1.188  15.983  11.822  0.3438  0.0786 -0.1069
13285W        W29359  14.516  12.360  14.440  0.0510 -0.0255 -0.0656
13286W        W29360   1.286  13.962   3.377 -0.0185  0.0417 -0.2989
13287W        W29361  15.503   7.822  14.680 -0.1818  0.2411 -0.4211
13288W        W29362   6.727  17.022  13.772  0.1339 -0.2042  0.0418
13289W        W29363  10.864  17.508   3.060  0.3603  0.1545  0.0817
13290W        W29364   1.176  17.881  11.760 -0.0544 -0.1836 -0.3728
13291W        W29365  12.992   4.243   4.442 -0.1235  0.0227 -0.1444
13292W        W29366  15.011  17.186   0.797  0.0888 -0.0157  0.0917
13293W        W29367   4.549  17.173  14.391 -0.1530 -0.0121  0.2663
13294W        W29368   0.549  10.411  14.459  0.2208 -0.1629 -0.2354
13295W        W29369  10.240   5.209  15.960 -0.3529 -0.3635  0.0699
13296W        W29370   3.436   6.760  15.851  0.0194  0.0376 -0.1128
13297W        W29371   8.270  14.167  10.345  0.2183 -0.1795  0.0351
13298W        W29372  16.147   0.407   3.917 -0.4230 -0.0556 -0.0842
13299W        W29373   3.072  17.938   2.312 -0.1082  0.3004 -0.0258
13300W        W29374  16.186  10.658   1.253 -0.1858  0.1637 -0.4367
13301W        W29375   0.244  18.201  13.291  0.0737  0.3208 -0.3392
13302W        W29376   1.996  15.653  12.267 -0.0813 -0.2377 -0.1406
13303W        W29377  11.030  14.557   3.348 -0.0651  0.0455  0.0209
13304W        W29378   4.670  14.746  14.109 -0.2989 -0.3707  0.2674
13305W        W29379  10.777   6.403  15.609  0.0790  0.2510  0.1435
13306W        W29380  12.035   8.431   3.954  0.1204 -0.3283 -0.2319
13307W        W29381  14.333   5.141   2.404 -0.2088 -0.1891  0.0553
13308W        W29382   0.099   0.017  13.702 -0.1308 -0.2266 -0.2370
13309W        W29383   9.522   2.062  15.410  0.0839 -0.0079 -0.0157
13310W        W29384   5.871   8.776   3.789 -0.1926  0.3243 -0.1491
13311W        W29385  18.467  13.608  14.404  0.2075 -0.0795 -0.3110
13312W        W29386   6.366   3.957  14.450  0.2008 -0.2826  0.1506
13313W        W29387  10.401   2.144  12.428 -0.2818 -0.1868  0.0704
13314W        W29388  18.091   1.199  12.544 -0.0324  0.1028 -0.2884
13315W        W29389  18.040   1.146  11.227 -0.3032  0.2627 -0.1533
13316W        W29390  11.458  16.313   4.793 -0.1192  0.1141  0.1434
13317W        W29391   3.088   9.677   3.878  0.0460 -0.0261 -0.0656
13318W        W29392  11.393   1.212  15.413 -0.0309  0.2223 -0.1758
13319W        W29393   4.932  10.074   3.423  0.1402  0.0803 -0.0242
13320W        W29394   1.516  17.299   0.104 -0.0534 -0.2884 -0.3002
13321W        W29395  14.905   9.278  15.121  0.3701  0.1676  0.5456
13322W        W29396   1.738   6.803  12.720 -0.0075  0.1781 -0.0173
13323W        W29397   3.970  11.411  13.719  0.1191 -0.2831 -0.2142
13324W        W29398   3.474   7.393   1.088  0.0695  0.1476 -0.1385
13325W        W29399   2.879   9.783  12.470 -0.0151  0.0165  0.1396
13326W        W29400   2.772   9.894   4.860 -0.0359  0.0127 -0.1327
13327W        W29401   2.079  13.739   5.883  0.0774 -0.1941 -0.0558
13328W        W29402  16.737   4.947   0.944  0.0540  0.0535  0.1183
13329W        W29403   7.683  15.946   1.613 -0.1455  0.1428  0.0162
13330W        W29404   9.761  14.410  11.358 -0.0067 -0.0893 -0.2945
13331W        W29405  13.975  15.892  13.659  0.0428  0.0329 -0.0305
13332W        W29406   0.929  12.029  13.672  0.0792 -0.0974 -0.0166
13333W        W29407  15.950  10.172  13.801  0.0109 -0.2025 -0.2310
13334W        W29408  12.082  16.502  12.150  0.1363 -0.1416 -0.1683
13335W        W29409   4.905  18.032   1.536  0.1751 -0.2293 -0.1152
13336W        W29410   4.225  16.696  11.875 -0.2837 -0.2430  0.0074
13337W        W29411  12.690   4.487  12.724  0.0156  0.1378  0.3003
13338W        W29412   0.789   1.283   5.103  0.2636  0.1582  0.2547
13339W        W29413  13.076  12.072  14.445 -0.1052 -0.3966  0.3033
13340W        W29414   1.723  15.384   0.169 -0.0869 -0.0723 -0.1340
13341W        W29415   6.861  14.515   3.167  0.2093  0.1491 -0.0150
13342W        W29416   9.742   9.897  12.928 -0.1201  0.2035  0.2280
13343W        W29417  16.388   9.502  13.681 -0.0391 -0.3179 -0.2146
13344W        W29418   1.034   7.497  14.843 -0.1499 -0.0979  0.0109
13345W        W29419  17.610  11.746   2.592 -0.1086  0.2522 -0.2935
13346W        W29420  13.267   6.589   3.472  0.1435 -0.1456  0.0732
13347W        W29421   4.581   9.275   2.925 -0.0294 -0.0151  0.2411
13348W        W29422   7.471  17.751  14.169 -0.2790  0.0604 -0.1989
13349W        W29423  13.060  13.678   0.464 -0.1744 -0.4659  0.1443
13350W        W29424  10.457   0.381   0.285 -0.1920 -0.0759 -0.4888
13351W        W29425   1.461  16.335   3.806  0.1706  0.0280  0.2620
13352W        W29426  17.694  13.504  15.882 -0.1516 -0.3670  0.1422
13353W        W29427   1.394  10.023   4.176  0.2460 -0.1506 -0.2237
13354W        W29428   2.971  18.180  13.946 -0.0764 -0.0403 -0.1130
13355W        W29429  14.825  13.309   6.013 -0.3341 -0.0814 -0.2129
13356W        W29430  15.199   2.320  14.263 -0.1297 -0.0901  0.3302
13357W        W29431   7.012   3.194  14.290  0.1356  0.2470  0.0642
13358W        W29432   2.480   5.509  11.931 -0.2133 -0.0777  0.1698
13359W        W29433   7.122  13.014  14.358  0.0878 -0.1147  0.1475
13360W        W29434  16.128  14.648  11.366  0.0239 -0.1707  0.0128
13361W        W29435   0.331  16.482  15.037  0.1413  0.0457  0.1983
13362W        W29436  17.454  10.938   4.685  0.1798 -0.3079 -0.0584
13363W        W29437   3.006   3.374   1.551 -0.0558 -0.0670  0.0596
13364W        W29438   8.749  11.581   0.259  0.0286 -0.3511  0.1289
13365W        W29439  11.920   5.760   0.178 -0.3086 -0.0260 -0.1261
13366W        W29440  14.567  14.875  15.894  0.0766 -0.4327  0.3080
13367W        W29441  17.078  14.891  14.482 -0.1557 -0.2393  0.0886
13368W        W29442   7.469   6.605  13.991  0.0370  0.0813  0.3769
13369W        W29443  10.940  16.615   0.473 -0.0807 -0.0140  0.3626
13370W        W29444  11.562   1.514   4.551 -0.0251 -0.3017 -0.2307
13371W        W29445   9.309   9.907   3.433 -0.2248 -0.1502  0.0215
13372W        W29446   9.139   2.570   1.582  0.0109  0.1739  0.1775
13373W        W29447  16.518  10.502  12.424  0.1596 -0.0083 -0.0279
13374W        W29448   6.510  14.767  12.086  0.0227  0.1938 -0.1772
13375W        W29449  15.677  12.373   2.246 -0.0351 -0.1568  0.2076
13376W        W29450  17.262   1.972   0.443  0.2449  0.0700  0.0254
13377W        W29451  14.380   8.800  11.902  0.0418  0.1512 -0.1110
13378W        W29452  12.658   6.350   5.110 -0.2757  0.1242  0.2982
13379W        W29453  12.271   1.483  12.738 -0.0227  0.0193 -0.0428
13380W        W29454   2.672  17.212   5.035  0.0569 -0.1088 -0.0072
13381W        W29455   4.282   0.421  13.822  0.3067  0.0234  0.2378
13382W        W29456  17.148   2.425   0.478  0.0722 -0.1366  0.0186
13383W        W29457  10.325   7.096  14.028  0.1731  0.1333  0.1524
13384W        W29458   0.740   4.726  14.437  0.3434 -0.2637  0.6295
13385W        W29459  14.483   9.335  15.953 -0.0520  0.1715  0.1309
13386W        W29460  13.204   1.598   4.239  0.0053  0.1881  0.1823
13387W        W29461  10.724  14.314   4.271 -0.1559 -0.2218  0.0066
13388W        W29462  11.954   7.958  13.062 -0.2768  0.2308  0.1008
13389W        W29463   1.279  12.021   4.199 -0.4154 -0.0091 -0.2647
13390W        W29464  16.010   1.665   5.083 -0.0482  0.1328  0.3957
13391W        W29465   7.508   6.669   3.497  0.0795  0.0889 -0.1412
13392W        W29466  10.737   7.794  13.417  0.0245  0.1261 -0.1932
13393W        W29467   0.964  13.826  15.607  0.3190  0.1384  0.1233
13394W        W29468   5.088   3.807   0.870 -0.0469 -0.0671 -0.3504
13395W        W29469   4.662   7.166  15.288 -0.1829  0.1024 -0.3236
13396W        W29470  15.950   6.810   5.545 -0.1171 -0.6091 -0.0350
13397W        W29471   1.776  17.092   2.646 -0.2115 -0.0823  0.1116
13398W        W29472   4.779   6.519  15.318 -0.0182 -0.4818  0.2862
13399W        W29473  17.930  15.228  15.375  0.0920  0.0171 -0.1081
13400W        W29474  12.023   5.289   5.413  0.0059  0.0698  0.0015
13401W        W29475   7.606   9.984   4.037  0.2452 -0.2375  0.1754
13402W        W29476   2.565  17.221   0.341  0.4087  0.2936  0.1901
13403W        W29477  11.274   3.398   0.272 -0.0941  0.0707 -0.0164
13404W        W29478   2.005  11.002   1.229 -0.0667  0.1246  0.2030
13405W        W29479  17.747  11.970  15.101  0.0040  0.2273  0.2046
13406W        W29480   3.170   0.668   1.814 -0.0425 -0.1558 -0.0419
13407W        W29481   9.068  15.834   2.378 -0.1338  0.1432 -0.2511
13408W        W29482   9.618  14.853   3.817  0.0247  0.0981 -0.2707
13409W        W29483   9.835  13.320  11.580  0.2190 -0.3422  0.1188
13410W        W29484   1.409  14.750   5.320  0.0514 -0.1268 -0.1079
13411W        W29485  15.495  18.444   1.679 -0.2877 -0.2289  0.2219
13412W        W29486   6.799   7.249   0.012  0.1213 -0.1784 -0.1530
13413W        W29487  18.474   6.510  14.455 -0.1960  0.2330  0.1874
13414W        W29488  13.871  10.961  14.256 -0.0913  0.2626 -0.1611
13415W        W29489  12.352  15.791   3.844 -0.2480 -0.2172 -0.1866
13416W        W29490   1.446  11.773   1.441  0.3000 -0.0719 -0.0237
13417W        W29491  14.733   7.964  14.227 -0.0440 -0.2832  0.1450
13418W        W29492   7.268  15.103  15.084  0.0194 -0.1128 -0.3100
13419W        W29493   3.245   4.029  15.098 -0.3635  0.0752 -0.1018
13420W        W29494   8.346  14.656   1.075 -0.1684 -0.3161  0.4274
13421W        W29495   2.828   9.942  11.819 -0.1098  0.1017 -0.2317
13422W        W29496  16.818   0.440   0.511 -0.1917 -0.2438 -0.0425
13423W        W29497   0.958   2.648   1.637 -0.1200 -0.1115 -0.0537
13424W        W29498   1.327   1.806  13.444  0.1623 -0.2179 -0.1298
13425W        W29499   8.601   2.481   0.046 -0.0732 -0.0604 -0.2905
13426W        W29500   8.250   4.247  12.771 -0.2534 -0.0870  0.1519
13427W        W29501   7.369   7.610  15.290 -0.0616  0.2884  0.2135
13428W        W29502  14.806   9.705   1.618 -0.2205 -0.1243 -0.1596
13429W        W29503  14.257   4.781  11.641 -0.0467  0.1650  0.4056
13430W        W29504   9.699  17.461   0.742 -0.0239  0.2598 -0.1044
13431W        W29505  17.906  17.786  15.172 -0.0118 -0.1134 -0.2311
13432W        W29506  18.482   2.926   3.464 -0.0405 -0.3233  0.0535
13433W        W29507   5.073  10.621  14.364  0.1335  0.2727  0.0372
13434W        W29508   7.751  14.038  15.955 -0.1499 -0.0731  0.1090
13435W        W29509   5.687   2.948   3.908 -0.0960 -0.0526 -0.0852
13436W        W29510  17.011  10.962   1.085 -0.2841 -0.4120 -0.3052
13437W        W29511  17.472   3.009  14.673 -0.3699 -0.0885  0.2065
13438W        W29512   9.685   1.263   2.160  0.5227  0.0423 -0.2573
13439W        W29513   1.437  17.423   3.601 -0.1126  0.0892 -0.1185
13440W        W29514  18.244   5.899   5.073  0.2313  0.1132  0.2200
13441W        W29515  17.192   2.426   3.775  0.3356 -0.2669  0.0369
13442W        W29516   0.842  11.280  14.372 -0.2892 -0.4039  0.1017
13443W        W29517  10.794   2.214   1.748 -0.1790  0.0416 -0.1307
13444W        W29518  12.414  12.364   3.942  0.1770  0.0629  0.0587
13445W        W29519   5.505  10.766   3.163 -0.0013  0.0247  0.2312
13446W        W29520   0.906  18.500   0.942  0.1257 -0.3575 -0.0269
13447W        W29521   4.769  12.082   1.993 -0.0412  0.1771  0.2554
13448W        W29522  10.997   0.521  12.312  0.0177  0.3545  0.1612
13449W        W29523  16.211  13.354   1.602 -0.1607 -0.3663 -0.2743
13450W        W29524   9.208   9.009   0.293  0.0287 -0.2905  0.1266
13451W        W29525   8.110  16.126   0.867  0.0812 -0.1631  0.1797
13452W        W29526   1.271  15.467  13.024 -0.2337  0.0192 -0.1677
13453W        W29527  17.892  10.427   6.452 -0.4154 -0.3087  0.1483
13454W        W29528  16.151   1.238   2.486  0.0788 -0.1100  0.3081
13455W        W29529   8.062  13.487  14.808 -0.0754 -0.1068  0.1841
13456W        W29530  17.286  12.434   3.786 -0.0733 -0.3805  0.1158
13457W        W29531  15.546   2.967  13.011 -0.1714  0.2747 -0.4352
13458W        W29532   7.294   3.265  11.272  0.0674 -0.3631  0.0603
13459W        W29533  15.808  17.261   3.516  0.1777 -0.1359  0.3163
13460W        W29534  16.286   6.549  12.039 -0.0022 -0.1878  0.1010
13461W        W29535  12.175   5.029   1.179 -0.2178 -0.0945  0.1612
13462W        W29536   6.855  10.052   4.995 -0.1749 -0.3127  0.1210
13463W        W29537   4.766  18.200   4.606 -0.0993 -0.0351  0.0727
13464W        W29538   9.240   4.769  15.246  0.0432 -0.0045  0.0834
13465W        W29539   0.317  10.209  13.932 -0.3496 -0.0071  0.3417
13466W        W29540  11.524  14.868   0.821 -0.0807  0.1121 -0.0231
13467W        W29541   8.445  13.864  11.329  0.3237 -0.0755  0.0334
13468W        W29542   9.361   9.793  15.186  0.0186  0.3738 -0.0774
13469W        W29543   6.328   4.456   0.050 -0.0785  0.0115 -0.3841
13470W        W29544   8.996   5.009  14.815 -0.0864 -0.3110  0.0120
13471W        W29545  14.278  15.035  13.329  0.0556 -0.0562  0.1099
13472W        W29546  11.215   5.878   3.315  0.0060 -0.0397 -0.3352
13473W        W29547  13.831   5.635   3.009 -0.1870  0.0207 -0.0695
13474W        W29548  13.045   4.799   1.529  0.0739 -0.2543  0.1443
13475W        W29549  13.624  14.043   2.886  0.0685 -0.1259 -0.3970
13476W        W29550  15.165   8.368  11.863  0.1137 -0.0766 -0.1874
13477W        W29551   5.709  17.393   1.463 -0.0774  0.0406  0.1215
13478W        W29552   3.197   5.503   4.070 -0.1862  0.2211 -0.2723
13479W        W29553  10.871   6.481  13.478  0.2235  0.1341  0.0907
13480W        W29554   8.937   8.942   1.734 -0.2074  0.1790  0.0586
13481W        W29555  16.279   5.268   4.918  0.2254  0.4169  0.0932
13482W        W29556  16.890  18.352   1.480 -0.1664 -0.2864  0.1225
13483W        W29557  15.996   4.802   3.285  0.2669 -0.1621 -0.1240
13484W        W29558  15.906  14.348  12.675 -0.2399 -0.0961  0.1550
13485W        W29559   5.863  15.205   4.374 -0.2204  0.2316  0.2454
13486W        W29560  17.871   1.712   0.325  0.3541  0.1048 -0.0390
13487W        W29561   3.972   7.763   0.760  0.0364 -0.0853  0.3245
13488W        W29562   4.621   6.243   4.863 -0.2216  0.2279  0.0267
13489W        W29563  10.690  11.486  10.924 -0.2307  0.0635  0.0844
13490W        W29564  18.429  10.519   4.389  0.0641  0.3502  0.1504
13491W        W29565   5.990   1.597   4.899 -0.0264  0.1896 -0.0336
13492W        W29566  11.588   1.999   1.110  0.0292  0.2686 -0.1584
13493W        W29567   9.914  15.215   0.285 -0.0004 -0.0630 -0.2982
13494W        W29568  10.549  12.849  16.000  0.4342  0.1307 -0.2275
13495W        W29569   8.498  10.696   5.295  0.1575 -0.1288 -0.0227
13496W        W29570   4.485  12.764   4.986  0.1965  0.1204 -0.0166
13497W        W29571   1.753  10.451   5.580 -0.0913 -0.0695 -0.0504
13498W        W29572   1.150  15.392   3.615  0.0687  0.1559 -0.0309
13499W        W29573   1.770   0.167  11.257  0.1169  0.3705 -0.0445
13500W        W29574  10.568   2.842   4.599  0.0659  0.1620 -0.0968
13501W        W29575   8.927   6.141   1.654  0.0144 -0.1828 -0.3066
13502W        W29576  18.100  16.061   5.347 -0.1846 -0.2855 -0.4870
13503W        W29577  18.440  16.835   6.096  0.1960 -0.0527  0.1217
13504W        W29578  12.153   1.603  11.797 -0.0631 -0.1447  0.1456
13505W        W29579   9.304   8.692   4.407  0.1578  0.0995  0.1104
13506W        W29580  16.750   2.025   1.403  0.3468 -0.1807 -0.0597
13507W        W29581  17.689  18.521   1.317  0.2436 -0.0974  0.0364
13508W        W29582  11.235   6.717  10.138 -0.0047 -0.0105  0.2457
13509W        W29583   1.755   0.558   1.694  0.2504 -0.2079  0.1500
13510W        W29584  12.002  13.825   0.525 -0.0570 -0.1446  0.1726
13511W        W29585   6.605   1.711  13.588 -0.4611 -0.1302 -0.0207
13512W        W29586  13.445   2.107   2.337 -0.1261 -0.0179  0.3628
13513W        W29587  11.882  13.647  11.256 -0.0460 -0.1773 -0.0437
13514W        W29588   4.521   1.525  11.723  0.1324  0.0532  0.2037
13515W        W29589   6.722  10.723  12.841  0.0349  0.1906 -0.0770
13516W        W29590  16.025   9.889   2.279  0.2429 -0.2014 -0.1799
13517W        W29591  11.949   5.847   0.771  0.0184  0.2780 -0.1271
13518W        W29592  10.126  10.880   2.207 -0.1341 -0.1461 -0.1134
13519W        W29593   3.466   4.602   5.551  0.3421 -0.0977  0.1294
13520W        W29594   0.842  12.184   2.161 -0.0542  0.0199 -0.0513
13521W        W29595   7.008  17.438   9.766 -0.1737 -0.0439  0.2205
13522W        W29596   3.195  10.444   5.962 -0.1943  0.1801  0.1447
13523W        W29597   3.569   7.002  11.621  0.1059 -0.1565  0.0228
13524W        W29598  15.929   0.301   0.054  0.1039  0.2287  0.2015
13525W        W29599   2.258   4.268  11.224  0.0951 -0.0297 -0.0500
13526W        W29600  14.911  12.667   2.217 -0.0292  0.1928  0.2770
13527W        W29601   3.362  11.680  11.156  0.3222 -0.1910 -0.1249
13528W        W29602   5.603  13.177  13.300  0.3877  0.0733 -0.0348
13529W        W29603   3.015  13.627   0.062  0.1818 -0.2381  0.3885
13530W        W29604  11.799  17.062  15.980 -0.3606  0.0469  0.2091
13531W        W29605   7.653  17.697  14.697 -0.0605 -0.2045  0.0312
13532W        W29606  14.880  14.820   4.796 -0.1827 -0.2773  0.0418
13533W        W29607  18.266   2.318   0.045 -0.0687  0.1236 -0.0868
13534W        W29608  15.184   8.200  13.031  0.3297 -0.1921  0.0167
13535W        W29609  11.067   5.132   0.171 -0.2847 -0.1301 -0.2669
13536W        W29610  12.985   2.947  12.712 -0.0964 -0.1367  0.1361
13537W        W29611   0.384  15.216  11.806  0.2107 -0.2710  0.0660
13538W        W29612   2.592  16.483   0.009 -0.1001  0.2417  0.0215
13539W        W29613  13.360  11.640  13.562 -0.1093 -0.0802  0.3190
13540W        W29614   3.160   3.106  14.075 -0.3840 -0.1126  0.2540
13541W        W29615   6.059   1.331   3.303  0.1304 -0.0890 -0.1808
13542W        W29616  10.443  12.462  15.596 -0.2771 -0.0040  0.2796
13543W        W29617  17.695   1.074  15.449 -0.0509 -0.0428 -0.3010
13544W        W29618   6.272  13.105  14.345  0.2564  0.1718  0.1591
13545W        W29619  14.845  13.952  12.331 -0.3778  0.2967 -0.4237
13546W        W29620  13.559   7.546   3.230  0.2240 -0.0925  0.0687
13547W        W29621  17.195  12.659  11.934 -0.1122 -0.0066 -0.2397
13548W        W29622  15.057  14.439  12.187 -0.3011 -0.0369 -0.2061
13549W        W29623   1.765  11.416  13.466 -0.1070 -0.0564 -0.0559
13550W        W29624   5.726   2.641   5.429  0.3039 -0.4162 -0.0961
13551W        W29625   9.305  16.901   3.905 -0.0332 -0.0890  0.1233
13552W        W29626   1.306   6.824  12.456  0.0664  0.0427 -0.0297
13553W        W29627  15.016  12.492  14.462 -0.0982 -0.0603 -0.2592
13554W        W29628   9.777  17.653   0.301  0.1358 -0.2061 -0.1382
13555W        W29629  12.758  18.249  11.230  0.1874 -0.1402 -0.3872
13556W        W29630  14.352  13.571  15.417 -0.0128  0.1292  0.2621
13557W        W29631  14.579   3.067   3.898  0.2134  0.3033 -0.0299
13558W        W29632   7.856  18.069  13.077 -0.0064  0.0137  0.0452
13559W        W29633   8.430  14.836  14.296  0.0337  0.3454  0.1585
13560W        W29634   3.710  13.273   5.245 -0.3061  0.0647 -0.3207
13561W        W29635   6.391   1.125  12.896  0.1337  0.0199  0.1345
13562W        W29636  17.678   4.254  16.019  0.4255  0.1180  0.1055
13563W        W29637   9.190   7.236   3.855 -0.0342 -0.3776 -0.1275
13564W        W29638  13.742   9.558  15.071  0.1412 -0.0952 -0.1567
13565W        W29639  12.702   3.752  11.655  0.1017 -0.1306 -0.1852
13566W        W29640   3.414  11.148  15.735  0.0464 -0.0878 -0.3493
13567W        W29641   1.827   1.923   0.403 -0.3966  0.3489 -0.1272
13568W        W29642   0.010   9.548  12.160  0.0340 -0.3785  0.0994
13569W        W29643   3.759   6.099   5.541  0.3151 -0.0767 -0.0751
13570W        W29644   8.496   1.769  11.426 -0.0157 -0.1070  0.1586
13571W        W29645   5.961  11.582  11.789  0.0308 -0.0013  0.0194
13572W        W29646  16.986   0.161   2.819 -0.1034 -0.0614  0.0641
13573W        W29647  10.217  11.996  12.587 -0.1454 -0.0234 -0.1151
13574W        W29648   6.178   6.900  12.945 -0.2181 -0.4303  0.0135
13575W        W29649  13.832   5.113   0.362 -0.2527  0.0732 -0.0562
13576W        W29650  15.616   3.155   3.043  0.2223 -0.0296 -0.1121
13577W        W29651   1.846  15.643   3.553  0.0857  0.0510  0.0515
13578W        W29652   2.911  17.559   1.154 -0.0425 -0.1504 -0.1046
13579W        W29653   3.957   8.348  12.482  0.0479  0.1217  0.1177
13580W        W29654   8.180   5.255  13.999 -0.3135  0.1900 -0.2329
13581W        W29655   0.292   3.652   4.335 -0.1777 -0.1301  0.1130
13582W        W29656  17.480   5.783  14.613  0.2374 -0.1032 -0.2303
13583W        W29657  11.925  16.190   2.670 -0.2710 -0.0806  0.2005
13584W        W29658   8.927   4.511  13.157  0.2378 -0.0620  0.0799
13585W        W29659   7.898  12.201   2.371 -0.1533  0.1679 -0.3416
13586W        W29660  13.937  10.565  12.868  0.3118  0.0267  0.0592
13587W        W29661  16.738  16.608  14.310  0.0217 -0.2063  0.0909
13588W        W29662   4.869  17.248  15.156  0.0307 -0.3052 -0.0720
13589W        W29663   6.870  10.817   1.204 -0.0667  0.2645  0.0947
13590W        W29664  18.483  13.649   2.390 -0.3558  0.2357  0.2783
13591W        W29665  11.842  14.017   0.063 -0.1658  0.2504  0.1495
13592W        W29666   9.173   7.476   1.020 -0.2705 -0.3297 -0.0887
13593W        W29667   2.279  15.010   1.181 -0.0295  0.0771 -0.2302
13594W        W29668   1.789  18.290   2.020  0.0476 -0.0544  0.0646
13595W        W29669  16.876  13.090  12.095 -0.0216  0.0680  0.1377
13596W        W29670   7.450  10.209  10.200 -0.1231 -0.1685 -0.0494
13597W        W29671   7.101  15.029   3.870 -0.2606  0.1583  0.0217
13598W        W29672   6.809   3.004   2.093 -0.2729 -0.0688  0.0399
13599W        W29673  11.512   4.502   0.797 -0.3421  0.1582  0.2761
13600W        W29674  17.858   3.181  10.367  0.1114  0.1137  0.0257
13601W        W29675  15.760  15.451  11.565 -0.0831 -0.0561 -0.0436
13602W        W29676   1.163   2.464   5.753  0.0510 -0.1829 -0.1082
13603W        W29677   2.270   0.444   5.614 -0.0225 -0.0016 -0.5279
13604W        W29678   1.136   0.199   3.608  0.1103 -0.2177  0.1729
13605W        W29679   9.100   4.586   3.643 -0.1992 -0.2931 -0.2993
13606W        W29680  14.089  10.943  15.641  0.2731 -0.7347  0.1671
13607W        W29681   5.717   7.965  12.242 -0.2355  0.0800 -0.0839
13608W        W29682  13.718  18.554   3.451  0.0223 -0.1290  0.1699
13609W        W29683   4.513  17.571  15.241  0.1012  0.2655 -0.1742
13610W        W29684   7.853   2.680   4.540 -0.0242  0.0330  0.1037
13611W        W29685   9.929   5.513   3.216 -0.0707 -0.1558 -0.1500
13612W        W29686   9.004   0.991  10.565  0.2449  0.0446  0.0836
13613W        W29687   9.219  13.357  13.750  0.0167  0.4162  0.0920
13614W        W29688   7.430   4.765   2.444 -0.0752 -0.0224  0.2287
13615W        W29689  14.444   2.433   1.005 -0.1355  0.2854  0.0974
13616W        W29690   8.064   0.116   2.547 -0.2952 -0.0037  0.1414
13617W        W29691   8.476  11.862   4.820 -0.0065  0.1686  0.1170
13618W        W29692   4.671   7.195  13.106 -0.0221 -0.1581  0.4192
13619W        W29693   4.641  15.723   0.116  0.1489 -0.0122  0.1533
13620W        W29694   4.136  13.741   4.021  0.1374 -0.0037 -0.1995
13621W        W29695   4.788   4.236  14.326  0.1802 -0.2881  0.0979
13622W        W29696  18.286   7.588   1.918  0.0313  0.1063  0.3222
13623W        W29697   2.123  17.400  13.935  0.0918 -0.1095 -0.1783
13624W        W29698  12.094   7.841  11.187 -0.1196 -0.1773  0.0269
13625W        W29699  17.167   6.326   5.002  0.2971 -0.0917 -0.1269
13626W        W29700   4.218  11.681   0.005  0.1993  0.0628  0.1308
13627W        W29701  14.546  17.893  11.831 -0.0036  0.2556  0.2592
13628W        W29702   2.454   2.728   2.406  0.0942  0.3724 -0.0735
13629W        W29703   0.258  14.326   4.886  0.0461 -0.0868  0.1012
13630W        W29704  12.705   9.434   5.568 -0.1336  0.0775  0.1534
13631W        W29705  17.792  11.558   6.350 -0.0301  0.0925 -0.1256
13632W        W29706  10.727   1.717  13.480 -0.1953  0.0266  0.1521
13633W        W29707   1.055  17.821   3.898  0.1057  0.2776 -0.2008
13634W        W29708   4.556  11.317   3.158 -0.0441  0.1911 -0.1666
13635W        W29709   9.134   1.009   0.905  0.0397  0.0807  0.1894
13636W        W29710  10.665   1.641   3.038  0.1441  0.2166 -0.2010
13637W        W29711  17.448   5.107   4.464  0.4093  0.0654  0.4687
13638W        W29712   1.321  12.131  11.396  0.0794 -0.3116 -0.2884
13639W        W29713   2.550   1.191   0.522  0.0983  0.1310 -0.0151
13640W        W29714   1.927   5.951   4.782  0.2472 -0.1489 -0.0440
13641W        W29715   3.476  17.047  12.563  0.4094 -0.0015  0.1637
13642W        W29716   1.714   4.177   1.467 -0.0196 -0.0753  0.0302
13643W        W29717  16.373  18.457   2.205 -0.2199  0.3804 -0.0532
13644W        W29718  12.013  15.827   2.346 -0.1429  0.6335  0.1011
13645W        W29719  17.064   2.824  11.028 -0.2539 -0.0475 -0.0637
13646W        W29720  18.313   6.546   2.828  0.3523 -0.1869 -0.2828
13647W        W29721   5.346   6.188  12.929  0.0829 -0.0523 -0.1504
13648W        W29722  18.148  11.313  13.928 -0.0776  0.4407 -0.2789
13649W        W29723  17.724  18.238   4.695 -0.1962 -0.1070  0.0395
13650W        W29724   9.265  13.759   1.960  0.0342  0.0399  0.1525
13651W        W29725   8.457   1.844  15.049  0.0394 -0.0298 -0.1378
13652W        W29726  13.008   9.591  11.077  0.0004  0.0855  0.1290
13653W        W29727  15.539  17.713  13.019  0.0182  0.1190 -0.0303
13654W        W29728   8.659   0.379  15.009 -0.1388  0.1274  0.0340
13655W        W29729  12.763  15.720   3.540 -0.0482 -0.0275  0.1486
13656W        W29730  15.335   6.073   2.510  0.0367 -0.3030 -0.0514
13657W        W29731   9.806  10.984  14.498 -0.0457 -0.0792 -0.0245
13658W        W29732   1.262   3.212  13.634 -0.1942 -0.0499  0.0006
13659W        W29733   3.033  13.814   5.172  0.0979  0.1024 -0.2017
13660W        W29734   2.598   2.389  13.785  0.0528 -0.3716  0.1185
13661W        W29735  12.497   4.831   0.299  0.1243  0.1609 -0.1019
13662W        W29736   4.827  11.681  13.546 -0.2270 -0.0579  0.1054
13663W        W29737  12.011  12.436  11.813  0.2202 -0.1881 -0.1512
13664W        W29738  15.381  15.573  14.132  0.1798 -0.3081  0.1180
13665W        W29739   4.361   3.181   2.751  0.0848  0.2728 -0.1658
13666W        W29740  13.930   2.937  11.744 -0.1424 -0.2145 -0.1629
13667W        W29741   9.619  10.866  11.356  0.0510 -0.0689  0.2003
13668W        W29742  13.986  10.393  15.624  0.0441 -0.2813  0.3448
13669W        W29743   4.858  17.682   4.594  0.0473  0.1432  0.2346
13670W        W29744  15.294  11.515  16.028 -0.1415 -0.2522 -0.0580
13671W        W29745  17.834  12.586  11.518  0.0062 -0.0766  0.1874
13672W        W29746   8.941  10.236  10.201  0.2823  0.1401  0.2035
13673W        W29747  14.625  12.160  11.648  0.2647  0.0558 -0.2372
13674W        W29748  17.173   4.550   5.518 -0.0843  0.2517 -0.0851
13675W        W29749  17.326  14.984  13.581 -0.0817  0.2106 -0.0655
13676W        W29750  16.485   0.134  12.890  0.0423 -0.1488  0.0520
13677W        W29751   7.955   4.700  11.547 -0.1742  0.1293  0.2168
13678W        W29752  15.934  18.247   0.197  0.2568 -0.2511 -0.0441
13679W        W29753  15.356   4.791   0.394  0.1281  0.0798  0.3049
13680W        W29754  11.818  11.388   1.977 -0.0267  0.1714  0.1189
13681W        W29755  10.947  14.197  11.618  0.0926  0.2215  0.1800
13682W        W29756  16.310  14.808   0.524  0.2410 -0.3164  0.0307
13683W        W29757  11.017  11.484   0.297  0.0087 -0.1012  0.3078
13684W        W29758  13.760  17.522   0.425  0.0164 -0.0898  0.1106
13685W        W29759   8.372   9.794   4.470 -0.1483 -0.1790  0.1124
13686W        W29760   5.265   3.607  12.227 -0.0012  0.3317  0.0114
13687W        W29761   8.138  17.734   4.295  0.0670  0.0238 -0.3972
13688W        W29762   4.388   9.125  15.426  0.0420 -0.0740 -0.1894
13689W        W29763  17.260   5.233  13.028 -0.2611  0.2020 -0.0542
13690W        W29764   3.865   1.009  12.513 -0.0566 -0.3374 -0.0596
13691W        W29765  17.370   2.950   3.782  0.1471 -0.1523  0.0446
13692W        W29766   4.874  17.584   0.047  0.2239 -0.3375 -0.3054
13693W        W29767   8.595  10.246   3.586  0.2182 -0.1238  0.1411
13694W        W29768  16.383  14.912   2.133  0.3215  0.1581  0.1763
13695W        W29769   8.593   8.172   2.564 -0.2919 -0.2678 -0.2210
13696W        W29770   0.150   5.411   3.090  0.0244 -0.4140  0.3000
13697W        W29771   3.177  14.561   4.706  0.1038  0.0311 -0.1995
13698W        W29772   4.873   5.157  14.663 -0.0726  0.1514 -0.1344
13699W        W29773  18.024   3.309  12.157  0.0737  0.1847  0.4798
13700W        W29774  15.110   3.433  10.681 -0.0716 -0.3404  0.0163
13701W        W29775   7.686   0.461   0.378  0.1804  0.0785  0.0366
13702W        W29776   3.577   3.899  13.796  0.3114 -0.0428  0.3747
13703W        W29777  13.568  12.749   0.286 -0.1976  0.1008 -0.0820
13704W        W29778   7.255   1.794   2.697 -0.3200  0.2532 -0.0784
13705W        W29779   9.746   0.165   1.324  0.0127  0.0402 -0.0585
13706W        W29780   8.732  11.947   0.652  0.0168 -0.0814 -0.2973
13707W        W29781  13.535  12.266   0.482  0.0340 -0.0392  0.3808
13708W        W29782  17.441  17.901   2.010 -0.2452  0.0729  0.3186
13709W        W29783   4.304   0.850  14.152 -0.1680 -0.0059 -0.2179
13710W        W29784  11.472  13.173   0.376 -0.1630  0.1029  0.0262
13711W        W29785  11.811   0.182  15.763  0.0827 -0.0237  0.0974
13712W        W29786  18.389  15.482   5.204  0.0035  0.2355 -0.1220
13713W        W29787   6.859   1.188   0.378  0.2198 -0.2469  0.0637
13714W        W29788  17.806  17.637   1.046  0.2797  0.1349 -0.0236
13715W        W29789  11.605  13.773   3.390 -0.1599  0.2647  0.0476
13716W        W29790   3.292   4.964   0.217 -0.0654  0.2078  0.1337
13717W        W29791  17.070  11.899  12.489 -0.1960 -0.0080  0.1291
13718W        W29792   5.639   2.162  15.037 -0.2019  0.0047  0.0948
13719W        W29793   4.022   3.687   0.518  0.1567 -0.1816  0.1652
13720W        W29794   4.634  10.172  10.974 -0.3899  0.0522  0.1504
13721W        W29795   0.751  15.167  14.137 -0.1866  0.4042 -0.1629
13722W        W29796  17.998   7.692   4.397 -0.2425  0.2823  0.4363
13723W        W29797   1.691  14.503   5.760  0.3272 -0.0742 -0.1158
13724W        W29798   0.961  16.886   0.977  0.3125 -0.2370  0.0500
13725W        W29799  12.455   6.526  11.052  0.2292 -0.3973 -0.2307
13726W        W29800  10.305  14.223   3.016 -0.2652  0.3296  0.0962
13727W        W29801   4.068   9.027  14.018 -0.0425  0.0288  0.1371
13728W        W29802   0.932  13.051  14.480  0.0277  0.0764 -0.0743
13729W        W29803  16.415   5.261  15.164  0.2882 -0.0705  0.0529
13730W        W29804  17.266   4.183   2.591  0.1735 -0.1036 -0.2279
13731W        W29805  14.134   2.925   0.391 -0.2746  0.0635  0.1489
13732W        W29806   9.579  16.068   1.989  0.0198  0.0951  0.2452
13733W        W29807   3.516   5.583   5.521  0.0004 -0.3465  0.2405
13734W        W29808  15.044   3.050   3.782 -0.2487  0.0665 -0.1751
13735W        W29809  13.025   4.280   2.210 -0.0032  0.1238  0.1185
13736W        W29810  17.067  13.083  13.974  0.4261  0.1904 -0.1727
13737W        W29811   9.713   5.931  11.356  0.0330 -0.2020  0.4484
13738W        W29812  14.880   7.464   4.369  0.1545 -0.1909 -0.3290
13739W        W29813   0.505   8.889   4.815 -0.2136  0.0862  0.0129
13740W        W29814  12.694   7.733   1.701 -0.3045  0.4458  0.2676
13741W        W29815  10.794  12.870  13.731 -0.2688 -0.1152 -0.0893
13742W        W29816   0.520   5.500   2.171  0.1384  0.0700  0.2906
13743W        W29817   7.324   0.067  13.520  0.1658  0.2952  0.0284
13744W        W29818   3.514   2.206  14.739  0.1555 -0.5380 -0.1515
13745W        W29819   8.921   2.579  14.219  0.0290 -0.0039 -0.0879
13746W        W29820  10.351   3.562  10.717  0.0515 -0.3388 -0.0202
13747W        W29821   7.081  15.301   4.288 -0.2325  0.0923  0.1115
13748W        W29822  14.615   2.212   3.297  0.0143 -0.1497 -0.2818
13749W        W29823   4.233   2.667   1.172  0.0660 -0.1658  0.0123
13750W        W29824  13.431   5.923   0.884  0.3214  0.1520 -0.0240
13751W        W29825   4.430   2.260  13.332 -0.0533 -0.3646 -0.0197
13752W        W29826   4.521  15.282   3.516  0.0021 -0.3330 -0.0281
13753W        W29827   2.451  12.434  14.091  0.1133  0.1394 -0.0614
13754W        W29828   7.088  12.550   3.712 -0.0439 -0.0386 -0.4004
13755W        W29829   1.798  18.187  15.747  0.0971 -0.3464  0.0870
13756W        W29830   7.080  10.466   0.242 -0.2205 -0.0282  0.1323
13757W        W29831   8.127  14.372   1.543  0.2528 -0.0678 -0.0577
13758W        W29832   7.539   1.641  15.467  0.2323 -0.3270  0.0060
13759W        W29833  17.248   1.733   1.199 -0.0907 -0.0704  0.3174
13760W        W29834   1.373  16.334  14.097  0.0594  0.0407 -0.1140
13761W        W29835  13.575   1.604   1.025 -0.0641 -0.0355 -0.1068
13762W        W29836   0.618   5.723  14.185 -0.3767 -0.0780 -0.2461
13763W        W29837  12.079   8.693   5.809  0.2374 -0.1980  0.1550
13764W        W29838   1.187  17.499  12.100 -0.1364 -0.1350 -0.0387
13765W        W29839   5.395   0.835  12.580 -0.0519  0.3899 -0.1098
13766W        W29840   1.628   4.615   5.974  0.4966  0.3835 -0.0679
13767W        W29841   7.941   0.957  12.705 -0.3388  0.2266 -0.0960
13768W        W29842  11.888   1.018  14.748 -0.3449  0.1501  0.2301
13769W        W29843  13.781  16.108   4.359  0.1734 -0.2720  0.2741
13770W        W29844   8.865   6.134   2.519  0.4803 -0.4473 -0.1252
13771W        W29845   3.186  13.277  14.847  0.0903 -0.2315  0.0073
13772W        W29846   0.232  13.874  11.758  0.1723  0.3609 -0.2998
13773W        W29847   9.132  14.138   5.127 -0.1021  0.1200 -0.2783
13774W        W29848  11.872  17.122   2.393  0.2508  0.2127 -0.1311
13775W        W29849   1.833   7.489   5.573 -0.1286 -0.0876 -0.1454
13776W        W29850   4.874   4.704   0.699  0.1146  0.3505  0.1151
13777W        W29851   7.555  17.070  11.747  0.0830 -0.0879  0.1195
13778W        W29852  16.424   9.846   3.143  0.1427 -0.1533  0.3094
13779W        W29853  13.702   3.122  11.179 -0.1087 -0.0464  0.2557
13780W        W29854  15.260  16.767   1.665 -0.1126  0.4266  0.2298
13781W        W29855   9.020  14.949  15.297 -0.1969 -0.0456 -0.3725
13782W        W29856  11.290   7.124  12.596 -0.4953 -0.2327  0.3820
13783W        W29857  10.178   7.499   1.867  0.1008  0.3906 -0.0892
13784W        W29858   2.891   4.873   4.139  0.0991  0.2377  0.3233
13785W        W29859   5.787   2.943   1.764  0.0008 -0.1269 -0.1255
13786W        W29860   0.490  11.047   1.490  0.0674  0.0495  0.4420
13787W        W29861  18.397   7.017  14.485  0.2339 -0.1921 -0.0451
13788W        W29862  16.083   1.991   2.143 -0.2345  0.0774 -0.0988
13789W        W29863  15.241   2.004  13.857 -0.3943 -0.2452  0.0008
13790W        W29864  11.787   8.471   1.707 -0.2020 -0.0902 -0.1284
13791W        W29865  11.120   2.148   0.795 -0.0851 -0.0824  0.1664
13792W        W29866  18.177   6.835  11.723  0.2994  0.2925 -0.0199
13793W        W29867   4.053  11.437   1.194 -0.2084  0.1523 -0.0148
13794W        W29868   6.840  18.494  12.014  0.0970  0.1396 -0.2894
13795W        W29869  14.293   2.301   5.444  0.1187  0.0025  0.0635
13796W        W29870  14.205   0.204   1.506  0.0084 -0.0453  0.3825
13797W        W29871  13.194  15.365  13.991  0.2129 -0.1310 -0.0034
13798W        W29872   8.257   0.621  13.580  0.0223  0.0457  0.2844
13799W        W29873   2.140   3.206   6.048 -0.0464 -0.0222  0.1330
13800W        W29874  17.367  16.196   2.504  0.0261  0.1694  0.1205
13801W        W29875  18.054  10.818   4.011 -0.2630 -0.1102  0.3016
13802W        W29876  12.183   9.594  14.937  0.0401  0.2434  0.3744
13803W        W29877  16.324   1.756  11.458 -0.1203  0.2705 -0.3475
13804W        W29878   9.236   8.172   4.260 -0.0040 -0.2572 -0.0240
13805W        W29879   7.113   8.220  14.716  0.1822 -0.1008 -0.1182
13806W        W29880  11.089   6.778   4.562  0.1898 -0.0416 -0.1055
13807W        W29881  11.915   8.688  13.402  0.1690 -0.0572  0.2358
13808W        W29882   3.361  17.871   3.566 -0.3321  0.2345 -0.0597
13809W        W29883  14.729  15.588  12.066 -0.3840  0.2801 -0.1164
13810W        W29884  12.170  10.185   4.208  0.0527 -0.0295  0.1252
13811W        W29885  17.578   8.477  12.294  0.0958  0.0598  0.0621
13812W        W29886  10.630   0.869  12.371  0.3166 -0.0821  0.1517
13813W        W29887   3.686   5.138  13.650 -0.1093 -0.0389 -0.0899
13814W        W29888   5.233  17.643  11.008  0.0282  0.1323 -0.4737
13815W        W29889   1.563   2.317   2.658 -0.1117  0.0125 -0.1067
13816W        W29890   4.592  15.263  11.531  0.0453 -0.1924 -0.3063
13817W        W29891   1.087   7.422   5.761  0.1288 -0.1719  0.2880
13818W        W29892  12.460  13.117   5.159 -0.1673 -0.1561 -0.0699
13819W        W29893   3.138   9.588  11.981  0.3741 -0.0136 -0.1742
13820W        W29894  15.238  13.898   0.378 -0.1266 -0.3076 -0.0705
13821W        W29895   0.953  14.639   0.906 -0.0013  0.2740  0.1901
13822W        W29896  10.724   7.971   1.410 -0.0880  0.1744 -0.0006
13823W        W29897   9.934   0.925  12.806  0.0564  0.0406  0.0205
13824W        W29898   7.697  16.677   5.340 -0.1316 -0.0684 -0.0386
13825W        W29899  12.704  16.563   1.356  0.0487 -0.0464 -0.1889
13826W        W29900   9.998   2.060   5.701  0.1414 -0.0925  0.0794
13827W        W29901   2.188   4.034  15.361  0.1420  0.0491  0.2460
13828W        W29902  14.538  17.661   5.927  0.1474  0.1088 -0.1131
13829W        W29903   8.504   1.622   0.535  0.2232  0.0003  0.3648
13830W        W29904   1.512   2.187   0.697  0.1713  0.1229  0.0242
13831W        W29905  10.663   8.523  11.212  0.2276  0.0848 -0.1301
13832W        W29906  10.824  10.851   0.967  0.3592 -0.0240  0.2029
13833W        W29907  17.384  15.824   3.330  0.1233  0.1458 -0.2289
13834W        W29908  11.478  14.398   0.892  0.2828  0.3064 -0.0870
13835W        W29909   9.049  11.600   1.918 -0.0163 -0.0046  0.2020
13836W        W29910  18.230   3.731  15.548 -0.2513  0.4093  0.0507
13837W        W29911   4.925  12.780   3.445  0.1588  0.2190  0.1342
13838W        W29912  17.589  17.546  10.832 -0.3802  0.0793 -0.0324
13839W        W29913   4.350   8.311  13.508 -0.2686  0.0987 -0.4317
13840W        W29914   4.331  15.480   0.946 -0.0567 -0.0292 -0.2284
13841W        W29915   7.142   2.478  15.303  0.1675 -0.2516  0.3019
13842W        W29916  11.843   2.876   1.067 -0.0357  0.2374 -0.0467
13843W        W29917   2.047  16.500  14.255  0.0350  0.2825 -0.4084
13844W        W29918   5.154  10.103  14.518  0.3102 -0.0946 -0.1154
13845W        W29919  10.270   7.814   1.503  0.2365  0.1074 -0.0169
13846W        W29920   6.011  16.119   0.246  0.0858 -0.0913 -0.1059
13847W        W29921  16.202   2.880   1.310  0.0627 -0.3071 -0.0733
13848W        W29922  12.837  13.632  11.224 -0.2394  0.1031  0.0033
13849W        W29923   2.566  16.781  14.210 -0.1071  0.3554 -0.1043
13850W        W29924   1.591  17.259   0.628  0.2079 -0.3167  0.0075
13851W        W29925  14.963   4.293  14.738 -0.1861  0.0628  0.0992
13852W        W29926  12.134  12.915   2.932 -0.2563  0.2508 -0.3492
13853W        W29927   6.602  17.982  14.498  0.1166  0.1179 -0.1323
13854W        W29928  17.701   4.189   1.576 -0.0880 -0.0328 -0.1178
13855W        W29929  13.586  11.916   4.977  0.2192  0.5079 -0.1486
13856W        W29930   8.799  14.172  11.392  0.0464 -0.2955  0.0854
13857W        W29931   5.676   0.575  14.195 -0.0454 -0.0140 -0.1597
13858W        W29932   3.787  14.889  14.049 -0.1189 -0.4559 -0.1376
13859W        W29933   9.607   5.966  12.612  0.2552 -0.0178 -0.1352
13860W        W29934   8.186  15.060  11.370  0.0851  0.2575 -0.2538
13861W        W29935   7.821  16.383  12.285 -0.2304 -0.0045 -0.3818
13862W        W29936   4.879  16.989  13.151 -0.2074 -0.0710  0.1255
13863W        W29937  18.543   1.655   3.409  0.2856  0.2631  0.0076
13864W        W29938   2.682  17.905   3.519 -0.0099 -0.0530  0.2799
13865W        W29939  16.111  16.046   4.890 -0.1683  0.0981 -0.0634
13866W        W29940   1.830   1.859  14.496  0.0187 -0.0941 -0.0117
13867W        W29941  17.317  12.417  11.377  0.0540 -0.1741 -0.0561
13868W        W29942  12.162   8.389   4.807  0.2092 -0.0808  0.3240
13869W        W29943   9.471   8.556   0.114  0.0837 -0.0257 -0.1503
13870W        W29944  12.082  14.902   3.935 -0.4957  0.0868 -0.0312
13871W        W29945   3.329  10.473   0.142 -0.1474 -0.2923  0.0052
13872W        W29946   9.785   8.865  14.484 -0.0512 -0.4918 -0.0028
13873W        W29947  15.960   4.371   2.629  0.0118  0.2409  0.0074
13874W        W29948   6.104   1.396  14.268  0.2402 -0.0398  0.1181
13875W        W29949  16.583  14.696   1.027  0.0763 -0.0950 -0.0031
13876W        W29950   4.861   7.831  12.294 -0.0170 -0.1498  0.3144
13877W        W29951   6.288   8.163  15.545  0.0469 -0.4292  0.0082
13878W        W29952   9.085   6.912   1.988  0.2021  0.3368  0.2697
13879W        W29953  11.474   0.257  14.522  0.0378  0.0032  0.0100
13880W        W29954   9.821  17.661  12.959 -0.0033  0.1847  0.0681
13881W        W29955  12.017  15.960  10.915  0.0882  0.2171  0.3525
13882W        W29956   1.252   1.606  15.178 -0.0178  0.3208  0.0453
13883W        W29957   7.284  15.522  11.115 -0.0344 -0.1476  0.0540
13884W        W29958  10.627  17.097   4.394  0.2638  0.1405 -0.0340
13885W        W29959   6.760   9.678  13.249  0.2625 -0.0489  0.1439
13886W        W29960   7.504  10.479   4.067  0.1136 -0.2533 -0.0796
13887W        W29961  16.953   5.944   3.974  0.0209 -0.2595 -0.1416
13888W        W29962  12.579   5.791  14.103  0.0311 -0.0954 -0.1194
13889W        W29963  10.425   0.088  15.397 -0.0034 -0.0335 -0.0157
13890W        W29964  18.038  18.345  15.517 -0.2079 -0.0256 -0.2336
13891W        W29965  10.410  13.078  12.498  0.1183  0.3306 -0.0123
13892W        W29966   1.494  12.540  14.744 -0.3187 -0.1532 -0.0795
13893W        W29967   8.303  10.224  13.019  0.2096 -0.0444  0.0761
13894W        W29968   3.895   0.435  14.438  0.0256 -0.2890 -0.0188
13895W        W29969  16.042   7.508   4.539 -0.0245 -0.1405  0.0641
13896W        W29970   4.122  11.889  12.942 -0.1346 -0.2681  0.4128
13897W        W29971   2.109   4.289   0.785  0.1671 -0.0362 -0.0801
13898W        W29972   5.046   7.322   3.051 -0.0734  0.0234  0.3670
13899W        W29973   7.691  16.340  12.860  0.5353 -0.1497 -0.0112
13900W        W29974  15.133  11.481   0.915  0.1833  0.1904 -0.0199
13901W        W29975   5.304  16.307  15.954 -0.1026  0.2576 -0.0501
13902W        W29976   0.392  13.179  12.541  0.2318  0.5459  0.0776
13903W        W29977  18.285  15.981   4.431 -0.0433  0.1527 -0.1432
13904W        W29978  11.723   3.485  14.621 -0.0694 -0.0050  0.0746
13905W        W29979  11.234   6.199  11.680 -0.0325  0.0249 -0.1623
13906W        W29980   1.675   9.958  15.557  0.2063  0.1058  0.0414
13907W        W29981   1.651   5.597   2.689  0.1103 -0.2749 -0.0527
13908W        W29982  14.932  17.189  14.236 -0.1050  0.0997 -0.0854
13909W        W29983   8.985  10.530   0.653 -0.2922 -0.1017  0.1730
13910W        W29984   4.848  17.646  11.803  0.1023  0.0790 -0.0761
13911W        W29985  15.343  12.235  14.790  0.0104  0.0763  0.1807
13912W        W29986   6.715   6.025   1.893  0.4123  0.3374 -0.1471
13913W        W29987  12.159   7.317  14.193  0.2202 -0.2862  0.3148
13914W        W29988  13.131  16.740   1.074  0.1624 -0.1867 -0.0822
13915W        W29989   3.619  11.208   2.751 -0.2490 -0.0263 -0.0983
13916W        W29990  17.847   8.151  15.239  0.1505  0.2973  0.0377
13917W        W29991  18.155  15.006   4.567  0.0782 -0.0743 -0.0488
13918W        W29992   5.982  12.319   4.044 -0.0157  0.3052 -0.1876
13919W        W29993   0.168   2.492  12.171  0.0842  0.1077 -0.0879
13920W        W29994  12.530   6.478  15.959 -0.1714 -0.0509  0.2266
13921W        W29995   0.235  15.175  15.161 -0.1497  0.2611  0.1200
13922W        W29996   3.501   8.481   1.209  0.1398 -0.0961  0.0383
13923W        W29997   9.473   5.611   3.427  0.1206  0.0540 -0.0477
13924W        W29998   8.219  11.677  12.112  0.1158 -0.2159 -0.0105
13925W        W29999   5.632   6.986   2.038  0.4314  0.4339  0.1262
13926W        W30000   1.814   5.634  14.659  0.0425  0.2461  0.0375
13927W        W30001   2.509   7.485   0.198 -0.1567  0.1170  0.1908
13928W        W30002  12.750   4.694  15.453  0.0145 -0.2180 -0.0782
13929W        W30003  15.177   9.863   5.071 -0.1061 -0.2191  0.3670
13930W        W30004  18.004   7.621  15.092  0.0464 -0.3479 -0.0771
13931W        W30005   1.933  14.258  15.196 -0.0736 -0.2405 -0.1457
13932W        W30006   0.377   2.049  13.362 -0.2992 -0.0276 -0.1812
13933W        W30007  16.461   4.025  12.618  0.1963 -0.1252 -0.0664
13934W        W30008   7.574  10.494  13.345  0.2725 -0.2876  0.1937
13935W        W30009  13.769   3.974   4.676  0.0587 -0.2161 -0.1918
13936W        W30010  11.047   3.685   5.687  0.0804 -0.2264 -0.0299
13937W        W30011  16.902   1.704  13.548  0.0089  0.3412  0.2751
13938W        W30012  14.598   7.896   3.053  0.2080  0.1609  0.2203
13939W        W30013   4.395  16.824   1.555 -0.1835 -0.1185  0.0670
13940W        W30014   9.887   3.098  16.000  0.3606  0.0132 -0.1701
13941W        W30015   4.273  16.836   0.690  0.1876 -0.2905  0.0840
13942W        W30016  17.102  17.423  10.644  0.2040 -0.0354  0.0023
13943W        W30017   0.692   9.144   6.098 -0.3704  0.1965 -0.0467
13944W        W30018  17.946   8.966   2.521 -0.1244  0.1518  0.0952
13945W        W30019   3.097   4.340   2.673 -0.0464  0.3049  0.0355
13946W        W30020   6.842   2.183   2.011  0.3892  0.0043 -0.4776
13947W        W30021  11.164   5.351   4.800  0.0927  0.3586 -0.0822
13948W        W30022   4.291  15.771   3.604  0.2037  0.2944 -0.1070
13949W        W30023   3.732  10.817  12.469  0.4709  0.1089 -0.0340
13950W        W30024   0.043   5.833  11.669  0.2594 -0.2580 -0.0402
13951W        W30025  10.112   7.904  13.051 -0.2326 -0.2165 -0.0559
13952W        W30026   1.660  11.805  11.307 -0.2230 -0.0838  0.1754
13953W        W30027   3.113   6.059   1.084  0.1243  0.1231 -0.0249
13954W        W30028  16.101   8.096  11.125 -0.0214  0.4348 -0.1592
13955W        W30029   2.102   1.236   0.264  0.0712  0.2070 -0.1339
13956W        W30030   2.423  14.785  15.091 -0.0287 -0.0167 -0.0663
13957W        W30031   0.558  17.878  13.522 -0.0295  0.0979 -0.3267
13958W        W30032   0.533   2.206   5.323 -0.1787  0.0115 -0.1491
13959W        W30033   0.394   7.879  13.751  0.0763  0.0852 -0.0569
13960W        W30034  11.824   5.873  12.011 -0.0489  0.1654 -0.0153
13961W        W30035   7.669   2.043   3.564  0.0919  0.0449  0.1177
13962W        W30036  11.880   6.573  14.861  0.0368 -0.2254 -0.1561
13963W        W30037   0.898   7.078  11.852  0.1118  0.1976 -0.2449
13964W        W30038   6.898   5.386   4.906  0.1229 -0.1368 -0.0776
13965W        W30039  14.677   1.234   0.511 -0.1182  0.0519  0.2544
13966W        W30040   6.730  10.446  11.402 -0.0928 -0.1782 -0.2229
13967W        W30041  14.650  16.302   4.333 -0.1565  0.1236 -0.0180
13968W        W30042   6.014  13.927  12.246  0.0165  0.0545 -0.1387
13969W        W30043  14.475   8.929  13.195 -0.0617 -0.5463  0.0684
13970W        W30044   6.841   1.382  12.039 -0.0689 -0.1381 -0.1012
13971W        W30045   6.022   1.433  12.076  0.0961 -0.2045 -0.0515
13972W        W30046  10.770  10.342  12.024 -0.1689 -0.0037 -0.2476
13973W        W30047  14.670   4.821  11.355 -0.1726  0.4435  0.0302
13974W        W30048  11.595  18.267  13.553 -0.1922  0.1337 -0.0127
13975W        W30049   2.231  17.845  11.504 -0.4044  0.2994 -0.1812
13976W        W30050   1.496   3.666  11.281 -0.4329 -0.0774 -0.1567
13977W        W30051  14.622  16.521  12.167 -0.0289  0.3456 -0.1582
13978W        W30052   0.594  10.065   3.062  0.1386  0.1794  0.0037
13979W        W30053   4.712   1.764   1.734 -0.4802 -0.0871  0.3494
13980W        W30054  10.559  15.972   3.917  0.1192  0.3470  0.0326
13981W        W30055  13.937  12.727   1.747  0.0479 -0.1298  0.1275
13982W        W30056  12.094  14.433  11.014 -0.2875  0.1067 -0.0196
13983W        W30057   3.162  13.161   2.670  0.1551  0.0712  0.0886
13984W        W30058   8.141   3.498  11.568  0.1480 -0.1281 -0.3581
13985W        W30059  17.808   1.865  15.157 -0.0686  0.0038 -0.0128
13986W        W30060  10.512  10.087   4.517  0.0942 -0.2072 -0.3334
13987W        W30061   7.250   0.228  12.824  0.0998  0.2041  0.1902
13988W        W30062  11.514  14.932   0.167 -0.3659 -0.0279 -0.1486
13989W        W30063  16.685  17.495   2.044  0.0330 -0.4260 -0.1519
13990W        W30064  17.262   8.545   5.002  0.1805 -0.1651 -0.0926
13991W        W30065   7.039  14.580  15.997  0.0778  0.0312  0.1449
13992W        W30066  12.558  11.307  14.024 -0.2071 -0.1921  0.1937
13993W        W30067  18.330  13.442  13.205 -0.1221 -0.0775  0.0943
13994W        W30068  14.344  16.350  13.968 -0.1227  0.0260 -0.0155
13995W        W30069  14.125  10.973  13.197  0.1361  0.0156 -0.2076
13996W        W30070   7.823   8.069  12.063  0.2407  0.3530  0.0501
13997W        W30071   2.745   6.466   2.884  0.0733 -0.1604  0.0758
13998W        W30072  12.018   7.051  13.180  0.2577  0.0159  0.1410
13999W        W30073  16.359  17.479  14.567  0.1468  0.0743 -0.4817
14000W        W30074   1.043   6.602  15.128 -0.1989 -0.1045 -0.0374
14001W        W30075  17.394   9.063   4.056  0.3140  0.0020  0.1574
14002W        W30076  10.299  16.612   1.697 -0.0863 -0.1613 -0.0691
14003W        W30077   1.467  17.937  12.703 -0.4058 -0.2302 -0.3091
14004W        W30078   5.821   4.437   1.787  0.1314  0.1062 -0.2756
14005W        W30079   3.122   1.079  14.268 -0.1697 -0.0725 -0.2171
14006W        W30080   9.336  13.791   3.220  0.1024  0.4134 -0.0132
14007W        W30081   6.592  13.260   5.314  0.2529 -0.2316  0.2748
14008W        W30082  10.957   0.418   0.208  0.0697 -0.2030  0.1070
14009W        W30083  16.817  17.697  14.428  0.0279 -0.1795  0.1246
14010W        W30084  16.030   8.994  13.011 -0.0476 -0.1154  0.1341
14011W        W30085   5.838   5.094   2.282 -0.2484 -0.1225  0.2155
14012W        W30086  15.587  12.594   0.734  0.0136 -0.3528  0.0383
14013W        W30087   0.944   6.410   2.218  0.1566  0.0587 -0.2427
14014W        W30088  16.707   6.625  11.319 -0.1027  0.0974  0.1755
14015W        W30089   9.021   3.286  11.972 -0.3030 -0.2058  0.0532
14016W        W30090  13.432  11.642  12.624 -0.0863  0.0010  0.0770
14017W        W30091   1.090   7.217   4.460  0.1358  0.0069 -0.2640
14018W        W30092  14.270  14.551  13.774 -0.0334 -0.1629 -0.3678
14019W        W30093   7.113   2.228  12.355 -0.3374 -0.2027  0.2409
14020W        W30094   6.789   0.512   9.390  0.0174  0.1309  0.3504
14021W        W30095  17.340  13.288  15.049 -0.0067 -0.3540 -0.0276
14022W        W30096   0.785   6.744  14.356 -0.1605  0.0933 -0.3684
14023W        W30097   2.873  17.876  12.369  0.2071  0.1882  0.4703
14024W        W30098   2.624   4.184   4.610  0.1850 -0.0752  0.2554
14025W        W30099   0.312  16.888   1.498 -0.2384  0.0090 -0.1342
14026W        W30100  11.716   1.361  14.337  0.2358 -0.1933 -0.1931
14027W        W30101   0.911   1.379   5.688 -0.3895 -0.0439 -0.1216
14028W        W30102  15.083   7.034  14.036  0.0950 -0.2982 -0.3787
14029W        W30103   6.800   3.950   2.579  0.0990  0.1081  0.2516
14030W        W30104  16.976   4.690  11.549  0.0300 -0.1765  0.0078
14031W        W30105   1.138  17.337  13.009 -0.0721 -0.0287 -0.0362
14032W        W30106   2.485   3.672   3.489 -0.0567 -0.1656  0.0906
14033W        W30107  11.107   0.191  14.016  0.3326  0.0809 -0.0863
14034W        W30108   3.468   4.152   4.606 -0.0126 -0.1108 -0.3877
14035W        W30109  14.573  11.964   1.523  0.2009 -0.0381  0.1585
14036W        W30110   0.505  10.228   1.717 -0.2006  0.0385  0.0364
14037W        W30111   0.313  12.842  14.724  0.2003 -0.0844 -0.2275
14038W        W30112  16.169   9.787   4.189 -0.0795  0.0041  0.2826
14039W        W30113   5.895   7.883   0.461  0.1382 -0.0554  0.1346
14040W        W30114   0.786  10.294  15.364  0.0344  0.2135  0.2249
14041W        W30115   6.595  17.818   3.663  0.0729 -0.0538 -0.1387
14042W        W30116  12.782   8.813  10.638 -0.0132  0.0095  0.1184
14043W        W30117  18.288  16.587   1.080  0.0100  0.3600 -0.0490
14044W        W30118  11.279  11.113   0.640 -0.0940  0.2502 -0.0617
14045W        W30119  14.720   3.070  13.392 -0.3144  0.2241  0.0928
14046W        W30120  12.566   5.905   1.542 -0.0387 -0.1058 -0.0965
14047W        W30121  15.214  18.478  14.904 -0.1044 -0.1216  0.2251
14048W        W30122   4.361   0.628  14.583  0.0927 -0.0964 -0.0682
14049W        W30123  15.705  12.872   3.132  0.2327  0.3165 -0.2895
14050W        W30124   9.302   4.315  15.077 -0.0867 -0.0122 -0.1465
14051W        W30125   2.945  16.556   2.206 -0.2257  0.2700  0.1752
14052W        W30126   6.105  15.845   5.127 -0.0707 -0.0021 -0.0322
14053W        W30127   8.747   6.997  13.389  0.1207 -0.0377  0.2330
14054W        W30128  13.675   3.088   3.196 -0.2718 -0.1740 -0.1768
14055W        W30129  17.385  13.946  15.781  0.0610 -0.0322  0.0008
14056W        W30130   0.211  16.210   5.210  0.3350 -0.1230 -0.1053
14057W        W30131   0.374  15.943  14.050 -0.0063 -0.0580 -0.4926
14058W        W30132   4.973   0.893   3.875 -0.0884  0.2012  0.1710
14059W        W30133   8.815  17.673   0.643 -0.1169  0.4719 -0.1938
14060W        W30134  16.325   2.906  14.082 -0.2103  0.2668 -0.2955
14061W        W30135  16.527   6.788  13.421  0.2633 -0.2283 -0.0582
14062W        W30136   8.968  14.212  13.261  0.0753  0.0381  0.0653
14063W        W30137   7.151   1.930  11.969  0.0290 -0.2239 -0.3562
14064W        W30138  10.020   6.268   3.015  0.2335  0.1637 -0.1618
14065W        W30139  10.545  11.989   4.220 -0.1901 -0.3399  0.0522
14066W        W30140  11.851   2.088   0.266 -0.0796 -0.2116 -0.2935
14067W        W30141   3.592   0.105  13.045  0.0159  0.1405 -0.0611
14068W        W30142  18.334   3.159  11.745 -0.2513  0.0970  0.1770
14069W        W30143  11.224   8.311   0.782 -0.5388 -0.1331  0.2695
14070W        W30144  17.969  18.401  11.662 -0.2153  0.2570  0.0840
14071W        W30145   2.892   1.867   0.019 -0.0108 -0.4756 -0.1488
14072W        W30146   2.728  14.644   0.892 -0.2508 -0.1105 -0.0052
14073W        W30147   4.440   7.156   1.936  0.0763 -0.0117  0.1082
14074W        W30148   0.240   5.528  12.126 -0.1180 -0.0827  0.0503
14075W        W30149   5.455  13.110   5.249 -0.3152  0.0844  0.3714
14076W        W30150   2.222   2.703   3.993 -0.0562 -0.0578  0.0605
14077W        W30151   8.693   6.016   0.174 -0.1567 -0.0705  0.0931
14078W        W30152   1.949  15.396   3.992  0.3494  0.0102  0.2561
14079W        W30153  12.616   1.032   2.939 -0.1878  0.1091  0.1722
14080W        W30154   8.148   9.487  11.393  0.2155  0.1928  0.3471
14081W        W30155  15.578  14.535  12.316  0.0898  0.2546 -0.0178
14082W        W30156  17.113   2.123  13.426 -0.0546 -0.0686 -0.1068
14083W        W30157   4.365   7.834  12.487  0.0630 -0.1332  0.1363
14084W        W30158   0.729   1.769  11.487  0.1892  0.0743  0.0907
14085W        W30159  17.527   6.371   1.292  0.0410  0.1864 -0.0924
14086W        W30160   3.538   2.979   0.311 -0.0456 -0.2313 -0.0014
14087W        W30161  13.587   5.705  11.124  0.0050  0.1165  0.0508
14088W        W30162  11.267  14.776  14.282  0.1272 -0.1152  0.0429
14089W        W30163  16.508   6.381  13.150 -0.2728  0.0874 -0.1065
14090W        W30164   8.905  14.960  13.772 -0.3302  0.1447 -0.1066
14091W        W30165  18.030  11.456   3.413 -0.0243 -0.3068  0.4200
14092W        W30166  10.520   1.113   3.523  0.0529 -0.0054 -0.1704
14093W        W30167   5.710   4.719  11.959  0.0303  0.0194  0.1604
14094W        W30168   6.595   9.652   0.348 -0.2762  0.1856  0.1053
14095W        W30169  13.032   9.737   2.651  0.1912 -0.0140 -0.1707
14096W        W30170   4.473  11.157   2.678  0.0275 -0.1686  0.0496
14097W        W30171   1.528  17.315  15.663  0.0705  0.0354  0.2934
14098W        W30172  10.045  14.981  12.453  0.0232 -0.1427 -0.1791
14099W        W30173   2.530   9.988  14.133 -0.3720  0.2938  0.0191
14100W        W30174   1.820  11.756   3.578 -0.1025 -0.2706  0.1972
14101W        W30175   7.529   0.241   1.076  0.3155  0.2151  0.1357
14102W        W30176   3.933  10.009  13.152 -0.0889 -0.3925  0.4292
14103W        W30177   9.757  15.243  10.686  0.3339 -0.1113 -0.0690
14104W        W30178   5.476   7.609  14.362 -0.0268 -0.0865 -0.0534
14105W        W30179   0.498   7.877  15.665 -0.0777 -0.4366  0.1802
14106W        W30180   2.986  14.074  14.870  0.1027 -0.1563 -0.1645
14107W        W30181  16.039   4.635  11.564  0.0211 -0.1420 -0.0009
14108W        W30182   8.182  16.999  14.417 -0.2330  0.2904 -0.2339
14109W        W30183   8.082   8.104   2.060  0.0792  0.1619 -0.1488
14110W        W30184   9.157  10.238   2.430  0.1574  0.0686  0.0985
14111W        W30185  15.051   9.101  14.642 -0.5776 -0.0999 -0.1776
14112W        W30186   9.341   0.419   2.625 -0.0514  0.0085  0.0433
14113W        W30187  12.625   9.416   2.377 -0.1112  0.0249 -0.0713
14114W        W30188  13.176   2.214   5.330 -0.0538 -0.2191 -0.0497
14115W        W30189  14.598   1.232   1.475  0.4396  0.1608  0.1171
14116W        W30190  16.435  18.165   0.278 -0.1342  0.2479 -0.0643
14117W        W30191   8.377  17.982  13.274  0.1278  0.1666 -0.2431
14118W        W30192  18.541  13.424  12.481 -0.0018  0.0198  0.0800
14119W        W30193   6.570   9.067  11.339 -0.2726  0.2834  0.1051
14120W        W30194  13.234  17.487   5.672  0.0925 -0.1539  0.0487
14121W        W30195   8.666  16.926   3.341 -0.4391 -0.3502  0.0359
14122W        W30196  10.244   7.991   4.714 -0.0003  0.0531  0.1965
14123W        W30197   5.171   0.405   3.709  0.0671  0.0103  0.1464
14124W        W30198   1.405   8.876   4.392 -0.0080 -0.3284  0.0338
14125W        W30199   8.499  18.509   1.194 -0.1976 -0.3018 -0.1757
14126W        W30200   4.816  12.950   3.902  0.0037  0.2584 -0.1004
14127W        W30201  11.722   4.546  15.214  0.3328 -0.2944 -0.3820
14128W        W30202   1.516  12.680  12.937 -0.2784  0.1652 -0.2393
14129W        W30203   9.079   7.075  11.554  0.2334  0.1508 -0.0645
14130W        W30204   7.526  16.740   4.322 -0.0840 -0.0734 -0.0501
14131W        W30205   1.383  12.397   0.676 -0.1060  0.0778  0.0790
14132W        W30206   2.464   3.621   1.733  0.0614 -0.1147 -0.1375
14133W        W30207   5.453  16.583  14.110 -0.2654  0.2835 -0.0354
14134W        W30208   0.968   0.974  10.682 -0.2951  0.0299  0.0377
14135W        W30209  11.994  17.958  13.725  0.3669  0.1182 -0.2005
14136W        W30210  16.307  15.742  14.082  0.1792  0.2220  0.1969
14137W        W30211   8.953   3.658   4.086  0.2499 -0.2430 -0.2120
14138W        W30212   6.748  16.657  14.190  0.0610 -0.2325  0.3008
14139W        W30213  14.686   5.977   0.765  0.1531 -0.3153 -0.1332
14140W        W30214  16.959  12.011  13.990  0.0322 -0.1712 -0.0438
14141W        W30215  14.881   5.804   2.993  0.0577  0.0580 -0.1669
14142W        W30216  12.151   9.926   1.632  0.0620  0.0534 -0.2572
14143W        W30217  15.831  14.635  13.942 -0.2253  0.4013 -0.0209
14144W        W30218  17.212   9.249   3.377 -0.1412  0.2199  0.1350
14145W        W30219  14.437   1.934  11.762  0.0585 -0.0425 -0.3375
14146W        W30220   1.743  10.966   1.978 -0.1360 -0.0100  0.2755
14147W        W30221   0.124  14.186  12.183 -0.1063  0.2027 -0.0506
14148W        W30222  12.504  10.095   3.147 -0.0326  0.1285  0.2208
14149W        W30223   8.611   6.639  12.289 -0.2981  0.0236  0.1402
14150W        W30224  14.237   4.682   2.189  0.1375  0.0627 -0.2471
14151W        W30225  18.480  11.103  14.252 -0.0451  0.3297  0.4232
14152W        W30226  18.332  17.689   2.234  0.0000  0.1543  0.4395
14153W        W30227  17.918   7.064  14.161  0.3842 -0.2412 -0.1836
14154W        W30228   1.834   4.115   3.077 -0.0914  0.3415 -0.1164
14155W        W30229  18.372   5.986   1.854 -0.1477 -0.3657  0.3942
14156W        W30230   4.913  11.718   4.471  0.1926  0.0656  0.1443
14157W        W30231   5.342  12.263   1.127  0.0458 -0.1657  0.3729
14158W        W30232   8.598  17.141  13.349 -0.0786  0.0581 -0.2089
14159W        W30233   0.197   4.487   3.871  0.0216 -0.0171 -0.0907
14160W        W30234   3.910  16.712   4.387 -0.1388 -0.0941 -0.0952
14161W        W30235   5.755  11.297   0.028 -0.0684 -0.1564  0.2889
14162W        W30236  11.732   5.100  15.715  0.0855 -0.0623 -0.2094
14163W        W30237  12.307   7.367   0.802  0.0608  0.3106  0.0691
14164W        W30238  10.365   3.626   4.307 -0.0542 -0.2171 -0.1630
14165W        W30239   7.581   0.184  15.779 -0.1390  0.0256 -0.0359
14166W        W30240  13.040  14.976  11.406  0.0838  0.2390  0.2294
14167W        W30241  12.996  17.332  12.892 -0.2675  0.0931  0.0872
14168W        W30242   3.926  12.851  14.098  0.2448 -0.0480 -0.1249
14169W        W30243   0.613  17.058  15.905 -0.1868 -0.1991 -0.2192
14170W        W30244  18.074   8.956   4.633 -0.0549  0.0070  0.1565
14171W        W30245   0.883  17.477   0.692 -0.0941 -0.0106  0.1027
14172W        W30246   6.703  15.502   5.505  0.0087  0.1410  0.3500
14173W        W30247  11.134  16.069   2.554 -0.2552  0.1070 -0.1114
14174W        W30248  15.616   6.775   4.698 -0.1853 -0.0477 -0.1733
14175W        W30249   2.168   6.655   2.589  0.2355 -0.2655  0.0074
14176W        W30250  16.562   2.244   0.599 -0.0968  0.0981  0.0142
14177W        W30251   6.474   0.160  12.952  0.2384  0.0090  0.2321
14178W        W30252   9.357   2.502   2.064 -0.0260 -0.2085 -0.2221
14179W        W30253  13.954   3.459  11.928  0.1742 -0.0684  0.3216
14180W        W30254   6.239   0.912   2.577 -0.3397 -0.1655  0.0666
14181W        W30255   0.194  12.286  14.280  0.0450  0.2955  0.1818
14182W        W30256   3.299  18.132  11.717  0.3032  0.3058 -0.2799
14183W        W30257   7.979   6.848  14.205  0.1248 -0.0196 -0.1621
14184W        W30258  14.409   1.698   1.110  0.1330  0.0331  0.1593
14185W        W30259  10.263  14.234  12.980 -0.0900 -0.0016  0.1693
14186W        W30260  15.921   1.837   3.440 -0.2030 -0.2487  0.1119
14187W        W30261  12.081  15.997   0.885 -0.1059 -0.0096  0.2797
14188W        W30262   2.272  15.717   1.618 -0.0515 -0.0592  0.1507
14189W        W30263   1.726   0.527   4.948  0.0996 -0.0975 -0.6479
14190W        W30264  12.318   0.962  12.770 -0.1014 -0.0291  0.1306
14191W        W30265   7.165   1.163   5.167  0.0547 -0.1699  0.1343
14192W        W30266  13.571   7.144  12.293  0.1408  0.1199 -0.0185
14193W        W30267  13.896  14.864  13.637  0.3350 -0.1924  0.3078
14194W        W30268   2.090   3.921   1.728  0.0764 -0.2222 -0.0643
14195W        W30269   5.278   9.119   5.042 -0.1311 -0.1004 -0.1540
14196W        W30270  17.488  15.922  14.814 -0.0189  0.3108 -0.0514
14197W        W30271   8.119   5.421  12.596  0.2052 -0.0233 -0.1058
14198W        W30272   4.428   0.777   3.567  0.1819 -0.0192 -0.1981
14199W        W30273   4.460   9.055   0.221  0.0192  0.1700  0.0427
14200W        W30274   5.306  17.537  14.281 -0.0030  0.2552 -0.1416
14201W        W30275   5.489  16.599  12.246 -0.1239  0.0214  0.0273
14202W        W30276  13.905  12.379   5.332  0.0671 -0.2069  0.1322
14203W        W30277   4.507  11.027  12.859 -0.1360  0.0041 -0.0406
14204W        W30278   9.316  11.203   2.116 -0.1393  0.0645  0.1927
14205W        W30279  18.333   6.934   1.069  0.5490  0.2792 -0.1628
14206W        W30280  11.154  17.426   0.907 -0.1991 -0.1123  0.4244
14207W        W30281   7.665   2.605  13.635 -0.2725 -0.0170 -0.1646
14208W        W30282   6.210  13.291   0.418 -0.0721  0.0265  0.2042
14209W        W30283  16.880  14.032  12.793 -0.0172  0.0600 -0.0614
14210W        W30284   9.104   1.247  12.997 -0.2716  0.1178 -0.1055
14211W        W30285  14.085   8.425   4.548 -0.1130 -0.0126 -0.2417
14212W        W30286  15.889   0.442  14.045  0.1866 -0.0125  0.0644
14213W        W30287   5.523  10.179  13.374 -0.2874 -0.0268 -0.0169
14214W        W30288  16.418  15.770   1.676  0.0615  0.3163  0.1140
14215W        W30289   5.507   5.115   5.277  0.0636  0.2503 -0.4459
14216W        W30290  17.944   5.610  15.766 -0.1579  0.0955 -0.0200
14217W        W30291  12.302  15.291  12.405  0.0578 -0.1897  0.1138
14218W        W30292  10.800  17.947   1.386 -0.2003  0.0430 -0.0114
14219W        W30293   8.632   4.795   5.451  0.1026  0.3136  0.2084
14220W        W30294  11.642   5.393   1.032 -0.0532  0.0764  0.3497
14221W        W30295  11.694  17.940  14.640 -0.0393  0.0398  0.0216
14222W        W30296   1.540   8.228  13.676 -0.2318  0.4047  0.1890
14223W        W30297  12.023  16.606  13.441 -0.0966  0.2365 -0.0104
14224W        W30298   2.765   8.073  12.029  0.1140 -0.1817  0.2288
14225W        W30299   7.870  16.745   1.605  0.1338  0.1121 -0.0133
14226W        W30300   8.532  14.540  13.030 -0.4161 -0.1563 -0.2291
14227W        W30301   2.952   9.624   5.310  0.0342 -0.2267 -0.2134
14228W        W30302   4.342  15.998   1.862  0.0079 -0.1911  0.2475
14229W        W30303  16.242   6.968  10.479 -0.2761  0.1058 -0.2758
14230W        W30304   7.792   7.509  14.994  0.1657  0.1294  0.2655
14231W        W30305  16.501   7.185  12.365  0.0051 -0.1184  0.0689
14232W        W30306   3.286   2.983  11.513  0.0550  0.1220  0.0444
14233W        W30307  16.341   4.592   2.996 -0.2193  0.2915 -0.0695
14234W        W30308   3.361   9.738   4.348  0.1916 -0.0706  0.1072
14235W        W30309  13.942   6.197  11.956  0.1560  0.0208 -0.0466
14236W        W30310  15.937  10.164   6.080  0.4455  0.1318  0.1724
14237W        W30311  14.322  16.375   0.507 -0.0774  0.3609 -0.2267
14238W        W30312  15.966  15.294  12.471  0.0659  0.1125  0.0405
14239W        W30313  14.798   9.556  12.673 -0.0854 -0.4190 -0.1076
14240W        W30314  15.347   9.158   1.926 -0.0951 -0.1588 -0.0374
14241W        W30315  15.797   5.748   3.053  0.2995 -0.2458  0.2149
14242W        W30316   4.185   3.666   4.341  0.0060 -0.3233 -0.0695
14243W        W30317  12.702   4.812  13.123  0.0773 -0.2182 -0.2815
14244W        W30318   7.639  13.460   3.704  0.1771 -0.2504 -0.1075
14245W        W30319   1.899   1.309   3.044  0.0599  0.0763  0.2564
14246W        W30320   8.410  10.339   4.449 -0.2790  0.1196 -0.2655
14247W        W30321   5.982   6.889   0.544 -0.1678 -0.2595 -0.3899
14248W        W30322  10.294  17.462   0.207 -0.0211  0.1048  0.1272
14249W        W30323  17.070  15.073   3.742 -0.1340 -0.2199  0.3408
14250W        W30324  16.392   5.426   2.149  0.2394  0.2916 -0.0867
14251W        W30325   3.883   8.605   1.522  0.0409  0.1309  0.0382
14252W        W30326   8.616  15.726  15.767 -0.0630  0.0115 -0.2213
14253W        W30327   8.427   9.740   0.759  0.1961 -0.3373 -0.1878
14254W        W30328   5.971  17.379  15.878  0.5051 -0.3382  0.1525
14255W        W30329  17.192   1.888  11.880  0.0071 -0.1206  0.2271
14256W        W30330   2.796   9.550   1.642 -0.1705  0.1686 -0.1047
14257W        W30331  15.213   1.256   2.878  0.1804  0.4465  0.2672
14258W        W30332   0.521   4.094   3.255 -0.0929 -0.1826  0.0467
14259W        W30333   4.067  15.542  11.606 -0.0087 -0.0679  0.1608
14260W        W30334  14.018   3.375  11.453  0.1250  0.1671 -0.3838
14261W        W30335  13.600   8.808  14.361 -0.1201 -0.0765 -0.0663
14262W        W30336   4.893   7.843   3.105 -0.0955 -0.1922  0.1369
14263W        W30337  17.684   1.342   0.783  0.3022 -0.4111 -0.2782
14264W        W30338  10.183   4.870   0.398  0.2519 -0.2699 -0.1702
14265W        W30339  11.318   8.293   5.250  0.2192 -0.1055  0.2329
14266W        W30340   0.764   3.393   0.153  0.3021  0.1124 -0.1521
14267W        W30341   3.856  16.372   0.176  0.1862  0.3206 -0.1579
14268W        W30342  11.824   6.971   1.635  0.2149 -0.1134 -0.2008
14269W        W30343  15.755   3.348   1.268 -0.1824 -0.1101  0.1562
14270W        W30344   6.957  13.980  12.356 -0.1965 -0.2090 -0.1889
14271W        W30345  16.796   9.825  14.796 -0.0507 -0.0521 -0.0282
14272W        W30346  13.730   9.255  10.573 -0.2240 -0.0653 -0.4492
14273W        W30347   8.835   4.507  14.949 -0.0085 -0.2865  0.1499
14274W        W30348  10.076  11.982   2.741 -0.0061  0.0317 -0.4445
14275W        W30349   8.684   0.370   0.306 -0.2644  0.2566 -0.1377
14276W        W30350   4.328   3.374  15.773  0.1463 -0.1943 -0.1143
14277W        W30351   6.217  12.460   3.612  0.0045 -0.1992 -0.1717
14278W        W30352   4.128  16.424  10.781 -0.1810 -0.0732  0.0066
14279W        W30353   1.206   6.409  14.404 -0.3313 -0.1212  0.1162
14280W        W30354   9.137   5.820  13.158  0.1446  0.2504  0.1056
14281W        W30355   5.678  12.216  15.877 -0.0674  0.0118  0.1709
14282W        W30356   6.614  12.520  12.558 -0.0045 -0.0881  0.0225
14283W        W30357   9.267  12.366  15.143 -0.0942  0.0130 -0.2406
14284W        W30358   0.227   0.603   4.796 -0.0832  0.1781 -0.0140
14285W        W30359  12.768  11.387  12.103  0.2675  0.2210  0.1691
14286W        W30360  17.845   4.769   2.768 -0.0642 -0.1292 -0.0316
14287W        W30361  15.808  11.742  14.273  0.1016 -0.0990 -0.1901
14288W        W30362   1.674   9.991   5.457 -0.0935 -0.0088  0.1443
14289W        W30363   5.281   2.018  14.352 -0.2220 -0.3633  0.1356
14290W        W30364   5.638  16.573  15.174 -0.2792  0.2170 -0.1247
14291W        W30365   9.044   6.353  14.627 -0.1148 -0.0893  0.0698
14292W        W30366   6.582   9.112   1.572 -0.2926  0.0743  0.2336
14293W        W30367  12.930   8.990   2.730  0.0653  0.1176  0.2031
14294W        W30368   2.210  10.592  12.044 -0.3069 -0.1673  0.2852
14295W        W30369   9.661  17.580   5.083 -0.2635  0.2880 -0.1055
14296W        W30370  13.459  15.392   1.264 -0.0649  0.0481  0.0398
14297W        W30371   0.191   0.877  12.004 -0.2228  0.0879 -0.1332
14298W        W30372   5.109  14.596  11.416 -0.1400 -0.0602 -0.1239
14299W        W30373   8.930  10.970   4.872 -0.3412  0.1540 -0.0381
14300W        W30374   6.138   4.416   4.157 -0.3170 -0.1401  0.1648
14301W        W30375   0.422  16.203  13.106 -0.0069  0.2517 -0.3823
14302W        W30376  17.078   6.341  11.397 -0.1128  0.1100 -0.0431
14303W        W30377   7.244   5.066   5.639 -0.0813 -0.0237  0.0535
14304W        W30378  15.657   3.375   5.607 -0.0526 -0.0716  0.0045
14305W        W30379  10.949  17.465   1.355  0.1117 -0.0177  0.2093
14306W        W30380   9.690  10.710  13.771 -0.0951 -0.1050  0.0331
14307W        W30381  16.605   9.689   2.329 -0.2060  0.2033 -0.1522
14308W        W30382   1.536   1.419   2.694 -0.1200  0.0827 -0.0899
14309W        W30383  15.828  15.220   4.223 -0.1313  0.1934 -0.0015
14310W        W30384   5.799  15.540   2.584  0.0404  0.0016 -0.3582
14311W        W30385   6.730  18.423   5.992 -0.1745  0.1140  0.0162
14312W        W30386   6.735  11.335  11.437 -0.1902 -0.0083 -0.0148
14313W        W30387  12.138  17.521  14.534  0.0597 -0.0846  0.0090
14314W        W30388  12.352  12.323  11.193 -0.1933  0.0974  0.1272
14315W        W30389   4.385   3.780  11.844  0.0940  0.0236 -0.1538
14316W        W30390   3.624   9.196  12.110  0.1657  0.2813  0.2963
14317W        W30391   8.056   7.950   5.029  0.0640  0.2141 -0.0258
14318W        W30392   4.338   8.348  11.720 -0.1705  0.0781  0.1264
14319W        W30393   1.187   3.059  11.689  0.0101  0.1335  0.0220
14320W        W30394   0.645  16.356   3.058  0.0599  0.2841 -0.2567
14321W        W30395   7.085  15.970   0.908 -0.1568 -0.0857  0.0462
14322W        W30396   2.360   6.171  12.995 -0.2292 -0.0348 -0.0195
14323W        W30397   7.741  17.775  12.154 -0.1191  0.0328  0.2705
14324W        W30398   0.049   1.670  14.295 -0.1444 -0.3358  0.1077
14325W        W30399   3.042  12.700  11.980 -0.2653 -0.1403 -0.0793
14326W        W30400  11.198   7.163   3.237  0.5127  0.2924  0.2608
14327W        W30401  14.681  10.276   3.231 -0.1306 -0.0306 -0.1093
14328W        W30402   8.168   6.751  12.007 -0.1035  0.1778 -0.1326
14329W        W30403  10.336   2.433   3.742  0.2500 -0.0536 -0.1332
14330W        W30404  10.236   3.889  15.394  0.1957  0.0904 -0.2165
14331W        W30405  14.846  12.602   4.117  0.1005 -0.2390 -0.1321
14332W        W30406  17.693  18.045  15.898 -0.3263 -0.1163 -0.3011
14333W        W30407   3.121  10.670   4.316  0.0955 -0.1212 -0.3090
14334W        W30408  10.528   8.520  12.682 -0.0983  0.4013  0.0184
14335W        W30409  10.498   0.938   5.075 -0.0498  0.0255 -0.3726
14336W        W30410   7.698  11.546   3.709 -0.1082  0.0625 -0.1632
14337W        W30411  17.313   2.572  15.489  0.3930 -0.0070  0.1441
14338W        W30412  15.161  14.836  13.413  0.0112  0.1231  0.2399
14339W        W30413   0.468   4.607   4.342 -0.0776 -0.2169  0.0844
14340W        W30414  12.241   8.789  14.164 -0.0007  0.0832  0.0762
14341W        W30415  15.378   2.515  13.678  0.0191  0.2771  0.0491
14342W        W30416  11.000   6.231   4.046 -0.1474 -0.0159  0.3978
14343W        W30417   4.348   4.053   1.684 -0.3641 -0.0351  0.0129
14344W        W30418   9.857  16.242  12.500 -0.1721 -0.3907 -0.1573
14345W        W30419  14.734  13.507  13.171 -0.0835  0.0274 -0.0751
14346W        W30420   9.766  13.694  15.963  0.2196 -0.2918 -0.0103
14347W        W30421  13.517  17.311  12.056 -0.1147 -0.0686 -0.4996
14348W        W30422  12.339   4.567  11.417  0.4830 -0.4239  0.3846
14349W        W30423   5.902  16.908   2.379  0.1696  0.0637  0.2077
14350W        W30424  15.557   5.488  11.338  0.1303 -0.1324  0.1135
14351W        W30425  10.636   3.617  15.566 -0.1710 -0.1212 -0.0175
14352W        W30426   0.708   3.826   0.376  0.2496 -0.2259  0.1297
14353W        W30427  13.102   2.506  11.330  0.2408 -0.2174  0.0707
14354W        W30428   5.522  11.322   1.529 -0.1867  0.2437 -0.0978
14355W        W30429  18.505   4.240  12.267  0.0090  0.1553 -0.1081
14356W        W30430   8.532   3.352  11.812 -0.0423 -0.0235 -0.2658
14357W        W30431   3.421  16.982  10.778  0.0606  0.2917  0.3577
14358W        W30432  14.973  14.273   0.551 -0.0667  0.1162  0.1904
14359W        W30433  10.597   7.456  15.852 -0.2808 -0.1721 -0.4293
14360W        W30434  15.622   3.614   3.315  0.0185 -0.0309 -0.1381
14361W        W30435   2.548   1.848   4.343 -0.3384 -0.2181  0.1169
14362W        W30436   2.755   4.827  15.632 -0.1440 -0.4281  0.0243
14363W        W30437   8.702   2.106   2.523 -0.2413 -0.1428 -0.0251
14364W        W30438   0.629   6.832   6.295  0.2866  0.2054  0.1587
14365W        W30439  18.420  16.105  15.530  0.2245 -0.0463 -0.2099
14366W        W30440  16.498  10.941  14.179  0.1603 -0.3318 -0.1037
14367W        W30441   3.972  11.869  12.454 -0.1916  0.1695 -0.0020
14368W        W30442  18.294   3.806  12.211 -0.0464  0.3469  0.0376
14369W        W30443   4.449   5.501  13.335 -0.2129  0.1075  0.0614
14370W        W30444   9.548   8.524  12.567 -0.0845  0.0253  0.0647
14371W        W30445  11.280  13.149   5.192 -0.3103 -0.0599 -0.1137
14372W        W30446  15.589   0.236   5.270  0.4971 -0.2740 -0.2366
14373W        W30447   6.023   3.769  13.821 -0.0608  0.0866 -0.1123
14374W        W30448   5.102  17.088  13.639 -0.1359 -0.0672 -0.0689
14375W        W30449  15.044   6.759   2.092  0.1385 -0.0618 -0.1309
14376W        W30450   5.396   8.068   5.869  0.1761 -0.3680 -0.1615
14377W        W30451   6.996   6.538  12.756 -0.0900 -0.0911  0.0391
14378W        W30452   1.443   0.357   3.165  0.0934  0.0152  0.0925
14379W        W30453   1.200   9.210   5.803  0.4990 -0.0221  0.3353
14380W        W30454   1.885   1.014  14.243  0.0904  0.1734 -0.0525
14381W        W30455  14.351  15.301  11.649  0.1282 -0.0524  0.0197
14382W        W30456   5.774  10.398   5.569  0.3104 -0.3158 -0.3778
14383W        W30457  10.937  18.085   0.278 -0.1095  0.2207  0.0937
14384W        W30458   6.252  16.154   1.285 -0.0111  0.2589 -0.2483
14385W        W30459  14.493   9.109  15.287  0.4445 -0.1587  0.0572
14386W        W30460   7.056   8.245  13.692  0.0120 -0.1072 -0.0254
14387W        W30461  15.579  17.912  14.708  0.0054  0.0716  0.2623
14388W        W30462   9.334   2.555   3.547 -0.1410  0.0829  0.1505
14389W        W30463  13.501  13.577  11.148  0.0635  0.2312  0.0094
14390W        W30464   8.119   6.991   1.642  0.1118 -0.1044  0.2089
14391W        W30465   6.684   2.012  13.107 -0.4333  0.1996  0.1241
14392W        W30466  16.706  15.737  13.735  0.0296 -0.0263 -0.1905
14393W        W30467   5.375   0.185  14.791 -0.1440  0.2955  0.5409
14394W        W30468   2.108   2.597  15.371 -0.1070 -0.1905  0.2361
14395W        W30469  11.720  10.006  14.716  0.1322 -0.1210  0.2638
14396W        W30470  16.686   6.063  11.221 -0.1728 -0.0956 -0.0740
14397W        W30471  16.463  11.256  15.114  0.2102  0.3832  0.0088
14398W        W30472   7.122   5.506  15.703 -0.0078 -0.0829 -0.0034
14399W        W30473  11.379  12.848   4.663 -0.1610 -0.0255 -0.0799
14400W        W30474   7.476   9.071  12.912 -0.0956  0.2880  0.0317
14401W        W30475  13.261   3.897   2.417  0.2891  0.0195  0.6115
14402W        W30476   8.714   0.148   5.438  0.0628  0.2125  0.1097
14403W        W30477   6.308   2.302   1.537  0.1302 -0.0681 -0.0889
14404W        W30478  15.102  14.041  15.368 -0.0792  0.0380 -0.0141
14405W        W30479  17.193  10.615   3.802 -0.4719  0.3120  0.2480
14406W        W30480   6.272  13.670   5.193 -0.1331 -0.0413 -0.4346
14407W        W30481   8.364  15.955   3.782 -0.2407  0.0498 -0.2818
14408W        W30482   2.641   5.336  11.276 -0.1891 -0.2151  0.4813
14409W        W30483  17.943  18.268  14.958 -0.1911 -0.0207 -0.3377
14410W        W30484   4.955   6.638  13.765 -0.0474 -0.5199 -0.1024
14411W        W30485  12.643   8.423   3.409 -0.0845 -0.2735 -0.1552
14412W        W30486  11.253   7.309   1.018 -0.1272 -0.4144  0.1696
14413W        W30487  11.091  18.237  14.052 -0.0147  0.0711  0.2011
14414W        W30488   9.976   2.819  12.936 -0.1408 -0.1855 -0.2899
14415W        W30489   1.999   2.285   2.342 -0.0280 -0.1355 -0.0136
14416W        W30490  13.044  13.839   3.578  0.0620 -0.1370 -0.0524
14417W        W30491   9.805   3.969  16.001  0.0250  0.0829  0.2246
14418W        W30492   4.691  12.317   0.269  0.0361  0.0265 -0.7266
14419W        W30493  15.686  10.495   0.786  0.4083  0.0266 -0.4128
14420W        W30494  16.611  18.223  12.494  0.0833 -0.0780 -0.0636
14421W        W30495   2.741   2.270  11.434  0.0728 -0.1611 -0.0079
14422W        W30496   8.174   7.572  14.345  0.2356  0.2297  0.1032
14423W        W30497   4.514   0.816   2.679 -0.1426  0.1556  0.0836
14424W        W30498  14.023   1.236  12.311  0.0818  0.0801  0.0770
14425W        W30499  17.339   3.618  12.973  0.2607 -0.1274 -0.2023
14426W        W30500  10.467  16.229   4.946 -0.0235  0.1928  0.2348
14427W        W30501  15.782   3.521  15.184  0.0318  0.0662 -0.0542
14428W        W30502  18.226  10.484  14.437  0.0453  0.4111  0.0786
14429W        W30503  12.114   8.731  11.150  0.0614 -0.1155  0.1532
14430W        W30504   9.681   7.455   0.793  0.1976 -0.3559 -0.0045
14431W        W30505   6.075   4.858  11.641 -0.0856  0.1147  0.0274
14432W        W30506  16.339   3.246  13.167 -0.2882 -0.1259 -0.0887
14433W        W30507  12.243  11.166   4.034  0.2300 -0.0821 -0.4442
14434W        W30508  16.045   2.536   4.017  0.0313  0.3504  0.2797
14435W        W30509   7.668  13.288  10.879  0.0993  0.1543  0.1840
14436W        W30510  15.056   8.601   5.733  0.0569  0.2209  0.3729
14437W        W30511   6.908  17.002  15.771  0.2944  0.2760 -0.0791
14438W        W30512  17.999   1.263  14.245  0.3316  0.0808  0.0550
14439W        W30513  10.228   7.303   4.297 -0.0361  0.0289  0.0306
14440W        W30514   9.554  15.879  13.260  0.2268 -0.1248 -0.1984
14441W        W30515   4.271   1.649   4.936  0.0914 -0.1751 -0.0782
14442W        W30516  17.962  17.117  15.252 -0.0748 -0.0350 -0.1838
14443W        W30517  16.283  10.229  11.971  0.0749  0.0777 -0.1068
14444W        W30518   8.217   9.673   6.007  0.0874  0.4857  0.1053
14445W        W30519  11.752  14.754  14.640  0.2368 -0.0384  0.3614
14446W        W30520   0.448   4.984  15.753 -0.2086  0.0912 -0.0933
14447W        W30521   8.311  13.822   4.876  0.1971  0.1814 -0.0257
14448W        W30522  15.542   9.202  12.182 -0.0874 -0.1719  0.0447
14449W        W30523   7.201   1.690   3.995 -0.2930 -0.1641 -0.0776
14450W        W30524   2.244   8.598   4.636 -0.0577 -0.4110  0.1151
14451W        W30525   7.450   3.021  11.787 -0.1845  0.1818 -0.1408
14452W        W30526  13.818  15.767  11.148 -0.2056  0.0319  0.1374
14453W        W30527   6.205  11.310  11.468  0.3026  0.0789 -0.1015
14454W        W30528   5.074   4.234  12.896  0.0815  0.1914  0.0841
14455W        W30529  17.586   8.514   0.436 -0.0992 -0.0029  0.2682
14456W        W30530   8.343  12.442  13.026  0.1148 -0.0638 -0.0153
14457W        W30531   2.674   5.822   3.619  0.0840 -0.3025  0.1816
14458W        W30532  15.277   6.225   5.262  0.1443 -0.0082 -0.0311
14459W        W30533  17.241  18.271   2.925  0.5541 -0.1469 -0.0068
14460W        W30534   9.852   5.238   2.680  0.0077  0.1942  0.2540
14461W        W30535   6.615   6.776  15.951  0.4097  0.0246  0.1811
14462W        W30536  14.029   4.554  14.545 -0.0114 -0.0711  0.0207
14463W        W30537  17.736   4.609   4.282  0.3563  0.1163  0.0001
14464W        W30538  12.938  15.431  15.401 -0.3049  0.0416 -0.0877
14465W        W30539  10.366  11.485   2.098  0.0725 -0.1282 -0.0166
14466W        W30540  17.160  11.590   4.376 -0.0968 -0.2347  0.0531
14467W        W30541   8.294  11.768   1.502  0.1706  0.0204  0.0189
14468W        W30542   9.465   9.785   2.645 -0.2053 -0.2027  0.0451
14469W        W30543  15.044   1.013  12.439 -0.1649  0.2405 -0.0353
14470W        W30544  11.123  12.600  14.074 -0.1251  0.0264 -0.0447
14471W        W30545   3.036  12.653  12.667 -0.1684  0.2439 -0.1033
14472W        W30546   5.839   8.655  14.261 -0.2127 -0.3887 -0.1254
14473W        W30547   8.805   1.095  11.998  0.5218 -0.0313  0.0372
14474W        W30548   0.073  14.811   3.193  0.0469  0.0200 -0.4168
14475W        W30549   4.864  12.896  15.948  0.0688 -0.1639 -0.0849
14476W        W30550   4.508  12.434   0.779 -0.0936  0.1095 -0.0136
14477W        W30551  16.589   0.203   3.628  0.5696  0.0126 -0.1656
14478W        W30552   4.332  10.487   2.787  0.1864 -0.3008  0.1307
14479W        W30553   6.688  15.717  14.974  0.4049 -0.0663 -0.3013
14480W        W30554   9.684   3.428  12.993 -0.0227 -0.0684  0.3681
14481W        W30555  14.404   2.593   4.236  0.2078  0.3299  0.1451
14482W        W30556  10.391   9.393  15.357 -0.0414  0.1165  0.2165
14483W        W30557  18.041   0.692   0.588  0.2018  0.1298 -0.2351
14484W        W30558  12.373   3.040   1.490 -0.0415 -0.0706 -0.5240
14485W        W30559   3.748   4.815   4.117  0.1247  0.1101 -0.0167
14486W        W30560   7.464  15.301  11.575 -0.0687 -0.1783  0.1691
14487W        W30561   8.915  14.215  15.603 -0.1358  0.0262  0.1987
14488W        W30562   4.623  16.937   2.001  0.3537  0.1554 -0.2200
14489W        W30563   1.724   0.631   2.780  0.1978  0.3324 -0.5129
14490W        W30564   8.607  17.053   1.762  0.2093  0.1374  0.0332
14491W        W30565   9.825  16.315  11.713 -0.0014 -0.0340 -0.0808
14492W        W30566  10.170   7.121  12.028  0.0140  0.1333  0.0571
14493W        W30567  13.604   6.257   3.671  0.1417 -0.0587  0.3771
14494W        W30568   5.040  14.774   4.817 -0.3272  0.2092 -0.0766
14495W        W30569   0.300   8.874   2.282 -0.2695 -0.1387 -0.0468
14496W        W30570   2.831  11.972   3.148  0.0056  0.0324 -0.3287
14497W        W30571   8.234  17.044  14.984 -0.3423 -0.0375 -0.0468
14498W        W30572   2.304  17.826  14.140  0.2640  0.1040 -0.1016
14499W        W30573   2.760   3.507  13.571 -0.2422 -0.1713  0.2767
14500W        W30574  10.121   5.587   0.240 -0.2765  0.0212  0.0058
14501W        W30575   7.373   8.774   3.041 -0.0767 -0.0072 -0.2371
14502W        W30576   1.129   0.000   4.517  0.4385  0.2350  0.0210
14503W        W30577   0.469   8.049   1.619 -0.0298  0.0814 -0.1059
14504W        W30578   2.188   2.472  14.178  0.3555 -0.0486  0.1024
14505W        W30579  17.537  12.986   0.012  0.0488  0.1014  0.2145
14506W        W30580   3.227  10.215   3.696 -0.2110 -0.2700 -0.0874
14507W        W30581   4.157   0.859  11.835  0.0907 -0.0865  0.0927
14508W        W30582  12.494  14.907   3.288  0.1229 -0.1454 -0.3759
14509W        W30583  16.769   2.378   3.428 -0.1011  0.1409 -0.1062
14510W        W30584  10.535  13.541  12.324 -0.2308  0.1908 -0.2080
14511W        W30585   9.835   3.456   1.765  0.2563  0.1515  0.0370
14512W        W30586   8.890  14.721   1.119 -0.2491  0.0195  0.0226
14513W        W30587   1.865   3.175   2.843  0.0369 -0.3225 -0.2708
14514W        W30588  17.021   4.036   5.316 -0.2414 -0.2082 -0.1428
14515W        W30589   3.244  12.905  13.398  0.0689  0.1737 -0.1875
14516W        W30590   4.781  15.833  15.667  0.0699  0.0555  0.1751
14517W        W30591  10.209  11.669   0.749 -0.1421 -0.1536  0.0254
14518W        W30592  11.075  13.640   4.492  0.0180 -0.1972  0.0369
14519W        W30593   9.089  18.164   0.630 -0.2163 -0.0741 -0.0330
14520W        W30594   0.207   1.203  14.581  0.0466 -0.3099  0.1427
14521W        W30595  13.092   8.814  15.666  0.0766 -0.1779 -0.1390
14522W        W30596   6.935   1.343   2.425 -0.1612 -0.0682  0.0083
14523W        W30597  13.999  13.789  14.297 -0.1275  0.2870  0.2601
14524W        W30598  15.209   7.901  13.892 -0.0321 -0.3146 -0.0349
14525W        W30599  13.291   9.683  15.227 -0.0746 -0.0770  0.1365
14526W        W30600  11.910   8.789   2.659 -0.0605 -0.3267 -0.2182
14527W        W30601  17.877   1.587   6.019  0.0157  0.0161  0.2839
14528W        W30602  17.188  17.497  11.198  0.0978  0.0390  0.1515
14529W        W30603   0.517  18.485   3.917  0.0812  0.0613 -0.1023
14530W        W30604   6.058  16.606   0.996 -0.1982 -0.1199 -0.0248
14531W        W30605  17.671   6.883   0.532  0.1522 -0.0432 -0.2700
14532W        W30606   2.585  12.750   2.916 -0.1711 -0.0465 -0.0622
14533W        W30607   7.101   2.505  15.895 -0.2691  0.1100  0.0415
14534W        W30608  17.553   2.308  13.228  0.1483 -0.0575  0.1562
14535W        W30609   2.610   2.412   0.742  0.0390  0.0618  0.0253
14536W        W30610  14.598   7.624  13.298 -0.2482 -0.3632 -0.0478
14537W        W30611  10.029   4.011   2.866 -0.3737 -0.0157  0.0740
14538W        W30612  16.761   0.222  15.105 -0.2346 -0.2746  0.3072
14539W        W30613   8.446   2.388   4.012 -0.0741 -0.3815  0.3124
14540W        W30614  12.457   7.609   4.169 -0.1879 -0.1868 -0.2210
14541W        W30615  11.635  16.188   2.212 -0.0750 -0.1474 -0.3703
14542W        W30616   0.903  14.021  13.471  0.3575  0.1522 -0.4209
14543W        W30617   5.505   2.312  11.294  0.1503  0.3464 -0.0393
14544W        W30618  18.228   7.567   5.802 -0.2863  0.2117 -0.2029
14545W        W30619   0.468  16.667  13.205  0.0924 -0.0252  0.1019
14546W        W30620  13.676  17.616  11.191 -0.2115  0.1459 -0.0840
14547W        W30621  17.405   7.480  12.640 -0.1838 -0.2041  0.0207
14548W        W30622   5.975   6.753   1.014  0.0001 -0.3043  0.1318
14549W        W30623  10.660   2.280  11.259  0.0827 -0.0118 -0.2350
14550W        W30624   6.418  17.727   0.710 -0.2293 -0.0276 -0.0661
14551W        W30625  15.255  15.886   5.281 -0.3002  0.0575  0.1229
14552W        W30626  11.608   4.508   1.293  0.1144  0.0738 -0.0808
14553W        W30627  14.472   0.384   3.799  0.0376  0.1372  0.1467
14554W        W30628   3.680  16.669  12.209  0.3669 -0.1563 -0.0998
14555W        W30629   7.267  18.469   3.768  0.2411 -0.2790 -0.1086
14556W        W30630  11.725  12.108  10.545  0.0598  0.1450  0.0702
14557W        W30631  10.018  15.761  12.719 -0.1318  0.1001 -0.2208
14558W        W30632   9.661  15.299  12.709  0.1970 -0.0163 -0.1015
14559W        W30633  15.735   6.024  11.183  0.0211 -0.0957 -0.0769
14560W        W30634  10.692  12.830   4.490  0.3346 -0.1610  0.0177
14561W        W30635   1.800   2.261   5.319  0.0507  0.0582 -0.1624
14562W        W30636  14.104   2.652  12.123 -0.0050 -0.0336 -0.2959
14563W        W30637  10.645   1.803  15.095  0.0800 -0.1760 -0.2536
14564W        W30638  12.976  17.499  11.579  0.0304  0.0276 -0.1088
14565W        W30639  15.960  14.225  15.571 -0.1950 -0.1247  0.1496
14566W        W30640   5.770   6.583  13.320  0.2141 -0.1931  0.1229
14567W        W30641   7.690  11.187   1.148  0.0850  0.1983 -0.1687
14568W        W30642   4.517  11.443   3.631  0.2246 -0.2967 -0.0495
14569W        W30643   0.490  14.934  11.190  0.1042 -0.1558  0.1949
14570W        W30644  11.413   4.182  15.186  0.0377 -0.0574  0.3439
14571W        W30645   4.609  13.620  14.104 -0.0419  0.0108  0.1675
14572W        W30646  11.970  13.125   0.336 -0.0424  0.0465 -0.0766
14573W        W30647   9.361  14.119   4.493  0.1415  0.2231 -0.2796
14574W        W30648  11.947  16.376  10.591  0.1851 -0.1385 -0.3503
14575W        W30649   2.845  13.772   4.674 -0.0806 -0.1654 -0.1805
14576W        W30650  10.521   0.991   1.006 -0.2298 -0.3165 -0.1410
14577W        W30651   3.118  15.746  11.555 -0.1315 -0.2373  0.2417
14578W        W30652  11.974   6.401   4.972  0.2127  0.2008  0.1876
14579W        W30653  12.858   1.384   1.865 -0.0251 -0.1985  0.2600
14580W        W30654   5.169   3.314  13.964  0.1493  0.0629  0.1079
14581W        W30655  11.684   9.356   5.836 -0.2469 -0.0556  0.3367
14582W        W30656  12.134   4.350  14.265 -0.0383  0.0058 -0.1208
14583W        W30657   0.310  12.837  15.257 -0.1400 -0.1373  0.1112
14584W        W30658   7.240  14.086  11.467  0.1441 -0.3463 -0.4040
14585W        W30659   5.282   4.814  11.742  0.1500 -0.0469 -0.2968
14586W        W30660   2.227   4.881  15.812  0.0487 -0.0222 -0.0685
14587W        W30661  14.914  18.484   5.352  0.0718 -0.0095 -0.4124
14588W        W30662   5.095   5.179  12.477 -0.1965  0.4220 -0.0444
14589W        W30663   0.013   9.147  10.921  0.0315 -0.0960 -0.0312
14590W        W30664   5.133  15.886  15.992  0.0553 -0.0014 -0.4823
14591W        W30665   9.514  11.813   2.998 -0.0241  0.0993  0.2234
14592W        W30666  14.849   7.837   0.756  0.1104  0.0011  0.0228
14593W        W30667  17.689  14.729   2.719 -0.0257 -0.2071  0.3062
14594W        W30668  10.856   1.050   1.560 -0.0107 -0.2575  0.3333
14595W        W30669  10.444  15.813   2.031 -0.0080 -0.1087  0.1131
14596W        W30670   3.120   0.540  12.001 -0.1989 -0.0299 -0.0620
14597W        W30671   3.439   5.543   5.040 -0.1321 -0.1299 -0.1025
14598W        W30672   7.451   5.523   2.595  0.1382 -0.1979 -0.0285
14599W        W30673   9.072   0.154  13.544 -0.0090 -0.2172  0.1520
14600W        W30674  16.071   6.963  14.445  0.2181 -0.0389  0.2077
14601W        W30675   7.285  10.018   0.134  0.0664  0.2867  0.1437
14602W        W30676   7.733   7.192  12.090 -0.1126  0.0235 -0.0361
14603W        W30677  14.156   3.620  14.287 -0.2273 -0.1146  0.0268
14604W        W30678  14.027  14.726   2.458  0.0077  0.0483  0.1356
14605W        W30679  11.932  15.547   4.990 -0.0362 -0.1127 -0.3306
14606W        W30680  15.195  11.353  14.813  0.0880 -0.0329  0.1938
14607W        W30681  12.747   3.596  12.755  0.1096  0.1451 -0.0991
14608W        W30682   5.567   9.065   1.962  0.2827  0.5214  0.0109
14609W        W30683   0.386  14.098  15.154 -0.0482 -0.1962  0.0972
14610W        W30684  17.399  17.609  15.178  0.1618  0.2852 -0.1381
14611W        W30685   9.136  10.936  13.596 -0.1207  0.1508  0.1854
14612W        W30686  15.816   9.009  15.247 -0.1281 -0.0745 -0.0623
14613W        W30687   8.117  13.148  13.031 -0.1235 -0.2266  0.0698
14614W        W30688   9.494  16.994   0.616  0.0459 -0.0399  0.2431
14615W        W30689  15.709  15.897   3.511 -0.0769 -0.0836  0.0786
14616W        W30690  18.496  10.117  12.266  0.1697  0.2066  0.1270
14617W        W30691   2.100   4.481  15.027 -0.1149 -0.3771 -0.1227
14618W        W30692  16.044   0.744  10.569 -0.0707 -0.0837  0.2703
14619W        W30693  10.584  16.641  11.105  0.1502 -0.0533  0.0268
14620W        W30694   8.190   9.869  10.560 -0.2980  0.2513 -0.4600
14621W        W30695  10.141   8.332   1.624  0.0177 -0.2161  0.1225
14622W        W30696  18.264   4.199  13.722  0.1864 -0.0762 -0.2537
14623W        W30697  14.082  15.202  14.527  0.3915 -0.0187 -0.2729
14624W        W30698   9.836   2.340  13.311  0.2531 -0.2228  0.0674
14625W        W30699  15.154   7.406   2.238  0.0969  0.2893 -0.3311
14626W        W30700  17.343   4.703   2.706  0.1802  0.1087  0.1050
14627W        W30701  10.293  18.454  12.850  0.1394  0.0247  0.1804
14628W        W30702   7.743   2.096   0.731  0.0299  0.0239 -0.0269
14629W        W30703  12.960   7.523   6.034  0.2396 -0.1261  0.0279
14630W        W30704  15.447  14.254   0.677  0.1250  0.0973  0.3316
14631W        W30705   2.519   3.142  14.448 -0.1325  0.0948  0.1545
14632W        W30706  15.257  16.776  14.304  0.3672  0.1200  0.2468
14633W        W30707   7.626  10.951   2.158  0.3093 -0.3314 -0.0639
14634W        W30708   9.131   5.878   4.930 -0.0925  0.2148  0.0449
14635W        W30709   5.149  10.571  13.429 -0.0406 -0.2903  0.1103
14636W        W30710  18.463  12.267   3.196 -0.0520 -0.2281  0.2502
14637W        W30711   3.768  15.852  12.992  0.2114  0.2569  0.3328
14638W        W30712   3.385   7.311   2.655  0.2042 -0.2208  0.0180
14639W        W30713   4.684  16.830  13.997 -0.0400 -0.1805  0.0602
14640W        W30714   8.990   5.911   3.562 -0.0407  0.2548 -0.0834
14641W        W30715  15.685   5.064   0.609  0.2365 -0.2603 -0.2958
14642W        W30716   4.235   5.053   5.520  0.1202  0.2561 -0.0432
14643W        W30717  15.448  10.402   5.969  0.0747 -0.0678 -0.1046
14644W        W30718   3.675  12.061  11.158  0.0740  0.1217  0.0252
14645W        W30719  14.609   4.340   1.467 -0.1853 -0.0030 -0.3199
14646W        W30720   5.271   1.168   0.878  0.3841  0.0977  0.0011
14647W        W30721   7.354  11.777  15.996  0.4302 -0.0275  0.1588
14648W        W30722   4.055   1.703   0.879 -0.1933  0.1855  0.6013
14649W        W30723   6.995   6.498   3.400  0.2465  0.4092 -0.2203
14650W        W30724   7.591   2.886   6.225 -0.0591  0.2378 -0.1736
14651W        W30725   4.739  14.274   4.392  0.0355 -0.1099  0.1712
14652W        W30726   0.735   5.586  13.380  0.2862 -0.2786  0.0702
14653W        W30727   0.490   9.478  12.951  0.3327 -0.2134 -0.0953
14654W        W30728  17.289   6.745  15.938 -0.0485  0.0079 -0.2038
14655W        W30729   0.064   1.188  10.944 -0.3183 -0.0393 -0.1240
14656W        W30730   0.873  10.308  14.129  0.0105  0.2707 -0.0508
14657W        W30731  12.942   7.690  15.595  0.2266  0.1432  0.1479
14658W        W30732   4.608  10.388  11.854  0.0852 -0.2414 -0.0576
14659W        W30733   2.251  13.420   4.016 -0.1614 -0.0195 -0.2940
14660W        W30734   9.335  18.213  12.841 -0.4016  0.2532  0.1131
14661W        W30735   7.903   5.753  13.732 -0.1402 -0.1395 -0.0813
14662W        W30736   6.412   0.511   2.792  0.0637  0.0365 -0.0506
14663W        W30737   6.393  16.733   2.551  0.4032  0.1793 -0.0733
14664W        W30738   0.739  12.152   1.181  0.0726 -0.1222 -0.1031
14665W        W30739   3.233   1.570  10.827  0.2282 -0.0792  0.1005
14666W        W30740  11.667   2.692   4.759 -0.0224  0.1758 -0.0879
14667W        W30741  18.435   1.626   1.746  0.2123  0.0147  0.0715
14668W        W30742  14.643   9.719   3.294  0.2621 -0.1264 -0.0980
14669W        W30743   9.474   0.728   0.707  0.3701  0.1438  0.1880
14670W        W30744   0.004   1.175   3.169 -0.0669  0.0775 -0.0709
14671W        W30745  14.325   0.927   2.718  0.1683  0.1326 -0.0119
14672W        W30746  17.762  13.174  14.591  0.3360 -0.0062 -0.1010
14673W        W30747  14.074  16.616  15.993 -0.1669 -0.2377  0.0222
14674W        W30748   6.178   2.274  13.095 -0.0159  0.1700 -0.1105
14675W        W30749  11.535   1.999  10.925 -0.1186  0.1805  0.1933
14676W        W30750  17.585   4.324  12.216  0.0908  0.2406  0.0553
14677W        W30751  11.149   0.028   1.883 -0.2085  0.0073  0.1762
14678W        W30752   7.302  10.887   1.561  0.0953 -0.2338  0.1248
14679W        W30753   9.642  14.198   5.818  0.0980  0.1692 -0.0076
14680W        W30754  16.978  11.140  15.377  0.3986  0.1761  0.2914
14681W        W30755   5.932  12.176  11.140  0.2118 -0.0173 -0.2481
14682W        W30756  11.581  12.433  13.488 -0.2250 -0.0961 -0.1457
14683W        W30757  17.188   3.998   3.970 -0.2179 -0.1014 -0.1914
14684W        W30758  14.873   3.342  11.124 -0.1353  0.1655  0.1516
14685W        W30759  16.484  10.560  14.609 -0.0992 -0.0054  0.1005
14686W        W30760  14.207   5.547   1.263  0.3322  0.0312  0.2078
14687W        W30761   6.361  10.797   5.375  0.1075  0.2538  0.5048
14688W        W30762  15.972   8.718   2.341 -0.2046  0.0287 -0.0419
14689W        W30763   2.905  12.697  14.978  0.0227 -0.3646  0.2680
14690W        W30764   4.956   4.094  15.914  0.3327 -0.0837 -0.2958
14691W        W30765   7.187  13.033   6.202  0.1073 -0.0305 -0.0333
14692W        W30766  14.429   6.170   2.714  0.0038  0.1748 -0.0647
14693W        W30767   7.936  11.192  14.962  0.2731 -0.1690  0.1376
14694W        W30768  15.357  15.505  15.126 -0.1153  0.0363 -0.0408
14695W        W30769   5.278   1.748   0.905  0.1036  0.2256 -0.0152
14696W        W30770   2.310  13.852  15.270 -0.0600  0.0470  0.1440
14697W        W30771   9.118  17.274  15.935 -0.2563  0.1486 -0.2218
14698W        W30772   6.084   3.555   3.285 -0.0542  0.1422 -0.1041
14699W        W30773   2.823  10.112   0.709 -0.0135 -0.1721  0.0841
14700W        W30774  10.932  14.185   1.200 -0.3543  0.0904  0.2157
14701W        W30775   9.790  15.353   5.668  0.3770 -0.0511 -0.1648
14702W        W30776  10.469   9.296   2.595 -0.0256  0.1994 -0.1273
14703W        W30777   0.760  14.145   2.370  0.0347 -0.3573 -0.0999
14704W        W30778   1.949   1.151   0.836 -0.0827 -0.3304 -0.1303
14705W        W30779   4.572   8.553  14.763  0.1334 -0.0954  0.3790
14706W        W30780   2.975   4.365   1.700  0.1225  0.0495  0.2556
14707W        W30781   6.622  13.994  15.388  0.0832  0.0518  0.1837
14708W        W30782  17.162   9.658   1.615 -0.1690  0.3366 -0.0052
14709W        W30783   5.249  12.084   4.432  0.0769  0.0191 -0.0229
14710W        W30784   0.166  11.542  11.673 -0.1701  0.1418  0.1902
14711W        W30785   9.246   2.168   0.645  0.4797 -0.0947 -0.2133
14712W        W30786  10.655  15.510   2.363  0.1725  0.2665 -0.3223
14713W        W30787   1.045  13.907   1.989 -0.1100  0.2499  0.1085
14714W        W30788  17.431  10.003   5.088  0.3143  0.0157  0.2196
14715W        W30789  16.764   2.966  14.308  0.0183 -0.2657  0.0971
14716W        W30790   6.645   4.519   0.589 -0.1637 -0.0706 -0.1075
14717W        W30791  13.307  10.720  11.529  0.2103  0.0667  0.1162
14718W        W30792  12.364   8.444  13.228 -0.0494  0.0851 -0.0023
14719W        W30793  11.160   7.184  14.227 -0.3036  0.0383 -0.2692
14720W        W30794   7.671   3.107  13.712 -0.5343 -0.1657 -0.0150
14721W        W30795   1.820  13.576  13.089  0.0386 -0.0740 -0.3190
14722W        W30796  13.282   8.001  15.334  0.4130 -0.0488 -0.2670
14723W        W30797   1.968   7.866  13.517  0.3009  0.0083  0.2193
14724W        W30798   6.559  18.557  14.288 -0.3236 -0.0727  0.0188
14725W        W30799  12.798  14.587  11.610 -0.2193 -0.0967  0.0031
14726W        W30800   0.003  15.985   0.048 -0.1899  0.2319  0.1608
14727W        W30801   9.450  17.341   2.362 -0.1357  0.1108  0.2830
14728W        W30802   2.752   4.284  11.270  0.1609  0.1954 -0.0255
14729W        W30803   2.151   7.872  13.051 -0.0301 -0.1186 -0.0572
14730W        W30804  16.048  17.888  12.913  0.0062 -0.0060  0.1871
14731W        W30805   7.979   8.824   5.445 -0.1046 -0.1441  0.2095
14732W        W30806   3.868  11.877  15.761  0.1054 -0.2736 -0.2608
14733W        W30807   2.420   1.708  12.332  0.1694 -0.0537 -0.1915
14734W        W30808   2.565   6.073   3.188 -0.1182 -0.2806 -0.3685
14735W        W30809  13.812   4.485   4.621 -0.1663 -0.1271  0.1771
14736W        W30810  14.070  12.534   4.503 -0.2030 -0.0587  0.3913
14737W        W30811   4.344   0.722  13.438 -0.0667  0.0363  0.0235
14738W        W30812   0.342   5.877  15.552 -0.0376  0.0797 -0.1813
14739W        W30813   7.055  17.857   2.167  0.2051 -0.1139 -0.2689
14740W        W30814   2.135   5.734   2.664  0.0651 -0.1886 -0.1882
14741W        W30815  10.128   0.975   2.981 -0.1743  0.2919 -0.2946
14742W        W30816   0.585   8.925   3.830 -0.1791 -0.0920  0.2192
14743W        W30817  10.666   8.132  12.392 -0.0145  0.1007 -0.2057
14744W        W30818  16.864  12.580  15.513  0.0896 -0.2710  0.1342
14745W        W30819   8.133  13.227  13.514 -0.1292 -0.1478 -0.3663
14746W        W30820   0.551   6.093   2.842 -0.3060 -0.1703 -0.7066
14747W        W30821  16.102  15.728   2.456 -0.0053 -0.1216  0.3106
14748W        W30822  12.007   5.713  12.867  0.0928  0.0018  0.0291
14749W        W30823   3.790   4.247  12.388  0.3204  0.0593  0.0342
14750W        W30824   5.400   2.507  13.548 -0.1416 -0.2031  0.4637
14751W        W30825   7.728  18.001   1.264 -0.0431  0.0145 -0.0568
14752W        W30826   1.712   4.286   0.488  0.1781 -0.0653 -0.0427
14753W        W30827   0.882  13.296   2.869  0.3824 -0.1526  0.1707
14754W        W30828  13.273  12.475   5.708  0.1007 -0.1087  0.0422
14755W        W30829   2.795   2.757   3.792 -0.0065 -0.1767 -0.2673
14756W        W30830   9.422  14.207  12.918  0.2817  0.2033 -0.0314
14757W        W30831  13.490  15.037  12.039 -0.0435 -0.2830 -0.2464
14758W        W30832  14.942   2.848   2.136 -0.1460  0.0472 -0.0607
14759W        W30833  12.288   2.609  14.783 -0.5826  0.0954 -0.4231
14760W        W30834   5.182  18.245  14.889  0.0328  0.0290 -0.0997
14761W        W30835  10.276   1.086  15.212  0.0522 -0.1048  0.0214
14762W        W30836  13.710   9.567  15.862 -0.0455 -0.1390 -0.2167
14763W        W30837  15.472   4.796   5.227  0.1283  0.0238 -0.2315
14764W        W30838   5.336  14.536  15.389  0.0967  0.0275 -0.0107
14765W        W30839  15.073   7.918   2.756  0.0797  0.0815 -0.3501
14766W        W30840  14.419   3.308   2.633  0.3657  0.0295  0.3684
14767W        W30841   8.538  17.900   3.358  0.1119 -0.1963  0.0722
14768W        W30842   7.743   0.968   2.900 -0.2120 -0.0869 -0.0089
14769W        W30843   5.095  13.255   3.653  0.1405 -0.1283  0.3782
14770W        W30844  18.126   3.921   2.406 -0.1524  0.0400 -0.2264
14771W        W30845   5.700   0.234  15.564 -0.0298  0.2414 -0.2411
14772W        W30846   8.304   6.081   3.785  0.2010  0.2435 -0.3523
14773W        W30847  12.546   4.493  14.010 -0.1860  0.3903  0.2927
14774W        W30848   4.419  13.273   3.168 -0.1413 -0.1643 -0.0761
14775W        W30849   3.677   5.368   4.075 -0.2136 -0.0864 -0.0611
14776W        W30850   6.118   7.687   4.405  0.1640  0.1357 -0.1435
14777W        W30851   9.016   9.490   0.392  0.0241  0.2393 -0.1223
14778W        W30852  12.309  18.005  11.265 -0.0261 -0.1519  0.0360
14779W        W30853   1.857   1.023   4.779  0.0094  0.3225  0.0118
14780W        W30854  15.933  14.503  11.814  0.1328  0.3556 -0.2927
14781W        W30855  13.031  10.207   4.092 -0.0100 -0.0873  0.4354
14782W        W30856  10.499   9.493   5.317  0.1781 -0.2262  0.2023
14783W        W30857  12.261   4.786   4.089  0.3403  0.1943 -0.0602
14784W        W30858   9.491   1.219   0.618  0.1831 -0.1701  0.0045
14785W        W30859   9.091  11.604   2.760  0.0841  0.0027 -0.0937
14786W        W30860   8.144   0.471  15.050  0.3435  0.1023 -0.2408
14787W        W30861   5.051  15.702   4.495  0.1473 -0.2848 -0.0582
14788W        W30862   5.586   3.710   3.219  0.3861  0.0039  0.2004
14789W        W30863  17.282  17.515   1.133  0.4348  0.2027 -0.0693
14790W        W30864   2.087  18.042   3.017 -0.1065 -0.1932  0.0757
14791W        W30865  14.829   3.412   2.053 -0.2724 -0.0268  0.0372
14792W        W30866  16.384  10.007   2.644  0.1615 -0.0253 -0.1602
14793W        W30867  16.167  13.859  15.300  0.0029 -0.1625  0.1735
14794W        W30868   1.119  17.075  11.881 -0.1967  0.0104 -0.1224
14795W        W30869   3.618  10.649   1.902  0.0826 -0.2351  0.2756
14796W        W30870   8.108  16.885   0.281  0.0073 -0.0290 -0.1270
14797W        W30871  18.494  15.764  11.317 -0.0549  0.3487 -0.1572
14798W        W30872  13.569  13.594   6.109 -0.0262  0.0076 -0.4116
14799W        W30873  16.845   5.334   1.839  0.3037  0.0103  0.2316
14800W        W30874  18.397  14.636  12.191  0.0870  0.0923 -0.2752
14801W        W30875  10.516  13.726  10.957  0.1089 -0.2241 -0.0166
14802W        W30876   1.022  17.575  14.262  0.2291 -0.1084 -0.2137
14803W        W30877  11.580   6.673   0.283  0.0770 -0.0282  0.0819
14804W        W30878   7.213   5.132   2.791 -0.0746  0.1345 -0.0840
14805W        W30879   0.888   5.246  11.432  0.1935  0.4267  0.1285
14806W        W30880  17.468   5.451   2.481  0.1107  0.2280  0.0035
14807W        W30881  13.894  17.864   3.813 -0.2474 -0.1467  0.0692
14808W        W30882   6.052  18.209  12.153  0.0712  0.1508 -0.0684
14809W        W30883   3.847   5.175   0.692 -0.0081  0.5286  0.2282
14810W        W30884  15.393  17.205  14.070 -0.1763 -0.0178 -0.2187
14811W        W30885  13.380   4.565   5.634 -0.3478 -0.0197 -0.4770
14812W        W30886  13.715  15.714  10.671  0.1630 -0.0368  0.0621
14813W        W30887  10.289  10.567   3.152  0.2047 -0.0573  0.1131
14814W        W30888  16.894   3.621   4.289 -0.2978 -0.0922 -0.1164
14815W        W30889  15.426   7.338  11.450 -0.0374 -0.3116 -0.1209
14816W        W30890  13.038   5.495  13.254 -0.1528  0.0817 -0.1095
14817W        W30891   6.763   4.081  15.320 -0.1197  0.0811  0.3397
14818W        W30892   7.119   2.535   2.156 -0.1768  0.0275  0.1336
14819W        W30893   7.949  11.994  13.773 -0.0416  0.0421  0.0275
14820W        W30894   6.725  14.137  11.709  0.0764 -0.2145 -0.0493
14821W        W30895  11.662  13.265  13.124  0.1843 -0.1209  0.0660
14822W        W30896   8.803  10.061   4.618  0.0009 -0.0109 -0.0907
14823W        W30897   2.668   5.859   5.723 -0.4621  0.0555  0.0674
14824W        W30898  18.550  12.826   0.822 -0.1624 -0.1327  0.2691
14825W        W30899   5.221  15.622  12.530  0.0154 -0.1984  0.1533
14826W        W30900   4.429   6.337  11.969  0.0596 -0.3415 -0.2710
14827W        W30901   2.733  16.143   5.621 -0.1136 -0.2037  0.2517
14828W        W30902  16.154  14.357   4.315  0.3467  0.2433  0.1803
14829W        W30903  11.905  13.661   1.823 -0.0724 -0.0471 -0.0536
14830W        W30904   7.945   8.486  13.547  0.2722 -0.4369  0.2679
14831W        W30905   3.185   6.210  11.843  0.3789  0.0980 -0.0987
14832W        W30906  17.348   3.358   0.079  0.4010  0.2294 -0.2629
14833W        W30907  17.537   2.852  13.839 -0.0311  0.2502  0.2028
14834W        W30908   1.692   1.730   4.026 -0.0878  0.0961 -0.1580
14835W        W30909  14.368   0.204  14.568 -0.0735 -0.0763 -0.4152
14836W        W30910   4.870  12.113   0.919 -0.1484  0.5940  0.1743
14837W        W30911  11.258   9.637   2.253 -0.0864  0.1042  0.1474
14838W        W30912   7.144   6.767  13.150  0.2530 -0.0300 -0.0076
14839W        W30913  11.199   8.935   2.119 -0.1532  0.1365  0.0925
14840W        W30914   9.498  10.341   2.030 -0.2993  0.0181  0.3098
14841W        W30915   4.512  11.875  15.660  0.3157 -0.1059 -0.0349
14842W        W30916  14.845  15.982   1.699  0.0140 -0.2023 -0.1414
14843W        W30917   9.821  16.356  10.917 -0.1099 -0.0839  0.0330
14844W        W30918  14.678   2.657  14.125 -0.3131 -0.0558 -0.0557
14845W        W30919   3.585   0.422  15.701  0.0664 -0.0431  0.2016
14846W        W30920   9.943   2.620   4.080  0.1555  0.0003 -0.0188
14847W        W30921  12.953   4.636   0.247 -0.3740 -0.0265 -0.1834
14848W        W30922   2.929   4.788   4.835 -0.1305 -0.3431 -0.0081
14849W        W30923   1.635  12.313  11.741 -0.0740  0.1417 -0.1277
14850W        W30924  17.067   5.924   1.099  0.1007  0.0436  0.0894
14851W        W30925   5.275   4.551   1.573  0.0276 -0.1737  0.0276
14852W        W30926  10.155   0.730  12.319  0.1019 -0.0146  0.0681
14853W        W30927   2.571   1.974   1.684  0.0065 -0.0746 -0.0210
14854W        W30928   5.166   7.607   2.603 -0.2377  0.0209 -0.0633
14855W        W30929  16.643   9.392   0.175 -0.2425 -0.1106 -0.1048
14856W        W30930   8.759   0.306  11.637 -0.1186  0.2093  0.0102
14857W        W30931  10.552   4.654   4.818  0.1973  0.0665  0.0034
14858W        W30932  16.125  13.709   3.648 -0.2367 -0.1141 -0.0055
14859W        W30933   8.423  12.784  15.431 -0.2802  0.1345 -0.1161
14860W        W30934  18.310  11.012  10.886 -0.0242 -0.0724  0.2212
14861W        W30935  12.216  11.154  11.884 -0.1672 -0.1224 -0.1228
14862W        W30936  15.036  16.751  16.022  0.0516  0.0971 -0.1209
14863W        W30937  15.132   8.594  14.772 -0.1057 -0.0652  0.3025
14864W        W30938  12.078   0.348  12.507  0.3312  0.0479  0.1281
14865W        W30939  12.192   2.133  13.345 -0.0224 -0.1329  0.2169
14866W        W30940  17.667   0.739   5.729 -0.0307 -0.0611 -0.3282
14867W        W30941  15.285   1.956   4.218 -0.1399 -0.0885 -0.2464
14868W        W30942  18.121  16.215  13.348 -0.0468 -0.0660  0.2521
14869W        W30943   9.447  17.848   4.250 -0.5097  0.1392  0.1029
14870W        W30944   1.096   4.187  12.641 -0.3060  0.0123 -0.1070
14871W        W30945  17.993  11.253  11.137  0.3784  0.0696 -0.3317
14872W        W30946  15.918   8.525   5.230 -0.1675 -0.1267 -0.0923
14873W        W30947  18.275  16.559   2.556  0.2157  0.4213  0.0814
14874W        W30948   2.412  17.667   2.934 -0.2649 -0.3154 -0.1525
14875W        W30949   4.431  15.734  13.640 -0.0236  0.0924  0.0429
14876W        W30950   0.593   5.724  15.082 -0.1125  0.1999  0.0342
14877W        W30951  14.648  17.893   0.676  0.1062 -0.0414  0.3633
14878W        W30952   3.515   0.834   4.446  0.3061 -0.2716 -0.0830
14879W        W30953   0.030   1.724   0.154 -0.2038 -0.0851 -0.0007
14880W        W30954   2.420   7.755   0.901 -0.0235 -0.0155 -0.2625
14881W        W30955  11.712   2.976  12.049  0.2600  0.2581  0.2842
14882W        W30956  17.413   1.989  14.248 -0.0469 -0.4655 -0.0134
14883W        W30957   8.669   0.867   0.217 -0.2250 -0.2695  0.0725
14884W        W30958  14.747  18.351  11.715 -0.0533  0.1101 -0.1111
14885W        W30959  18.395  15.453  15.393 -0.2563 -0.0974  0.0066
14886W        W30960   4.629  10.223  12.375 -0.1860 -0.0015 -0.1870
14887W        W30961  11.850   7.486  14.707  0.1207 -0.0177  0.2261
14888W        W30962  15.647   7.304   4.812  0.2080 -0.3655 -0.2546
14889W        W30963  18.516  14.238   4.457  0.1410 -0.0292 -0.2599
14890W        W30964   6.626  13.220  15.201  0.0539  0.0876  0.0844
14891W        W30965  14.408   4.215   0.427 -0.1782 -0.0641 -0.2648
14892W        W30966  13.226   6.580  10.630 -0.3264  0.1722  0.2360
14893W        W30967   4.671   2.991  15.722  0.1324 -0.1022  0.0035
14894W        W30968  17.106  17.525   3.975  0.1306 -0.0608  0.1472
14895W        W30969   8.932  13.419   3.043  0.0020 -0.1319 -0.0818
14896W        W30970  17.447   6.261  11.857 -0.0185 -0.1870 -0.0278
14897W        W30971   8.440   0.991   3.582 -0.0944  0.1487 -0.1446
14898W        W30972   3.741   8.952  14.969  0.0992  0.4198 -0.3270
14899W        W30973  10.783  17.057   3.309 -0.1891 -0.0020 -0.1493
14900W        W30974   9.952  16.629  14.152 -0.0685  0.4704 -0.1747
14901W        W30975  12.419  15.803   2.040  0.1301  0.0022  0.0857
14902W        W30976  10.559   2.135   2.316  0.1681 -0.1155 -0.0104
14903W        W30977  15.064   1.513   2.248 -0.0514 -0.0474 -0.2431
14904W        W30978   4.261  16.915   4.724 -0.0167  0.1302 -0.1916
14905W        W30979   3.742   9.808  13.575 -0.1585  0.0219 -0.0263
14906W        W30980   4.557   5.876  12.488 -0.0946 -0.3144 -0.0751
14907W        W30981   2.262   3.480   0.009 -0.0154 -0.0605 -0.0490
14908W        W30982   3.771  12.265   4.393  0.0763 -0.0678 -0.1888
14909W        W30983   6.375  10.368   2.225  0.2485 -0.0774 -0.0303
14910W        W30984   8.958   6.821  11.973  0.0916  0.0693  0.2155
14911W        W30985  17.185  13.379  15.837 -0.2563 -0.1035 -0.2648
14912W        W30986   0.615  16.424  13.827 -0.0858 -0.0084 -0.1351
14913W        W30987   6.498   1.360  10.944 -0.0497  0.1195  0.0262
14914W        W30988   9.137   8.433  11.529 -0.3258  0.1320 -0.1130
14915W        W30989  12.082  18.423  10.268  0.1705 -0.0368  0.1909
14916W        W30990   6.834  17.604   4.134  0.1156  0.2081  0.0557
14917W        W30991   5.614   4.224  11.649  0.1143 -0.0675 -0.1364
14918W        W30992  16.176   7.461   3.772 -0.4353 -0.1111 -0.3970
14919W        W30993   5.752  12.433  12.074  0.0425 -0.0973  0.2016
14920W        W30994  12.232  15.812  13.186  0.1193  0.0720 -0.0878
14921W        W30995   9.802   3.730  14.139  0.2701  0.4359  0.1245
14922W        W30996  11.302  14.784  13.677  0.0724  0.0687  0.2075
14923W        W30997   8.719   2.155  13.994 -0.2628  0.3685  0.0096
14924W        W30998   5.358   6.556  15.508 -0.1681  0.1408  0.0731
14925W        W30999   1.368   5.631   5.135  0.3170 -0.1782  0.1477
14926W        W31000   2.943  17.050  10.824 -0.0160 -0.2391 -0.0844
14927W        W31001   6.194   7.953   5.251 -0.0805 -0.0963  0.2912
14928W        W31002  18.165   2.889   2.992  0.0031 -0.3498 -0.0010
14929W        W31003   8.634  14.523   1.504 -0.1875  0.2409  0.4333
14930W        W31004  11.722  11.074   1.261  0.1041  0.1833  0.0753
14931W        W31005   1.208   0.093  12.902  0.2064  0.1099  0.2338
14932W        W31006   6.547   5.868   4.691  0.0997  0.3246 -0.0624
14933W        W31007   1.440   4.007   1.887 -0.0172  0.0447 -0.4144
14934W        W31008  14.779   5.155   0.671 -0.1269  0.0912 -0.2531
14935W        W31009   6.888  15.002   5.497 -0.1789 -0.0814 -0.0722
14936W        W31010  13.874   6.486   4.117 -0.0929 -0.2096  0.3395
14937W        W31011   8.152  17.974  14.582  0.3518  0.2530  0.1727
14938W        W31012  17.552   7.013  14.511 -0.4588 -0.0950 -0.2960
14939W        W31013   2.027  17.714   1.349  0.0495  0.1409  0.2178
14940W        W31014  14.034   1.025   3.091  0.0577  0.1875  0.1765
14941W        W31015   3.906   8.712  12.852  0.0112  0.1349 -0.0358
14942W        W31016  12.259  15.707  14.822 -0.2065  0.1859 -0.2782
14943W        W31017   4.783  10.777  13.176  0.0899 -0.1149  0.0880
14944W        W31018   2.977   8.855   5.322  0.2229 -0.0986 -0.0359
14945W        W31019  16.549  10.874   4.059  0.1728 -0.0765  0.1118
14946W        W31020   2.022  16.160   3.784  0.1281  0.0405 -0.0817
14947W        W31021   2.468   5.126   2.874  0.1006 -0.1158 -0.1564
14948W        W31022  13.200  15.711   3.319  0.3749  0.0572 -0.0634
14949W        W31023  18.369  10.601   0.796  0.0482  0.0627  0.2093
14950W        W31024  12.487   2.231   0.946 -0.0403  0.1125  0.1244
14951W        W31025  14.453  14.807  14.196  0.0470 -0.1007 -0.2691
14952W        W31026  12.739  12.353   3.439 -0.3651  0.2713 -0.1781
14953W        W31027  15.253   6.571   2.576 -0.3044 -0.1326 -0.0742
14954W        W31028   9.361   1.942  14.808 -0.1169 -0.0633 -0.0498
14955W        W31029   2.950  12.236  11.839  0.0889 -0.3411 -0.2881
14956W        W31030   1.155   5.796  14.364  0.1458  0.3886  0.0477
14957W        W31031   0.723  10.044   5.491 -0.1992 -0.0909  0.0966
14958W        W31032  10.046   5.014  15.180 -0.0360  0.1984 -0.1605
14959W        W31033   0.629  10.545   4.652  0.0296 -0.0262  0.2702
14960W        W31034  17.991  14.104   0.968  0.2120  0.0836  0.1430
14961W        W31035  13.334  17.347   5.149  0.0642  0.0701  0.2718
14962W        W31036  12.385  16.302  13.197 -0.3672 -0.1237 -0.1090
14963W        W31037   7.920   9.618   0.943  0.0581  0.1478 -0.0954
14964W        W31038  13.942  11.413  11.741 -0.1671 -0.0719  0.1484
14965W        W31039   9.901  13.773   3.168 -0.0766 -0.0886  0.2088
14966W        W31040   6.229   5.236   3.639  0.3095  0.1442  0.2689
14967W        W31041  15.245   0.132   5.629 -0.1359  0.2883 -0.3493
14968W        W31042   2.118   5.795   5.612 -0.1160 -0.1590 -0.4748
14969W        W31043  11.271   7.865   1.034 -0.3921  0.1570 -0.0812
14970W        W31044  11.184   5.291  13.950  0.1928  0.1479 -0.1712
14971W        W31045  15.531   8.682   4.350  0.2416 -0.2787 -0.0529
14972W        W31046  16.641  11.596   1.155 -0.0214 -0.0558  0.1025
14973W        W31047  11.185  13.507  13.098 -0.0905 -0.2185  0.1949
14974W        W31048  17.242   4.268  10.923  0.1112 -0.1830  0.1319
14975W        W31049  14.030  14.825  10.916 -0.0213 -0.0491  0.0821
14976W        W31050  10.556   1.135  11.607 -0.1947  0.1833 -0.1012
14977W        W31051   4.705   1.326   2.592  0.1333 -0.1999 -0.1740
14978W        W31052   3.276  12.535   0.245 -0.0684  0.0211  0.2532
14979W        W31053  13.712   3.891  10.672  0.0139 -0.0474  0.1703
14980W        W31054   4.240  12.055  15.266 -0.2027 -0.0190 -0.1303
14981W        W31055  14.217   1.713  15.565  0.0369 -0.3397 -0.0363
14982W        W31056  16.452   8.671   2.327  0.0647  0.0327  0.1511
14983W        W31057   7.770  17.290  15.708  0.1559 -0.2769  0.0072
14984W        W31058  14.578  17.010  14.831  0.3050 -0.1075  0.0830
14985W        W31059   5.263   2.422   1.221 -0.1424 -0.1487  0.0950
14986W        W31060  14.946  11.829  14.839 -0.4159  0.1034 -0.3165
14987W        W31061  12.822   4.581  13.603  0.1035  0.1109  0.1331
14988W        W31062   6.064  13.250   1.494  0.1655 -0.2116 -0.0846
14989W        W31063  16.384  17.496  15.178  0.1448 -0.4663 -0.3178
14990W        W31064   4.244   4.789  12.969 -0.1383  0.1246  0.3635
14991W        W31065   1.316   2.136  13.052 -0.0909 -0.0983  0.1691
14992W        W31066  12.417   3.562   2.694  0.1857 -0.2422 -0.3173
14993W        W31067  17.089  15.439  13.704 -0.1478  0.1338 -0.1033
14994W        W31068  13.090   5.506   0.884 -0.2898  0.2287  0.2125
14995W        W31069  16.243   9.076   3.163 -0.2055 -0.0163 -0.2929
14996W        W31070  16.226   9.627  11.339  0.0303  0.0332 -0.0325
14997W        W31071   1.154  10.267   5.386 -0.3111 -0.2527  0.2441
14998W        W31072  11.487  12.505   5.749 -0.0697  0.3300 -0.1263
14999W        W31073   7.575  13.596  12.349 -0.3107 -0.1108 -0.0557
15000W        W31074  10.785  18.229   5.727 -0.1123  0.4304  0.0193
15001W        W31075   7.784  10.707   1.003 -0.0900 -0.3098  0.1388
15002W        W31076   9.827  12.114   0.892 -0.1884 -0.0389 -0.5323
15003W        W31077  15.427  13.273  11.520 -0.0235 -0.0380 -0.5237
15004W        W31078  16.822   8.501  12.380  0.0113 -0.2391 -0.1777
15005W        W31079   5.535  17.121   0.418 -0.0539 -0.1524  0.3128
15006W        W31080  14.151  11.170  15.175  0.0477 -0.0258 -0.0863
15007W        W31081  13.317   7.362  15.605  0.0045  0.1002 -0.0798
15008W        W31082  15.685   9.957  14.564  0.1479  0.2276 -0.1035
15009W        W31083  15.251   3.676   2.481 -0.0061  0.5380 -0.0770
15010W        W31084  14.964  16.460  13.542  0.1056 -0.5326 -0.0950
15011W        W31085   5.014  12.848  11.247 -0.3456  0.0221  0.2803
15012W        W31086  11.273   6.431  13.213 -0.1130 -0.1347  0.2357
15013W        W31087   2.090   0.383  15.582 -0.0402  0.1413  0.1010
15014W        W31088   1.900  10.731   2.909 -0.0425 -0.0252 -0.2283
15015W        W31089  16.745   9.426   3.307 -0.1392 -0.1069  0.1165
15016W        W31090  16.629   7.281  13.466 -0.0294  0.2061  0.0565
15017W        W31091   4.883  15.421  15.367 -0.1028 -0.1215 -0.0601
15018W        W31092  14.596   5.970   1.890 -0.0748  0.2047 -0.0607
15019W        W31093   8.092   1.141  14.219  0.0274 -0.0136  0.4040
15020W        W31094   4.947   5.480  13.373  0.0442  0.1925 -0.4568
15021W        W31095  11.905  17.299   3.065 -0.1317  0.0949 -0.3281
15022W        W31096  16.121   6.189   0.706  0.1510 -0.0085  0.0411
15023W        W31097  10.544   0.977  15.611  0.0835 -0.0046 -0.1121
15024W        W31098   6.043   2.966  11.700 -0.0686 -0.1686  0.1136
15025W        W31099   6.569   6.548   5.802 -0.1678 -0.4355 -0.2115
15026W        W31100   9.202  10.622   1.080 -0.2067  0.2624  0.0728
15027W        W31101  17.785   3.071   0.082 -0.4061 -0.2005  0.2776
15028W        W31102   8.154   4.211   1.014 -0.0040  0.4582 -0.0078
15029W        W31103   0.663  16.632  10.676  0.2297 -0.2201 -0.0355
15030W        W31104  13.759   3.063  15.555 -0.2265  0.2573 -0.1024
15031W        W31105  11.874  16.494   0.658 -0.2506  0.0911  0.3809
15032W        W31106  13.234  11.522   5.996 -0.6216  0.1571 -0.1898
15033W        W31107   1.516   4.993  12.636 -0.2215  0.2039  0.0581
15034W        W31108  16.912  17.646  11.719 -0.3205  0.2403  0.2683
15035W        W31109   0.958   7.408   0.211 -0.1842 -0.5679 -0.3164
15036W        W31110  14.020  16.662  11.222 -0.1600 -0.0639  0.2073
15037W        W31111   6.103   9.076  12.267 -0.0522 -0.0322  0.1308
15038W        W31112   2.955  14.717   2.824 -0.1241  0.2334  0.0228
15039W        W31113  13.397   5.041  12.521  0.2229 -0.6355 -0.1881
15040W        W31114   7.872   8.894  15.592  0.0856  0.0370  0.1890
15041W        W31115   9.115   8.962   2.450  0.2512  0.0068 -0.1332
15042W        W31116  13.992   7.965  11.256  0.0021  0.2168 -0.0496
15043W        W31117  17.342  14.818  15.425  0.0361 -0.0730  0.0123
15044W        W31118  10.013  10.724  10.474 -0.2262  0.1075 -0.0953
15045W        W31119   6.425   1.343   5.157 -0.0353 -0.2906 -0.0257
15046W        W31120   4.635  10.405   3.681  0.2511  0.0498  0.4333
15047W        W31121   8.417   5.084  13.510 -0.4532 -0.1148 -0.2197
15048W        W31122  15.466   5.033   2.746  0.1503 -0.0809 -0.0097
15049W        W31123  12.693   2.713  12.359 -0.0836 -0.3505 -0.1716
15050W        W31124  18.049  15.015  12.406  0.3615  0.1540 -0.0208
15051W        W31125  17.679   8.167   3.096 -0.3928 -0.1710 -0.0283
15052W        W31126   4.556  18.502  12.217 -0.0212 -0.0175 -0.1014
15053W        W31127   4.159  13.917   2.434 -0.3382 -0.0671  0.0488
15054W        W31128   2.843  15.997  12.115  0.3437  0.2491  0.5143
15055W        W31129   5.621  17.973  11.364  0.0797  0.0722 -0.0571
15056W        W31130   6.593  17.184  12.886 -0.0017 -0.3746  0.1281
15057W        W31131  15.888  15.268  13.198  0.0944  0.1349  0.2455
15058W        W31132  17.802   0.986   2.499  0.3714  0.0111  0.2449
15059W        W31133   9.221  14.536  12.435 -0.0164 -0.1216 -0.1078
15060W        W31134   8.716   9.084  12.099  0.1233 -0.1234 -0.0775
15061W        W31135  14.531  16.060   2.838  0.0103  0.2151  0.0740
15062W        W31136  16.840  11.133  11.701  0.0446 -0.0686 -0.2751
15063W        W31137   6.612   3.220   5.144  0.1581 -0.1389  0.0847
15064W        W31138  11.482  17.008   5.914 -0.2431 -0.0167 -0.1532
15065W        W31139  12.334   7.908  12.356  0.2494  0.0083  0.0944
15066W        W31140   7.840  10.457  13.813 -0.1803 -0.0946 -0.0046
15067W        W31141   3.416  15.779   4.308  0.1691  0.1806  0.1252
15068W        W31142  10.951   4.801  13.770  0.3762 -0.2600  0.0792
15069W        W31143   1.037   7.244  12.387  0.0952  0.1419 -0.2392
15070W        W31144   2.008  16.631  15.722 -0.1422  0.1695  0.2493
15071W        W31145  10.231  12.644  15.167  0.0445  0.0122  0.0318
15072W        W31146  17.882   6.081  14.299 -0.0545 -0.2898 -0.0988
15073W        W31147  15.812  12.364   1.471  0.0562 -0.0037 -0.0638
15074W        W31148   3.608  16.387   2.295  0.0814  0.0169 -0.1610
15075W        W31149  14.844  11.570   1.303  0.0502  0.2715 -0.1187
15076W        W31150   4.839   8.434   1.161  0.1553 -0.3207 -0.1159
15077W        W31151   8.606  10.038   5.193 -0.1001  0.0168  0.0370
15078W        W31152   7.574  18.527   1.471  0.0656 -0.0822  0.0459
15079W        W31153   3.203   9.219   2.763  0.0789 -0.2554  0.2844
15080W        W31154  13.448  15.924   1.533 -0.0605 -0.0334  0.2462
15081W        W31155   5.043   0.387   2.160 -0.1319 -0.0221  0.0275
15082W        W31156   5.372  18.557   2.870 -0.2073 -0.1336 -0.2548
15083W        W31157   8.283  10.538  12.554  0.2352 -0.3036  0.1930
15084W        W31158  10.145   6.332   3.505 -0.4891 -0.0333  0.3126
15085W        W31159   6.448  13.830   3.712 -0.1900  0.1943 -0.0139
15086W        W31160  17.970   0.566   4.472  0.0476  0.2270  0.3061
15087W        W31161   3.492   6.003   2.392 -0.0025 -0.0868 -0.1358
15088W        W31162   1.586  10.841  13.388 -0.0863 -0.1464  0.1591
15089W        W31163   4.385   3.796  15.095 -0.1123 -0.0236  0.1278
15090W        W31164  12.188  18.544   3.785 -0.1672  0.1306 -0.0388
15091W        W31165   1.983   3.801  12.173  0.0193  0.0665 -0.1048
15092W        W31166   6.186   2.022  14.322 -0.1074 -0.0763 -0.1421
15093W        W31167   9.322   6.783   2.441 -0.2114  0.0191 -0.2047
15094W        W31168   8.167   5.933  15.268  0.3683  0.0384 -0.2195
15095W        W31169   2.070  16.964  11.630  0.3112  0.3212 -0.1211
15096W        W31170   0.370   0.182  13.335  0.0999 -0.1340 -0.0437
15097W        W31171  17.089   1.700  15.029 -0.2655 -0.0598 -0.2406
15098W        W31172   9.973   6.142   5.090  0.2306  0.2423 -0.0748
15099W        W31173   5.042  12.215  13.608 -0.4873 -0.2110  0.2964
15100W        W31174  16.078   0.966  12.752  0.2811 -0.1804 -0.0426
15101W        W31175   2.288  15.752  11.225  0.1824  0.0725  0.2738
15102W        W31176   4.483   0.190  10.928 -0.0674 -0.0336 -0.0561
15103W        W31177   4.735   3.362  11.995 -0.0819 -0.0906 -0.0431
15104W        W31178   7.624   8.398  14.852 -0.2557  0.1231 -0.3746
15105W        W31179   3.159  10.877   2.025 -0.1612 -0.3733 -0.3337
15106W        W31180  10.794  17.520   1.819 -0.0214 -0.0930 -0.0126
15107W        W31181  14.155  17.494   1.119 -0.0773 -0.1672 -0.2094
15108W        W31182   0.785   8.682  13.620 -0.0444  0.0557 -0.2779
15109W        W31183  12.381  16.100   3.480 -0.4478 -0.0513 -0.0642
15110W        W31184  11.146   6.126  13.753 -0.3092 -0.1607 -0.3081
15111W        W31185   7.865  14.879   2.720 -0.1231 -0.0466  0.2812
15112W        W31186   1.921  16.923   1.173  0.1229  0.0243  0.1432
15113W        W31187   2.298   8.782   0.481 -0.0256  0.2317 -0.0699
15114W        W31188   2.074  14.051   3.552  0.1704  0.1731  0.1446
15115W        W31189  16.751  15.617   4.543 -0.0298 -0.1589 -0.1570
15116W        W31190  14.703   6.815  15.197 -0.0710 -0.0964 -0.1001
15117W        W31191  11.893   5.767   3.983 -0.2159  0.1606 -0.1838
15118W        W31192   6.989   3.535   2.790  0.0226  0.0621  0.0726
15119W        W31193  15.342  16.502   0.260 -0.1114  0.2500 -0.2876
15120W        W31194  13.859  14.525   1.961 -0.1200  0.0305 -0.0976
15121W        W31195   7.768   9.611   1.849 -0.3353  0.0252 -0.1984
15122W        W31196  14.111   1.117  15.579 -0.3301  0.0135 -0.4987
15123W        W31197  17.329   7.934   2.853 -0.0624 -0.1885 -0.0334
15124W        W31198   1.986   0.744   3.654  0.3251  0.0179 -0.1114
15125W        W31199   5.034  17.550  12.440 -0.1063  0.0415  0.0305
15126W        W31200   5.197   0.901   9.930  0.1000 -0.1046  0.1500
15127W        W31201   2.643  17.532  11.632 -0.0248  0.2182 -0.1246
15128W        W31202   1.906  11.588  16.008  0.2058  0.0276 -0.0291
15129W        W31203  17.383   9.608   6.180  0.0929 -0.0029  0.1608
15130W        W31204  13.106  16.604  15.952 -0.1562  0.1663 -0.0272
15131W        W31205   4.670  17.326  12.232 -0.1024  0.0970  0.1919
15132W        W31206  16.203  14.676  12.940  0.2936  0.1782 -0.0898
15133W        W31207   7.760  10.123  14.155  0.1988 -0.3337  0.2385
15134W        W31208  14.641   4.683  11.983 -0.0211 -0.3681 -0.0558
15135W        W31209   0.814   2.956   4.622 -0.1571  0.6318 -0.2178
15136W        W31210  18.114  12.582   0.720 -0.2617  0.1427 -0.2411
15137W        W31211   2.782   0.670  13.038 -0.0240 -0.0433 -0.2940
15138W        W31212   3.466   2.667   1.310 -0.1692 -0.1287 -0.0760
15139W        W31213   6.627   5.526   0.637  0.0719 -0.3255  0.0667
15140W        W31214   9.443  16.017  12.348  0.0091  0.1834  0.1684
15141W        W31215   1.958  15.064  12.643 -0.0674 -0.0810 -0.0952
15142W        W31216   1.276   0.864   3.511  0.0937 -0.2429  0.3533
15143W        W31217   9.484   3.035  12.554  0.1396 -0.2306 -0.4250
15144W        W31218  14.815  11.609  11.258 -0.0252  0.0441 -0.1335
15145W        W31219   4.397  17.273  14.895 -0.3191  0.3069 -0.2794
15146W        W31220   3.084  17.707  15.145  0.2834  0.0291 -0.2909
15147W        W31221  17.766   6.069   0.930 -0.2389  0.0198 -0.1977
15148W        W31222  10.589   5.318   4.021  0.1208  0.1799 -0.1725
15149W        W31223   2.228  14.512   1.067  0.3374 -0.1115 -0.1157
15150W        W31224  15.410  16.482  15.707 -0.0890  0.1155 -0.2359
15151W        W31225   2.447  10.526  12.946  0.0608 -0.0768 -0.1252
15152W        W31226   5.023  17.196  11.723 -0.2735 -0.0205 -0.2462
15153W        W31227  10.950   1.598  15.422  0.0235 -0.1310 -0.2107
15154W        W31228   5.153  16.091  10.739  0.0819  0.1216 -0.1768
15155W        W31229  14.156   6.235  15.486 -0.1708 -0.2461  0.1173
15156W        W31230  16.460  15.210   1.711 -0.0459  0.0050  0.1479
15157W        W31231  15.802  17.460   1.405  0.1051  0.1620  0.0529
15158W        W31232  11.623  10.346  14.294  0.2646 -0.0534 -0.0613
15159W        W31233  11.801  14.626   4.189 -0.3202  0.3896  0.1905
15160W        W31234  10.831  10.687  13.758 -0.2122 -0.1468  0.4056
15161W        W31235  13.827  13.155   1.433  0.1500 -0.2673 -0.2848
15162W        W31236  12.128   1.024   1.397 -0.1271  0.1981  0.0947
15163W        W31237  10.016  11.154  12.532  0.0198 -0.1836 -0.0479
15164W        W31238  13.195  17.019  12.456  0.2411 -0.0235  0.2407
15165W        W31239   1.274   1.127   3.076  0.0800  0.3501 -0.2406
15166W        W31240   9.711  18.424  13.663  0.1345 -0.3920  0.0607
15167W        W31241   8.712  13.704  10.960  0.0436  0.1304  0.1726
15168W        W31242  16.515   6.227   4.745 -0.3988 -0.1611  0.0032
15169W        W31243   0.632   6.006   1.284 -0.1315  0.1742 -0.0873
15170W        W31244  16.962  16.216  12.034 -0.1426 -0.1884 -0.2073
15171W        W31245  10.151  16.688   2.403  0.0582  0.0601 -0.1227
15172W        W31246  12.562  11.851  11.229 -0.1445  0.1694 -0.1639
15173W        W31247   3.028  17.741   1.745  0.1082  0.1199  0.4131
15174W        W31248   5.677  10.218   3.903 -0.2638 -0.0499  0.0156
15175W        W31249  10.664  13.173   2.887 -0.2171  0.1146 -0.1105
15176W        W31250  17.677  18.367  11.130  0.0833  0.0600  0.1039
15177W        W31251   1.627   0.195   4.526 -0.5247  0.1633  0.0609
15178W        W31252   5.203   7.772   2.150  0.0006 -0.1425 -0.2136
15179W        W31253   1.451  15.438   6.126  0.0110 -0.1957 -0.0198
15180W        W31254   6.574   2.606   1.810 -0.3526 -0.2597  0.0258
15181W        W31255  18.001   8.503   2.780 -0.0706 -0.0219  0.0785
15182W        W31256   1.539   5.172   2.971  0.1876 -0.3217  0.3921
15183W        W31257   7.235  11.744  14.408  0.1566  0.0721 -0.0657
15184W        W31258   5.258   0.904   1.386  0.2618 -0.1031  0.0175
15185W        W31259   5.231  11.563  15.323 -0.0086  0.4999 -0.1911
15186W        W31260  10.447  10.401   2.277 -0.3143 -0.0203 -0.1296
15187W        W31261   4.208  12.480  15.686 -0.1969  0.3003 -0.0403
15188W        W31262   2.096   8.508   1.919 -0.2044 -0.0857  0.2594
15189W        W31263   0.450  11.731  15.471 -0.2511  0.3328  0.1545
15190W        W31264  15.839   7.975  12.448 -0.0677 -0.0799  0.2735
15191W        W31265   6.104   9.438   5.873 -0.1158 -0.0418 -0.2134
15192W        W31266   4.016  14.409  14.686 -0.1622 -0.0473  0.2636
15193W        W31267  10.506  11.912   5.241  0.0626 -0.0688 -0.0528
15194W        W31268   0.650   5.203   2.689  0.2052  0.0291 -0.1131
15195W        W31269   2.109   1.644  13.197  0.1730 -0.0063 -0.0685
15196W        W31270   4.737   8.476  15.700 -0.1808 -0.0462 -0.2042
15197W        W31271   6.058  10.312  13.212  0.0064 -0.0513  0.1693
15198W        W31272   7.299   7.332   0.023  0.0002  0.2728  0.2257
15199W        W31273  16.112  11.884   4.285  0.0094  0.1986 -0.2814
15200W        W31274   1.241   1.055   0.411  0.2818  0.1678  0.1573
15201W        W31275   5.810   5.392   5.633  0.1406  0.3671 -0.0533
15202W        W31276   3.423   6.817   0.292  0.0582 -0.0606 -0.4584
15203W        W31277   7.713  17.153   4.055 -0.0363  0.0178  0.0966
15204W        W31278  12.867  17.876   0.336 -0.2698 -0.1328  0.0445
15205W        W31279  17.867   2.286  14.158  0.2439 -0.2094  0.1600
15206W        W31280   6.809  16.857   2.885  0.0468 -0.0678 -0.1180
15207W        W31281  10.230  11.133   3.572 -0.2138  0.1911  0.2813
15208W        W31282   1.634   1.499  10.902  0.2199  0.2811  0.1851
15209W        W31283   1.481  13.403  13.471  0.0052 -0.0600 -0.0454
15210W        W31284  15.931   1.858  12.321  0.2192 -0.0026 -0.1865
15211W        W31285  16.414  13.212  11.967  0.0233  0.1268 -0.2020
15212W        W31286   5.885  14.359  13.979  0.2978  0.1033  0.1220
15213W        W31287   0.172  16.195   3.134 -0.1265 -0.4434 -0.2832
15214W        W31288   8.922   6.818  14.225  0.0842  0.0696 -0.0833
15215W        W31289  13.962  16.080   1.867 -0.0018  0.2048  0.0315
15216W        W31290  12.967   4.181  14.031  0.2675  0.0295 -0.0169
15217W        W31291  17.679  11.006   3.130 -0.0875 -0.3484  0.0116
15218W        W31292   0.219  13.610  13.683  0.1383  0.0856  0.2822
15219W        W31293   8.865   8.200  12.213  0.0435 -0.1409 -0.1512
15220W        W31294  12.010   3.764   5.065  0.0363 -0.1452  0.1011
15221W        W31295  17.155   2.972   5.493 -0.0910 -0.1204 -0.0252
15222W        W31296  17.443   4.416  14.518 -0.0541 -0.0043 -0.0764
15223W        W31297   3.219  18.128  14.844  0.1667  0.1442 -0.1133
15224W        W31298  15.587   3.352   1.736 -0.0523 -0.2363  0.1571
15225W        W31299   0.465   7.078   2.748  0.0366  0.1685 -0.0429
15226W        W31300   1.803   4.107   5.876  0.2810 -0.2723  0.3493
15227W        W31301   0.660   1.939  10.987 -0.1932 -0.0479 -0.3272
15228W        W31302   4.971  10.719  13.872 -0.1226  0.2886 -0.1955
15229W        W31303   1.715   3.634   0.287  0.2560  0.1588 -0.3100
15230W        W31304  13.364   0.324   9.272 -0.0736  0.0014  0.1265
15231W        W31305   0.292   4.588   4.942  0.0772  0.3854 -0.0100
15232W        W31306   5.491  14.164  13.728 -0.2493  0.1116 -0.0827
15233W        W31307  13.593   0.538  14.022 -0.0701  0.0367  0.1103
15234W        W31308   1.032   9.790   2.855 -0.1097  0.4120  0.0214
15235W        W31309   5.713   2.136  13.370  0.2060  0.0122 -0.0656
15236W        W31310  12.508   1.617   5.837  0.2041 -0.0865  0.3184
15237W        W31311   8.928  17.307   1.401 -0.2374  0.1161 -0.0233
15238W        W31312   9.532   8.443   2.626  0.0268  0.2835  0.0253
15239W        W31313   2.027  17.178  15.807 -0.3081  0.0075  0.1890
15240W        W31314  13.433  10.889  12.091  0.0129  0.2716  0.2826
15241W        W31315  12.427   4.774   2.666 -0.0208 -0.1827 -0.1247
15242W        W31316  14.482   2.775   1.314 -0.1084 -0.0154 -0.2553
15243W        W31317   8.055   2.452  14.427 -0.0397 -0.0628  0.1129
15244W        W31318  13.467   3.690   0.980 -0.0994 -0.3444 -0.0613
15245W        W31319   5.164  15.413  14.813  0.1399  0.1397  0.1478
15246W        W31320   3.861   7.929  13.298  0.1538 -0.3051 -0.1497
15247W        W31321  17.802   8.974  12.789  0.3816  0.1226 -0.0365
15248W        W31322  16.769  14.622   2.254  0.0762  0.1224 -0.0708
15249W        W31323   6.714  11.279  14.274 -0.0186  0.0458 -0.2207
15250W        W31324  11.528  13.767   4.342 -0.2395  0.1604  0.2490
15251W        W31325  11.975   9.159  10.855  0.1867  0.1405 -0.2659
15252W        W31326  11.975   1.570   1.924 -0.0023 -0.0687  0.1611
15253W        W31327  12.649   6.171   2.425  0.0524  0.1068 -0.3651
15254W        W31328   3.913  13.256   3.273  0.1721 -0.2036  0.1102
15255W        W31329  15.365   3.839  13.634  0.0250  0.4417 -0.1289
15256W        W31330  18.058  10.092   3.295 -0.1970 -0.2127  0.1563
15257W        W31331  16.174  17.361   4.834  0.0729  0.1216  0.0699
15258W        W31332   2.960   6.364  13.562  0.0886  0.2100  0.0281
15259W        W31333  12.257  16.447   3.118 -0.0381  0.1144  0.0123
15260W        W31334  18.335  10.419  11.846  0.1242  0.2231  0.0439
15261W        W31335  13.043   1.049   3.809  0.2382 -0.1201  0.1169
15262W        W31336   8.311  17.788   0.018 -0.2261  0.0009  0.2312
15263W        W31337  16.121   7.818  11.565  0.1012 -0.1235  0.1416
15264W        W31338  15.194   8.734  13.875 -0.0711  0.0565 -0.1583
15265W        W31339   7.383   2.092   5.042  0.1291  0.0725  0.1746
15266W        W31340  15.300   4.889   1.445 -0.0703  0.0873 -0.2160
15267W        W31341  13.862   0.995   5.784  0.3035 -0.1790 -0.0437
15268W        W31342   0.122   4.307  15.204 -0.0569  0.3040  0.1147
15269W        W31343   9.386  14.278   1.919 -0.0729  0.0496 -0.0060
15270W        W31344   8.563   8.289  12.945 -0.1779  0.0575 -0.0360
15271W        W31345   7.853   3.586  13.253  0.1789 -0.3493 -0.0460
15272W        W31346   2.698  17.303   3.169  0.4680  0.0169  0.2818
15273W        W31347   2.101   4.640   1.182 -0.0467 -0.1829  0.0952
15274W        W31348  14.218  11.673   0.792  0.0535 -0.3349  0.0214
15275W        W31349   6.403   8.133   1.150  0.0236  0.2540 -0.1095
15276W        W31350   9.171   8.045   2.745  0.0654  0.0786  0.0749
15277W        W31351  12.988   2.146   4.866  0.3438  0.2969 -0.1602
15278W        W31352  13.844  14.545  14.060  0.1243 -0.1544 -0.1457
15279W        W31353   2.106   3.241   0.449 -0.3766 -0.0221 -0.0738
15280W        W31354  16.027   5.280   3.566  0.1557  0.0459  0.5551
15281W        W31355   1.435  11.562   3.836  0.0917  0.3142 -0.1129
15282W        W31356  18.486   3.681  11.529  0.2221 -0.1614  0.2310
15283W        W31357   2.271   0.532   4.123 -0.0611  0.1501  0.2959
15284W        W31358   0.714   9.026   1.986  0.1426 -0.2410 -0.0716
15285W        W31359   5.199   9.222  12.580  0.2393 -0.0165  0.0229
15286W        W31360   9.418  15.809  15.698  0.0799 -0.1704  0.0667
15287W        W31361  11.745  13.664   1.242 -0.1026  0.2091  0.0036
15288W        W31362  11.698  13.679  14.440 -0.0253  0.2008  0.0968
15289W        W31363   9.067  13.853   3.704 -0.0600 -0.1046  0.4599
15290W        W31364   5.853   7.178   3.582  0.1881  0.1683 -0.1477
15291W        W31365   2.126   0.290   5.067  0.4989 -0.1112  0.0995
15292W        W31366  17.475   2.506  11.020 -0.1795  0.2880  0.3965
15293W        W31367   8.541  10.861   2.316  0.0348  0.1941 -0.0221
15294W        W31368  17.806  15.851  11.905  0.1401 -0.1633 -0.0959
15295W        W31369  14.690   4.934  12.372 -0.0624 -0.0754 -0.4704
15296W        W31370   9.503  13.902   4.055  0.2199 -0.1645 -0.0523
15297W        W31371  13.235  12.866  13.925  0.0034 -0.0955 -0.1910
15298W        W31372  15.119   4.255   2.676 -0.2992 -0.0645 -0.0789
15299W        W31373   5.743  11.447  13.399  0.1151 -0.2038 -0.2778
15300W        W31374  13.635  16.372   3.891 -0.3045  0.1336 -0.1605
15301W        W31375   3.055   1.986   5.054 -0.3442 -0.0091  0.4423
15302W        W31376  17.477  13.676  14.756 -0.0445 -0.2343  0.2272
15303W        W31377  10.303   2.474  14.052 -0.1328  0.0917 -0.2982
15304W        W31378   7.352   5.994  15.868  0.2451  0.1508 -0.0480
15305W        W31379   4.860  15.688  13.240 -0.0337  0.2392  0.3078
15306W        W31380  13.398  18.206   0.442 -0.1088  0.1029 -0.0355
15307W        W31381   0.005   4.310   4.336 -0.1320 -0.0065  0.0778
15308W        W31382  13.924  14.415  12.740 -0.2033  0.2343 -0.1195
15309W        W31383  11.183   6.370   3.121 -0.0738  0.0129 -0.0991
15310W        W31384  10.605   4.566  14.850  0.0170 -0.0127 -0.2099
15311W        W31385   9.736  10.042   0.321  0.2312 -0.0489 -0.0881
15312W        W31386   5.050  11.537   0.623 -0.1346 -0.0606  0.1329
15313W        W31387  12.149   0.133  15.331  0.2589 -0.0009  0.1879
15314W        W31388  14.196  18.111   0.707  0.0165 -0.0257  0.0120
15315W        W31389  14.106  11.512   3.796 -0.2534 -0.1395  0.2335
15316W        W31390   4.137   0.796   2.289  0.0208  0.0178  0.3961
15317W        W31391   0.655   6.846  13.435  0.0763  0.1013  0.0686
15318W        W31392  10.460   5.008   1.701 -0.3217 -0.3060  0.0383
15319W        W31393  13.847   7.181   5.263  0.1176 -0.0438  0.4477
15320W        W31394  13.280  13.087  11.128  0.1195 -0.2889  0.2985
15321W        W31395  14.325  14.996   0.897 -0.3865  0.0231 -0.1583
15322W        W31396   2.552  13.599   0.238 -0.3123 -0.2526  0.0709
15323W        W31397  12.671  15.328   5.604  0.0722  0.0491 -0.3223
15324W        W31398  17.210   3.762  11.025 -0.2327  0.0932 -0.1104
15325W        W31399   9.405   6.524  13.344 -0.1497 -0.1545 -0.1936
15326W        W31400  17.534  17.977   2.515  0.0955  0.0301  0.1579
15327W        W31401   7.837  11.034   4.866 -0.4726  0.0570 -0.0478
15328W        W31402  14.567  16.982  13.935  0.1966 -0.0038 -0.0584
15329W        W31403  15.009  14.221  11.717  0.1695  0.2020  0.1844
15330W        W31404   8.091   7.587  12.138 -0.2741  0.4054  0.0688
15331W        W31405   6.200   2.795   0.872  0.2908 -0.0087 -0.3122
15332W        W31406   5.174   2.997   3.924  0.2439  0.0915  0.2364
15333W        W31407  15.292  12.401   4.497 -0.2117 -0.2955 -0.3020
15334W        W31408  14.085   9.443  11.420  0.0625 -0.0398 -0.2003
15335W        W31409  14.358   0.670  12.929  0.1468  0.1192 -0.2173
15336W        W31410   0.316   5.675   2.605  0.0081 -0.2301 -0.0314
15337W        W31411   4.336  16.441   4.281  0.2918  0.0179 -0.1124
15338W        W31412  13.871  12.289   3.096  0.0105 -0.1903 -0.0774
15339W        W31413   9.695  12.107  13.427 -0.2394 -0.1847  0.0667
15340W        W31414  17.057  13.082  12.659  0.1548 -0.0051 -0.0061
15341W        W31415   0.305   5.324  13.204 -0.0998  0.0131 -0.0664
15342W        W31416  12.380  13.669  15.120  0.0887 -0.2661  0.1680
15343W        W31417   9.129   9.403   1.400  0.1961  0.1017  0.2496
15344W        W31418  14.749   5.247  13.682 -0.1947  0.2298  0.0494
15345W        W31419  17.882  10.950  14.421 -0.2712  0.2034  0.2181
15346W        W31420   6.590  18.424  15.512  0.0762  0.3186  0.3274
15347W        W31421   3.636  11.704   2.732  0.0434 -0.0768 -0.3591
15348W        W31422   6.264  10.775   4.810 -0.0628 -0.1084 -0.0565
15349W        W31423   3.722  14.567   5.986  0.1682  0.3146 -0.0277
15350W        W31424  13.145   4.722   2.891 -0.2648 -0.4782 -0.1934
15351W        W31425   6.889   7.750   2.649  0.1248 -0.0559  0.1941
15352W        W31426  15.917   7.243   1.204 -0.2813 -0.1057  0.0654
15353W        W31427  14.535  10.673  15.504 -0.3202 -0.1796 -0.0387
15354W        W31428  11.007   9.888   4.513 -0.1332 -0.0373  0.4323
15355W        W31429  14.137  13.729   2.632  0.1472  0.2882  0.1077
15356W        W31430  18.561   8.859   5.144 -0.2227  0.3026  0.1054
15357W        W31431  16.537   4.730   0.527  0.1137  0.3314  0.0724
15358W        W31432   2.697   7.751   4.704 -0.0789 -0.0572  0.2500
15359W        W31433  14.428  10.812  12.778 -0.0706 -0.0409 -0.1622
15360W        W31434   2.602  15.011  11.890 -0.1745  0.3951  0.2036
15361W        W31435  12.966   7.029  12.454  0.1959  0.1928  0.3221
15362W        W31436   5.342  16.022   3.007 -0.1234 -0.0123 -0.1323
15363W        W31437  11.083   1.665   0.710 -0.0735 -0.0446 -0.1021
15364W        W31438  12.373  17.091  11.212  0.1457 -0.0886 -0.1871
15365W        W31439   4.782   3.616  12.981  0.2691 -0.2639 -0.2086
15366W        W31440  15.532  16.036  16.008 -0.1478  0.1102  0.2475
15367W        W31441  15.519  10.868  12.191  0.0030  0.1107  0.3146
15368W        W31442   2.732  17.907  13.138 -0.1454  0.2060 -0.0502
15369W        W31443   9.726   4.662   1.853  0.1365 -0.0343  0.0333
15370W        W31444   1.494  15.020   1.650 -0.1785  0.0288  0.2599
15371W        W31445   3.222   8.125   0.385 -0.0251  0.0479 -0.0483
15372W        W31446   2.660   5.411  16.009 -0.0802 -0.1109 -0.0594
15373W        W31447  15.683   3.914   3.806  0.0354 -0.1825 -0.1624
15374W        W31448   6.718   9.582  12.609  0.0551  0.0641  0.0641
15375W        W31449   0.162   0.794   2.105  0.0855 -0.0719  0.2980
15376W        W31450   5.701  14.916  12.318  0.1436 -0.2298  0.1018
15377W        W31451  17.607  12.566   4.883 -0.0398 -0.0239 -0.1089
15378W        W31452   9.279   4.639  11.900  0.0691 -0.1699 -0.5486
15379W        W31453  10.172  12.300  13.468 -0.0435 -0.2998 -0.1708
15380W        W31454  14.086   1.354   1.284 -0.2065  0.0992  0.0468
15381W        W31455   9.742  10.976   2.664 -0.3604 -0.2692 -0.4413
15382W        W31456  14.642   0.264  13.809 -0.0845 -0.2561 -0.2554
15383W        W31457   1.322   5.722   3.270 -0.0769 -0.0434 -0.0089
15384W        W31458  10.086   1.781  12.177 -0.0125 -0.0941  0.3865
15385W        W31459  15.939  15.204   2.180  0.2751 -0.1852  0.2318
15386W        W31460  13.378  18.461   4.513 -0.0068 -0.0661 -0.1410
15387W        W31461  14.503   7.993  12.990 -0.0250  0.1272  0.1492
15388W        W31462   3.771   2.698  15.059 -0.2169  0.1673 -0.1527
15389W        W31463  10.518   0.795  13.455  0.0541  0.2891  0.2198
15390W        W31464  11.939  15.190   4.510 -0.0039 -0.2293 -0.2851
15391W        W31465  14.960  10.742   1.959  0.3936  0.0604  0.0834
15392W        W31466  16.761   4.102   2.288 -0.4653 -0.0067 -0.0985
15393W        W31467   0.476  18.343   0.689 -0.0063  0.1535 -0.2063
15394W        W31468   1.791   0.517  10.841  0.0338  0.2337 -0.1515
15395W        W31469   9.277  18.206   2.435  0.0546  0.2200  0.0128
15396W        W31470   3.248  13.704   3.712  0.1114  0.0599  0.3173
15397W        W31471  12.165   3.997   4.661  0.0808  0.3500  0.0047
15398W        W31472   5.257   3.494   3.746  0.0083  0.0995 -0.1872
15399W        W31473  11.266   0.250  15.623 -0.0334  0.2779 -0.2152
15400W        W31474  14.244  15.492   1.072  0.2686  0.0936  0.2494
15401W        W31475   1.810  10.569  12.457 -0.2014  0.2937  0.1695
15402W        W31476  15.641  11.898   3.857 -0.2283  0.1027  0.4372
15403W        W31477  14.833  16.777  15.197  0.2610 -0.2082  0.0996
15404W        W31478   8.948  12.161  11.826  0.2635 -0.0480  0.1730
15405W        W31479  15.189   1.139  13.854 -0.0711 -0.0657  0.0099
15406W        W31480   2.668  17.397  15.084 -0.1062 -0.0875 -0.0457
15407W        W31481  16.882  14.329   4.989  0.0410  0.1425 -0.0840
15408W        W31482  11.976  17.733  12.819  0.3585  0.1251  0.1770
15409W        W31483  15.372  15.140  13.002 -0.0478  0.0961  0.1059
15410W        W31484  10.427   7.062   3.821 -0.0157  0.0850  0.1333
15411W        W31485  13.476   0.668  11.967 -0.3248 -0.1163 -0.1333
15412W        W31486   1.295   4.068   4.585 -0.1256 -0.0737  0.0301
15413W        W31487   9.292  15.964   2.863  0.2182 -0.0294 -0.0045
15414W        W31488  15.509  14.530  15.356  0.0694  0.0606 -0.1355
15415W        W31489  16.907  14.429   2.736 -0.2278  0.2413 -0.0762
15416W        W31490   8.240  16.694  12.197  0.0134 -0.0844 -0.1186
15417W        W31491   9.557  10.119   3.960 -0.1351 -0.3246  0.1130
15418W        W31492  13.023  11.245   2.459 -0.1009  0.2905 -0.1835
15419W        W31493  13.290   9.359   1.600  0.0409  0.1211 -0.0091
15420W        W31494  17.174  14.222  14.008  0.3878  0.2391  0.1752
15421W        W31495   3.458  11.461  15.069  0.4809  0.1720 -0.0554
15422W        W31496  16.593   2.145  11.158  0.3068  0.0495  0.3283
15423W        W31497   4.413   4.797   2.726  0.1118  0.1158 -0.5200
15424W        W31498   6.195   6.979  15.050  0.1492 -0.0738 -0.4993
15425W        W31499   1.065  14.763  14.010  0.4382  0.0465  0.2064
15426W        W31500  16.032   3.999   4.618 -0.0549 -0.2262  0.2980
15427W        W31501   7.028   9.179   0.116  0.0282 -0.0679 -0.1376
15428W        W31502  14.381  16.837   0.619 -0.3054  0.0146 -0.1137
15429W        W31503   8.308  16.481   4.614 -0.0800 -0.0884 -0.2057
15430W        W31504  18.165   5.486  11.052  0.0175 -0.1957  0.1076
15431W        W31505   6.024   5.193  12.025 -0.2988 -0.0322 -0.1565
15432W        W31506   8.360   0.849   2.276 -0.1060 -0.0670 -0.5028
15433W        W31507   5.828  11.096   3.885 -0.2723  0.0832 -0.0266
15434W        W31508   3.820  16.770   2.924  0.2945 -0.1818  0.3036
15435W        W31509   8.727   4.091   1.308  0.0032  0.2047  0.0951
15436W        W31510   7.068  17.987   0.022  0.2177 -0.1057  0.2809
15437W        W31511   6.670   5.172   3.890  0.0032 -0.0903  0.0350
15438W        W31512  12.632  10.994  10.708 -0.0114  0.0361  0.3179
15439W        W31513  12.451  14.932  11.867  0.1037  0.5026  0.1123
15440W        W31514  10.706  10.185  15.433 -0.0310  0.2643 -0.1058
15441W        W31515   4.921   8.289  14.532  0.0807  0.1254  0.0248
15442W        W31516   2.046   2.896  11.380 -0.1058 -0.0229  0.0004
15443W        W31517   5.991   3.582  15.226  0.2402 -0.0009 -0.2444
15444W        W31518   7.457   9.822   0.732 -0.0236 -0.0061  0.0772
15445W        W31519   6.936   0.822  14.183  0.1425  0.0879  0.3323
15446W        W31520   8.150   2.697  12.185  0.2975 -0.3002  0.2429
15447W        W31521  11.943   2.266  11.524 -0.0545 -0.1327  0.0298
15448W        W31522  11.429   7.079  11.208 -0.1436  0.0368 -0.2229
15449W        W31523   1.076   7.495   3.489  0.0953  0.0070 -0.0673
15450W        W31524  15.616  14.982   3.755  0.0378  0.0106  0.0277
15451W        W31525   9.404  13.544   6.353 -0.0484 -0.0983 -0.2466
15452W        W31526   7.544   3.604   0.971  0.1525  0.0513 -0.2829
15453W        W31527   6.489  15.249   1.884  0.2345 -0.0755  0.1212
15454W        W31528  17.031   6.638  13.285 -0.0094  0.3071  0.1567
15455W        W31529   7.229  16.962  14.160 -0.0180  0.2202  0.0543
15456W        W31530  10.875  13.292  11.796  0.2632  0.2533  0.3045
15457W        W31531  16.579   0.790  13.328 -0.0648  0.0011  0.1772
15458W        W31532   6.131  15.266   0.283  0.2008  0.3732  0.0818
15459W        W31533  18.379   0.075   3.615 -0.0585  0.1134 -0.1618
15460W        W31534   1.704  10.930   5.116 -0.1044 -0.2970  0.0464
15461W        W31535  18.088   9.228  13.635 -0.2058  0.0344 -0.1276
15462W        W31536  13.470  14.160   4.321 -0.2469  0.2350  0.4009
15463W        W31537   5.752   8.352   0.349 -0.0121  0.1948 -0.1693
15464W        W31538   1.148  10.090   3.359  0.2320 -0.1679 -0.0104
15465W        W31539   2.220   9.387   2.956 -0.1187 -0.2879  0.0834
15466W        W31540  15.750  14.926   2.909 -0.0237  0.0921 -0.1236
15467W        W31541   4.424   4.030   3.115  0.1098 -0.1718 -0.0067
15468W        W31542   7.315   3.201  12.480  0.0284  0.0114  0.0711
15469W        W31543  14.395  17.076   3.759 -0.0731  0.0750  0.1166
15470W        W31544  18.098  12.628   1.579  0.0933 -0.0449 -0.1669
15471W        W31545  15.193  15.938  13.808 -0.3303  0.1181  0.0489
15472W        W31546  11.723   0.107   2.366  0.1351  0.0255 -0.0195
15473W        W31547  16.631   1.418  11.211 -0.0143  0.0111 -0.0077
15474W        W31548  12.241   5.342  11.957 -0.0488  0.0929 -0.3591
15475W        W31549   6.267  15.737  12.205 -0.1593  0.2019 -0.0038
15476W        W31550   5.802  13.686   0.632 -0.0585 -0.0968  0.2000
15477W        W31551  10.081   3.888   3.837 -0.1091  0.2022 -0.2245
15478W        W31552   4.011  12.564   5.775 -0.1284 -0.2760 -0.2398
15479W        W31553   5.244   9.941   4.932  0.0330  0.1903 -0.2358
15480W        W31554  13.159  13.358   1.859  0.0955  0.1437  0.3509
15481W        W31555  12.290   9.045   2.912 -0.1488  0.0394 -0.1273
15482W        W31556  13.955   5.914   3.821  0.0706 -0.0154 -0.0096
15483W        W31557   4.077  13.367   3.729  0.1110  0.0454 -0.2398
15484W        W31558   8.856  11.273   2.332 -0.0875 -0.1536 -0.0969
15485W        W31559  17.991   3.296  15.059 -0.1135  0.5113  0.1289
15486W        W31560   5.437   9.120   0.957  0.4093 -0.0842 -0.2715
15487W        W31561   5.708  17.509  14.937  0.0478 -0.1406 -0.2249
15488W        W31562   3.944   0.550  12.300  0.3741 -0.0552 -0.0697
15489W        W31563   5.651   0.412   5.413  0.0467  0.1930  0.2779
15490W        W31564   1.221   2.950   5.468 -0.1772 -0.1374 -0.3676
15491W        W31565   0.851  10.262  11.748 -0.1922  0.1942  0.4442
15492W        W31566  11.009  15.953  13.382  0.1142  0.0398 -0.1958
15493W        W31567   5.556   8.596   2.295 -0.2030 -0.2105  0.1383
15494W        W31568  12.750   9.272  10.469  0.1125 -0.0035 -0.1185
15495W        W31569   3.315  10.387   1.036  0.2010 -0.1779  0.2934
15496W        W31570  11.807   9.303   2.896  0.0272 -0.1467 -0.0221
15497W        W31571  14.467  15.301  14.043 -0.0210 -0.1337 -0.3567
15498W        W31572  17.588   0.221  13.669  0.1354  0.1487  0.0507
15499W        W31573   2.795  13.700  15.068  0.2493  0.2292 -0.0206
15500W        W31574   9.527  13.813  14.895 -0.3708  0.0072 -0.0730
15501W        W31575   1.197   9.807   5.552  0.2891 -0.3192  0.2701
15502W        W31576  17.969   8.473  14.832  0.0203 -0.4439  0.0241
15503W        W31577  15.390   8.159   1.790 -0.0876 -0.1079  0.1100
15504W        W31578   4.699  11.605  15.262 -0.3189 -0.1859  0.1002
15505W        W31579   5.289  12.009   1.769  0.0703 -0.0772 -0.1462
15506W        W31580   0.562   1.255  12.290  0.0879  0.0936  0.0114
15507W        W31581   4.663   6.762   1.445  0.0404 -0.3176 -0.2792
15508W        W31582  13.163  12.000  15.786 -0.0537 -0.0918 -0.0252
15509W        W31583   3.253  11.178   3.135 -0.1156  0.0471 -0.2429
15510W        W31584  17.650  15.406   5.972 -0.1120 -0.0766  0.2144
15511W        W31585   0.184  14.096  12.705 -0.1277 -0.2128  0.2360
15512W        W31586  14.080  10.630  12.402 -0.0379 -0.3494  0.0320
15513W        W31587   6.271  13.486  12.173  0.2427  0.1128  0.0320
15514W        W31588  13.847   6.629   4.633  0.0335 -0.0454  0.2359
15515W        W31589  17.607  10.570  14.618 -0.3058  0.0691  0.1535
15516W        W31590  13.898  17.233  14.279  0.2174 -0.1878  0.1434
15517W        W31591  12.478   2.600  11.908 -0.1655 -0.0546  0.0268
15518W        W31592   7.732   2.191  14.147  0.1592  0.3122 -0.1516
15519W        W31593  15.146   0.296   3.003  0.4158  0.1294 -0.0125
15520W        W31594   5.716   8.919  14.711 -0.0528  0.0976 -0.2096
15521W        W31595  17.767   9.801   5.418 -0.1358 -0.2129  0.0178
15522W        W31596  12.404   6.927  14.963  0.2026 -0.1417 -0.0599
15523W        W31597   9.121  12.917  12.721 -0.1743 -0.0144  0.3386
15524W        W31598  12.017  17.493   0.564  0.3627 -0.0153  0.0637
15525W        W31599   8.682   4.118   4.208  0.0255  0.2451 -0.0162
15526W        W31600  18.264  15.166   5.928 -0.2421  0.3423 -0.2087
15527W        W31601   9.253   8.749  12.869 -0.1975  0.2103 -0.3796
15528W        W31602  15.140   3.189   4.231 -0.1121  0.3275 -0.1340
15529W        W31603   2.722   9.741  13.333 -0.0613  0.2943 -0.0670
15530W        W31604   5.987   7.453   2.699  0.1987  0.1887  0.1501
15531W        W31605  15.962  10.973   2.543 -0.1603  0.4274  0.0993
15532W        W31606   3.713  17.921   1.135  0.1097 -0.1121  0.1208
15533W        W31607   9.509  17.567   1.927 -0.2613 -0.3285  0.1429
15534W        W31608   7.168   0.310   5.455  0.0041  0.2223  0.2930
15535W        W31609   0.824  13.597  15.155 -0.2962 -0.0907  0.0158
15536W        W31610  18.251   7.430   3.904  0.4807 -0.0124 -0.0216
15537W        W31611   0.450  14.136   4.376  0.2409  0.2344  0.0325
15538W        W31612  16.855  14.110   4.061  0.2659  0.1556 -0.4195
15539W        W31613   8.643  13.390   3.431 -0.2372  0.0692  0.3969
15540W        W31614  13.692   8.943   1.580  0.0634 -0.0629 -0.2580
15541W        W31615   8.274   9.768   5.482 -0.2062  0.0032  0.1345
15542W        W31616   0.193   7.391   3.055 -0.1132 -0.0666  0.0535
15543W        W31617  17.772  11.171   1.865  0.1800 -0.1068 -0.0527
15544W        W31618  14.681  15.807  11.612 -0.0168  0.2329 -0.1824
15545W        W31619   0.051   0.260  12.761  0.0945 -0.2018  0.0987
15546W        W31620   9.446  13.043  13.443  0.0242  0.0101  0.0786
15547W        W31621  12.059   6.964   3.614  0.1280 -0.1336 -0.1250
15548W        W31622  18.110   5.884  11.362 -0.3141  0.1256  0.0107
15549W        W31623   5.751   5.525   1.579 -0.0693 -0.3127  0.1889
15550W        W31624   9.515   3.054  14.583  0.1527 -0.1260  0.0573
15551W        W31625  12.571  13.634   5.076  0.1937 -0.1705 -0.1901
15552W        W31626  13.267  10.762   1.813 -0.1247 -0.1219 -0.0127
15553W        W31627  15.113   0.299  15.674 -0.0020 -0.0415  0.3439
15554W        W31628  16.517  11.748  14.858 -0.1857  0.1091 -0.2624
15555W        W31629   0.547   7.000   3.994 -0.1370  0.0145 -0.3271
15556W        W31630  16.134   8.813   3.823  0.0326  0.0583  0.0088
15557W        W31631   4.723  14.500  15.437  0.1525  0.2070  0.0200
15558W        W31632  15.889  16.742  15.635  0.1201 -0.1689  0.0312
15559W        W31633  14.267   7.559   3.203  0.0671 -0.0978 -0.2966
15560W        W31634   1.271   4.920   1.372 -0.2884  0.0332 -0.3095
15561W        W31635   7.019   3.480   0.316 -0.0842 -0.1579  0.0939
15562W        W31636   9.344  14.374   3.906 -0.1839 -0.0101  0.0245
15563W        W31637   2.026   6.464   5.393  0.0478  0.1306 -0.0620
15564W        W31638   0.148  14.706   0.569  0.3422  0.1028  0.1161
15565W        W31639  17.692   4.630  12.885  0.2255 -0.2949 -0.0179
15566W        W31640   2.739  16.316   0.440 -0.0909 -0.4222  0.1466
15567W        W31641  18.118  16.038  11.567 -0.0245  0.0553  0.0837
15568W        W31642   3.486   0.725  12.307  0.5098  0.0549  0.2675
15569W        W31643  12.990  10.077   1.112 -0.0863  0.0280 -0.1248
15570W        W31644   1.254   5.233   0.082  0.0310  0.2665  0.2166
15571W        W31645   6.874   7.686   0.205 -0.2109 -0.1603  0.2091
15572W        W31646  15.823   3.240  11.545  0.2588 -0.0968 -0.0799
15573W        W31647   1.932   3.933   4.963 -0.2628 -0.1132 -0.1139
15574W        W31648   3.004   3.996   4.382 -0.1022  0.1699  0.0325
15575W        W31649   7.637  16.485  16.005  0.2251  0.2880 -0.1915
15576W        W31650   2.405   6.795  14.714  0.0729  0.0477  0.1945
15577W        W31651  12.719   3.979   4.097  0.1717 -0.1908  0.1316
15578W        W31652   4.863  12.035  12.238 -0.0691  0.0676 -0.2017
15579W        W31653  10.935  12.819  14.721 -0.2545 -0.1386 -0.0098
15580W        W31654   1.217  17.724   4.665 -0.2050  0.1226  0.0644
15581W        W31655   4.452  12.701   3.225  0.0992 -0.0291  0.3558
15582W        W31656   5.623  11.080   2.264  0.0472  0.2330  0.0937
15583W        W31657  17.937  12.714   0.251  0.2477  0.0955 -0.1049
15584W        W31658   8.816  10.856   1.828 -0.0178  0.1979  0.1889
15585W        W31659   9.314  15.521   0.307  0.2890 -0.0694  0.2450
15586W        W31660   6.950   4.995   0.667 -0.1892  0.0226 -0.3055
15587W        W31661  18.023   2.382  11.156  0.1919  0.1201  0.3097
15588W        W31662   2.240   9.429  15.641  0.1012  0.0176 -0.0966
15589W        W31663  16.557  12.451  14.715 -0.0399 -0.0092 -0.1067
15590W        W31664   1.424  13.301  12.128  0.3769 -0.0487 -0.0714
15591W        W31665  14.681  18.543   6.556  0.2665  0.1322  0.3604
15592W        W31666  13.066   5.550  11.322 -0.0677 -0.1976  0.1993
15593W        W31667  15.001  12.296   1.445  0.0328 -0.3203  0.0471
15594W        W31668  15.747   3.814  14.781 -0.2834  0.0317  0.1894
15595W        W31669   4.415  10.777   5.218 -0.0910 -0.1702  0.1664
15596W        W31670   5.156   7.272   0.154  0.2459 -0.4917  0.2256
15597W        W31671  11.272   5.793   1.987  0.0089 -0.0370 -0.2158
15598W        W31672   3.097  11.484  12.687  0.0417 -0.0411  0.1635
15599W        W31673   1.789   3.544   5.288  0.3129  0.1964  0.1826
15600W        W31674   2.697   8.475  15.404  0.0905 -0.0801 -0.3336
15601W        W31675   0.515  13.199  15.465  0.1263  0.2512  0.0659
15602W        W31676  18.036  13.506  12.431  0.0916  0.2517  0.1156
15603W        W31677  17.615   8.561  15.947 -0.2846  0.1722  0.4227
15604W        W31678  10.660  10.837  14.740 -0.1695 -0.3154  0.2113
15605W        W31679   4.748   6.745   4.061  0.0755 -0.0428 -0.0935
15606W        W31680  10.238   0.020   3.224 -0.4655 -0.1461  0.2520
15607W        W31681  12.896  15.132   3.545  0.0379  0.1061 -0.0492
15608W        W31682   4.733   0.651  12.888  0.2180  0.1167  0.2282
15609W        W31683   0.163  18.043   2.801  0.1531  0.3859  0.2033
15610W        W31684  10.192  17.628   5.798 -0.2128  0.0769 -0.6484
15611W        W31685  11.151  17.036   0.522 -0.0105 -0.2266  0.0158
15612W        W31686   8.704   1.366   1.304 -0.2984  0.1356  0.0060
15613W        W31687  17.598  18.365  13.405 -0.1528  0.1071  0.0302
15614W        W31688   2.712  13.339  14.227  0.2917 -0.3217 -0.0834
15615W        W31689   4.680  13.432  11.805  0.0042 -0.0274 -0.0493
15616W        W31690  10.696  15.070   1.608  0.1092 -0.1478  0.2139
15617W        W31691   6.343   9.093  13.523  0.0996  0.1448  0.0877
15618W        W31692  14.333  12.391   3.363 -0.2299 -0.1612  0.0650
15619W        W31693  11.859   5.431  12.280 -0.3757 -0.1427 -0.2493
15620W        W31694  12.630  12.230   0.381 -0.2580 -0.2421  0.1330
15621W        W31695   0.895   9.066   5.093  0.1809  0.0200  0.3888
15622W        W31696   6.617  14.817   1.441  0.0370  0.0284  0.2373
15623W        W31697   0.706  16.882  12.762 -0.4065  0.0470 -0.3099
15624W        W31698  15.001   6.056  11.763 -0.0779 -0.0191  0.0036
15625W        W31699  14.797  12.255   1.939 -0.0851 -0.0564 -0.2504
15626W        W31700   8.955  15.446   2.040 -0.0892 -0.1317 -0.0622
15627W        W31701   3.691  14.517  13.782  0.0874 -0.1744  0.1393
15628W        W31702  10.555   9.490  11.880 -0.2753  0.0017 -0.1490
15629W        W31703  16.133  13.810   3.169 -0.2873  0.0528 -0.1375
15630W        W31704   7.589   7.561   4.109  0.0053 -0.1313 -0.2289
15631W        W31705  13.452   1.874  14.209  0.0092  0.0479  0.0731
15632W        W31706  15.898  11.760  15.154 -0.0006  0.0426  0.2811
15633W        W31707  13.559   5.883   5.210 -0.0312 -0.1294  0.1085
15634W        W31708   3.027   8.471   3.550  0.0979  0.3077 -0.1065
15635W        W31709   2.197  17.405   0.701  0.1099 -0.2001  0.1106
15636W        W31710  17.619  16.653  14.325 -0.0858  0.0575  0.3002
15637W        W31711   2.680  11.726   3.545  0.2388  0.0679 -0.2415
15638W        W31712   7.648  18.286  13.606  0.0146 -0.0589 -0.1762
15639W        W31713   2.859   5.245   4.513  0.2884  0.1702  0.1272
15640W        W31714  15.896  15.000  14.246  0.2107 -0.1082  0.0649
15641W        W31715   1.498  15.621   2.342  0.2121  0.1367 -0.0482
15642W        W31716  18.176  11.192   5.303 -0.0629  0.1613 -0.3092
15643W        W31717   5.631   4.666  15.283 -0.2060 -0.0408  0.0333
15644W        W31718  16.257  13.536  12.328  0.0913 -0.0177 -0.1200
15645W        W31719  13.965  10.733   2.112 -0.3983  0.3298 -0.1737
15646W        W31720   4.396   6.119  13.639  0.0161 -0.0635 -0.1370
15647W        W31721   0.554  12.050  11.981 -0.0783  0.2465  0.1313
15648W        W31722  15.539   6.946  13.859 -0.2413 -0.0945  0.0338
15649W        W31723   7.782  17.199   1.808 -0.0104 -0.1221 -0.1429
15650W        W31724  14.970   1.948  13.471 -0.0975  0.2640 -0.4699
15651W        W31725   6.728  15.378   3.974 -0.0704 -0.2620  0.2833
15652W        W31726   0.484  13.343   5.637 -0.1219 -0.0830  0.1689
15653W        W31727  15.494   8.345   2.949 -0.1278 -0.1152 -0.0969
15654W        W31728  18.209   5.918   3.769  0.0216 -0.1828 -0.1629
15655W        W31729  17.812   9.180   4.277  0.3165  0.3449  0.0745
15656W        W31730   6.894   3.617  13.424 -0.1222  0.0198  0.0350
15657W        W31731  14.706  14.396   4.639  0.0458 -0.1362 -0.0021
15658W        W31732   1.809  10.384  14.161 -0.0282  0.0244 -0.0355
15659W        W31733   5.267   5.013   4.341  0.1282  0.2467 -0.2524
15660W        W31734  13.990   9.680   3.620 -0.2447 -0.1347 -0.0937
15661W        W31735   0.755   2.046   0.444  0.1107 -0.0372  0.0726
15662W        W31736   3.012   9.612   2.501  0.0219  0.0602  0.2171
15663W        W31737   1.689  16.392   1.125 -0.0365 -0.0048  0.4514
15664W        W31738   1.866  15.651   1.890  0.4088  0.0888  0.1325
15665W        W31739  11.522   7.194  15.653  0.2629 -0.1165  0.2699
15666W        W31740  13.189   9.499   3.688  0.0866 -0.3445  0.2385
15667W        W31741  16.637   5.840   1.996  0.0689  0.0741 -0.1188
15668W        W31742  13.002   1.676   9.795 -0.1016 -0.1382 -0.0342
15669W        W31743  15.984   0.591   4.992  0.3583 -0.0511 -0.0705
15670W        W31744   8.751  16.140   0.196  0.2885 -0.2662 -0.2624
15671W        W31745  13.121   1.016   2.108  0.0909  0.1842 -0.2312
15672W        W31746   9.086   2.395  14.671 -0.0724 -0.1674  0.0600
15673W        W31747   5.559  15.795   5.594  0.1508 -0.0396  0.1346
15674W        W31748  16.772   3.539   1.989 -0.2967  0.0218  0.0541
15675W        W31749  13.933  16.271  12.629  0.1344 -0.1415 -0.0923
15676W        W31750   9.048  15.195   3.211 -0.2458  0.0718 -0.2980
15677W        W31751  12.691   8.962   5.697 -0.0651 -0.0609 -0.0831
15678W        W31752  10.583   7.739   0.287  0.2063  0.1328  0.1588
15679W        W31753  14.245  17.818  12.191 -0.1779  0.0556  0.0158
15680W        W31754  14.967  17.148   3.278 -0.0486  0.0982  0.0568
15681W        W31755   3.045   0.665  11.491 -0.3196 -0.2727  0.0865
15682W        W31756  15.587   5.524  13.949  0.0444 -0.4000 -0.2378
15683W        W31757  12.728  17.481   5.757 -0.1427 -0.2716 -0.4850
15684W        W31758   4.957  15.908  12.212 -0.0376 -0.2360  0.1116
15685W        W31759   5.092   9.655  13.439 -0.1616  0.1672  0.0832
15686W        W31760  10.282   5.635  13.076 -0.1294 -0.0127 -0.0977
15687W        W31761   1.932  14.940   0.832  0.1830 -0.0895 -0.0671
15688W        W31762  14.181   7.583  14.929  0.0307  0.3931  0.1134
15689W        W31763  13.595  14.734  14.469 -0.2968 -0.1124 -0.2857
15690W        W31764  12.015   0.271   2.720 -0.0234 -0.1017 -0.1942
15691W        W31765  16.919   8.728   2.599  0.0174  0.1057  0.3107
15692W        W31766   2.585  10.984  12.114 -0.2542  0.3037 -0.0178
15693W        W31767   9.261  18.294  13.312 -0.3707  0.1003  0.0211
15694W        W31768   6.181  18.128   2.975  0.1332  0.0098 -0.1682
15695W        W31769  17.285  14.480  13.553 -0.3948 -0.0791  0.0870
15696W        W31770  17.179   8.833  13.828  0.1257 -0.1011 -0.0784
15697W        W31771   1.351   6.519   1.818 -0.0700 -0.3568 -0.0480
15698W        W31772  14.350  16.753  10.819  0.1429  0.1444  0.1726
15699W        W31773   3.615   6.479  11.547  0.2078  0.0479 -0.0092
15700W        W31774  11.861   2.018   4.524  0.1741 -0.5832 -0.4205
15701W        W31775   5.187   2.125   3.445  0.3143  0.1871 -0.2205
15702W        W31776  17.570  12.354  13.021 -0.2544  0.1628  0.2219
15703W        W31777  10.470  11.168  11.335 -0.0161 -0.1333 -0.1829
15704W        W31778   8.013   8.480  11.150 -0.1345  0.1585  0.1656
15705W        W31779   6.421   7.017   0.288  0.1145  0.0673 -0.1612
15706W        W31780   6.357   0.049   4.706  0.1214 -0.3322 -0.3061
15707W        W31781   9.891   9.317   2.706  0.1442  0.1059  0.1183
15708W        W31782  12.027   7.927   4.062  0.1071 -0.4767  0.0074
15709W        W31783   0.142   3.293   0.330  0.1237 -0.0596  0.1990
15710W        W31784  12.476   4.927  13.892 -0.1772 -0.3417 -0.0771
15711W        W31785   0.490   6.115  13.114 -0.0222 -0.4750 -0.1089
15712W        W31786  14.513   9.827   1.230  0.0663 -0.0420  0.6033
15713W        W31787   0.548   3.805   5.560 -0.2503  0.1062  0.0747
15714W        W31788   0.163  11.179  12.262 -0.0310 -0.0492 -0.3002
15715W        W31789  11.220   9.395   4.621  0.3090  0.3160 -0.1362
15716W        W31790   7.379  10.773   4.493 -0.2018 -0.1333  0.0368
15717W        W31791  14.531   3.345   0.590 -0.1124 -0.0490  0.0065
15718W        W31792   7.638  10.901  14.608  0.0903 -0.0399 -0.1143
15719W        W31793   3.511  18.366   1.334  0.1646  0.2331 -0.0505
15720W        W31794   6.914   5.825  11.996  0.5035 -0.1289 -0.1377
15721W        W31795  17.643   7.594   0.060 -0.0961 -0.0576 -0.0689
15722W        W31796  11.157  15.795   0.991  0.1684  0.3053  0.0689
15723W        W31797   7.405   5.571   0.094  0.1235  0.1118 -0.2878
15724W        W31798  16.751   5.984   2.692 -0.1929  0.1795 -0.0851
15725W        W31799  18.299  13.118   0.519  0.0928 -0.1439 -0.2636
15726W        W31800  15.646   2.504  14.292  0.1279 -0.1662 -0.2240
15727W        W31801  12.959   7.435   2.024 -0.0289 -0.0253 -0.1693
15728W        W31802   6.853   8.707   1.549 -0.1070 -0.0012 -0.0478
15729W        W31803   5.821  11.940  12.970  0.6183  0.1288  0.0091
15730W        W31804  18.130  11.024  12.135  0.0165  0.0372  0.0972
15731W        W31805  18.056  14.163   3.548 -0.0783  0.0498 -0.1481
15732W        W31806   9.662  18.549   1.824 -0.1143  0.3819 -0.1009
15733W        W31807   0.476  17.648  11.364  0.0492  0.1498  0.2250
15734W        W31808  12.806   0.892  14.283 -0.2273  0.0745 -0.2518
15735W        W31809   0.119  18.507   0.254 -0.1563  0.1292 -0.0913
15736W        W31810   2.900   6.214  13.096 -0.0378  0.0472  0.3113
15737W        W31811   5.275  14.616   0.164 -0.1182  0.0497  0.0236
15738W        W31812   2.586   0.554   5.045  0.0778  0.0432  0.0789
15739W        W31813  13.712   3.956  11.744  0.2554  0.2963 -0.2081
15740W        W31814  11.265   0.652  15.292  0.4743 -0.4316 -0.0583
15741W        W31815   6.319   7.086   2.902 -0.1386  0.1972  0.4220
15742W        W31816  12.595   1.366  14.387 -0.2507  0.2241  0.0608
15743W        W31817   5.527   7.868   4.839  0.0883 -0.3920 -0.2640
15744W        W31818   0.090  17.633  15.217  0.4109  0.3170  0.0689
15745W        W31819  12.989   9.060  10.981 -0.3337  0.1191  0.1266
15746W        W31820   7.608  18.121  11.742  0.4002 -0.0708  0.0043
15747W        W31821  13.330   8.681   2.832  0.0304 -0.0029 -0.0761
15748W        W31822  15.524  15.815  14.673 -0.0908 -0.1937  0.2280
15749W        W31823   6.478  16.812  12.625 -0.0405 -0.0140 -0.0680
15750W        W31824   6.402   9.603  13.694  0.3278 -0.1551 -0.0704
15751W        W31825   8.350   4.532  15.113 -0.0525 -0.3336 -0.0636
15752W        W31826   9.794   8.887   1.896 -0.2125 -0.1221  0.2248
15753W        W31827  11.533   2.908   4.299  0.1313  0.0462 -0.1224
15754W        W31828  14.462  11.884  14.588 -0.1435 -0.1030  0.3945
15755W        W31829  15.817   6.015   3.473  0.0659 -0.1680 -0.1533
15756W        W31830  17.077   7.606   1.170  0.0239 -0.1322  0.0105
15757W        W31831   0.580   4.726  12.358 -0.3379  0.2569 -0.2553
15758W        W31832  14.788   2.915   5.099 -0.5006  0.4031  0.3809
15759W        W31833   4.950  18.131  10.929 -0.2009  0.1156  0.0290
15760W        W31834  16.886   4.336  13.336  0.0387 -0.0333  0.2121
15761W        W31835   0.573   6.021   6.238 -0.1305 -0.0671 -0.4310
15762W        W31836   0.786   6.983   1.387  0.1460  0.2198  0.2062
15763W        W31837   4.776   8.121  13.218  0.0338 -0.1779  0.0237
15764W        W31838   9.085  17.912   1.093  0.0536  0.0121 -0.4111
15765W        W31839  12.696   6.047  15.160 -0.0067  0.3260 -0.1762
15766W        W31840  17.169  16.086  12.600  0.2766  0.0407 -0.0952
15767W        W31841  15.069  14.946  13.898  0.0673  0.0336 -0.1083
15768W        W31842   0.940  11.179  15.706  0.0297  0.1843  0.1583
15769W        W31843   3.884  15.808   4.577  0.3476 -0.0833 -0.1927
15770W        W31844   3.327  12.503   2.388 -0.1315  0.1707  0.2994
15771W        W31845  17.236  17.378   4.418 -0.0552  0.1000  0.3313
15772W        W31846  11.080  10.391  14.050 -0.0387 -0.3819 -0.0640
15773W        W31847   7.799  12.486   4.097 -0.0025 -0.2870 -0.5868
15774W        W31848   8.318   7.715  11.733  0.0904 -0.0218  0.3836
15775W        W31849   3.611  16.379   4.568  0.1095  0.0972 -0.0442
15776W        W31850  10.200  15.738  15.174  0.1560  0.1770  0.4002
15777W        W31851  13.162   1.910   0.834  0.0011 -0.0438 -0.3318
15778W        W31852  11.918   1.601   2.939  0.1399  0.2066  0.0045
15779W        W31853   9.692  15.607  16.017 -0.1099 -0.1805 -0.2432
15780W        W31854   0.401   5.237   0.348 -0.1480  0.0979 -0.2576
15781W        W31855  17.963  11.276   0.514 -0.0523  0.0594 -0.0085
15782W        W31856  15.941  17.241  14.245 -0.2472 -0.2241 -0.1365
15783W        W31857  15.133  11.846   3.762  0.3579 -0.0181  0.2774
15784W        W31858   2.806  12.022  14.332 -0.1206 -0.1163 -0.1907
15785W        W31859   4.265   8.983   5.003 -0.2656  0.1158  0.0826
15786W        W31860   4.862   2.609   3.734  0.0135  0.2004 -0.1426
15787W        W31861   5.280   8.573   2.796  0.0052 -0.0339 -0.3844
15788W        W31862  18.507  13.122  14.514 -0.0788  0.0846 -0.0858
15789W        W31863  11.292  14.538  15.454 -0.0786 -0.2454  0.2457
15790W        W31864   3.510  17.609  11.528 -0.0518  0.2484  0.3055
15791W        W31865  15.410   5.885   3.813 -0.0149 -0.0285  0.0112
15792W        W31866  16.997   8.877  14.886 -0.1935  0.1328  0.0384
15793W        W31867  11.180  16.205   3.107  0.1914  0.2848  0.0217
15794W        W31868   8.761  15.481  13.173 -0.1072 -0.1844 -0.1992
15795W        W31869  18.163  10.266   1.489  0.1584 -0.1835  0.2534
15796W        W31870   3.041   9.655  15.400  0.2120  0.0218  0.3898
15797W        W31871  14.692  16.706   3.202 -0.1155 -0.0149  0.0783
15798W        W31872  12.437   8.550  14.912 -0.0911  0.3398 -0.2436
15799W        W31873   9.529  13.429   1.710 -0.2257 -0.0659 -0.1318
15800W        W31874  11.950   3.662   3.166  0.0622  0.1763  0.2002
15801W        W31875  16.429  10.536  15.197  0.1972  0.0036 -0.1715
15802W        W31876  17.446   7.744  11.370  0.3913  0.3886  0.4823
15803W        W31877   0.032   5.540   5.035 -0.1878 -0.1479 -0.0625
15804W        W31878   4.550  12.256  13.669 -0.2856  0.0399 -0.0098
15805W        W31879  10.311   8.971  11.258 -0.3581  0.1775 -0.0620
15806W        W31880   8.558  10.723   0.465  0.3682 -0.0059  0.0700
15807W        W31881   0.464   6.622  15.099 -0.2552 -0.1774 -0.2534
15808W        W31882  14.303   0.233  15.183 -0.0726 -0.4504  0.2075
15809W        W31883   8.260   3.356  11.042 -0.0528 -0.0659  0.1161
15810W        W31884  18.380   2.917   1.470 -0.1207  0.2849 -0.0522
15811W        W31885   1.220  14.950   3.973 -0.0048  0.0732  0.0405
15812W        W31886   4.527  14.882  10.220 -0.0137 -0.0404  0.0760
15813W        W31887  10.858  11.771  10.565  0.1648  0.0762 -0.2827
15814W        W31888  17.567   3.695   4.938 -0.1549 -0.1444  0.1683
15815W        W31889  15.581   8.732   0.483  0.1134  0.0530  0.0548
15816W        W31890   5.985   6.933   5.458  0.1624 -0.2073  0.1456
15817W        W31891   6.738   2.978  14.661 -0.1300 -0.0669  0.1263
15818W        W31892   0.581   3.206  15.742  0.1348 -0.0302 -0.1041
15819W        W31893   2.584   0.403   3.093  0.0347 -0.1375  0.0474
15820W        W31894  11.716  16.454   3.012 -0.3041  0.1398  0.2532
15821W        W31895   6.138  15.020  15.422 -0.0074  0.1118  0.2265
15822W        W31896   0.076  13.445   3.168  0.1062  0.1983 -0.2538
15823W        W31897   0.696  18.516   3.390  0.1341  0.0397 -0.2401
15824W        W31898   3.632  11.941   3.607 -0.0110 -0.3565 -0.0805
15825W        W31899   4.578   3.744  12.380  0.1610 -0.0457  0.0270
15826W        W31900  12.014   7.509  15.519 -0.1752  0.1640 -0.0913
15827W        W31901   7.261   7.711   5.372 -0.2426 -0.2887 -0.1781
15828W        W31902  13.659   6.825   3.844  0.1445 -0.1721  0.2323
15829W        W31903   1.280   4.752  13.329  0.2082 -0.2568 -0.1358
15830W        W31904  11.652  12.760   0.084  0.0303 -0.0459  0.1393
15831W        W31905  17.691   9.280   3.382 -0.4815 -0.0333 -0.0303
15832W        W31906  12.790   9.106   3.924  0.2310 -0.0313  0.3767
15833W        W31907  14.525  14.428  15.723  0.1163 -0.1072 -0.0432
15834W        W31908   4.032  16.492  13.847  0.1127 -0.1037  0.0719
15835W        W31909  14.803   2.340   2.072 -0.1720  0.1026 -0.0489
15836W        W31910   0.297  14.019   3.826  0.0164  0.1654  0.3053
15837W        W31911  18.274   0.713  14.194  0.2380  0.1622  0.0336
15838W        W31912  15.850   0.658  15.312  0.1159 -0.1381 -0.3893
15839W        W31913   8.381   1.331  12.924  0.1366  0.1058  0.1736
15840W        W31914   1.419  16.821  12.848 -0.0496 -0.1178  0.0111
15841W        W31915   2.167  16.826  11.158 -0.0973 -0.0728 -0.0129
15842W        W31916   7.204   8.098  14.167 -0.2073  0.3797 -0.1355
15843W        W31917   1.698  17.052  14.648 -0.0129 -0.2181 -0.2480
15844W        W31918  16.350   2.645  13.361 -0.1081 -0.0881  0.0974
15845W        W31919  12.563  12.772   3.657 -0.1487 -0.1772  0.1950
15846W        W31920   4.694   9.517   1.860 -0.2311  0.0621  0.0085
15847W        W31921   3.965  12.736  12.637 -0.0600  0.0192  0.0223
15848W        W31922  15.382  12.292   1.103 -0.1270 -0.0068  0.0900
15849W        W31923   5.734   9.294   2.494 -0.1358  0.3848  0.3559
15850W        W31924   8.656  18.433   2.083 -0.0089 -0.1246  0.1081
15851W        W31925  16.370   0.934   4.290  0.0605  0.1314 -0.0818
15852W        W31926  14.614   1.632  15.263  0.0144  0.2486 -0.1480
15853W        W31927   8.478  13.812   0.712 -0.2004 -0.0333  0.0548
15854W        W31928  10.092   5.238   4.008 -0.0485  0.5324 -0.0534
15855W        W31929   5.861  12.849  15.878  0.1670  0.1387 -0.0288
15856W        W31930  17.491  16.672   2.745  0.0821  0.0955 -0.0245
15857W        W31931   0.903  13.816  10.933 -0.1208  0.0415  0.1958
15858W        W31932  14.770   9.930  13.037 -0.1949  0.3038  0.0056
15859W        W31933   1.515  18.233  15.323 -0.0524  0.0256  0.0069
15860W        W31934  11.589  17.392   1.432 -0.1756 -0.2952 -0.1517
15861W        W31935  11.556   7.522  15.993 -0.1872  0.2281 -0.0565
15862W        W31936   0.191   1.786  15.398 -0.1503  0.0743  0.5467
15863W        W31937   3.516   8.724   0.765 -0.0742  0.0312  0.0138
15864W        W31938   1.004   9.625  14.261 -0.4365  0.1237  0.1734
15865W        W31939  18.158   4.759   0.860 -0.3228  0.1050 -0.1388
15866W        W31940   6.211  17.263  12.549  0.0179  0.1831  0.0244
15867W        W31941  16.339   5.252   1.240  0.2337  0.3773 -0.1422
15868W        W31942  10.571  11.719   1.075  0.2376  0.2042  0.3326
15869W        W31943  18.397  17.091  13.757  0.0673  0.0428  0.1909
15870W        W31944   9.071   5.874  15.833 -0.0529  0.1195 -0.1019
15871W        W31945   9.748  10.400   0.633  0.0827 -0.2439 -0.3376
15872W        W31946   3.187   6.830  15.009 -0.2421 -0.2674  0.2859
15873W        W31947   4.563   1.533   3.111 -0.2242 -0.1145 -0.0461
15874W        W31948  15.783  16.440   0.027 -0.2120 -0.2046  0.1712
15875W        W31949  10.418   7.270   2.312 -0.0563 -0.2452  0.0090
15876W        W31950   5.809  16.568   1.590  0.0908 -0.2321 -0.5000
15877W        W31951   9.354  17.459  14.476  0.4379  0.0186 -0.0896
15878W        W31952   3.289  11.031  11.567 -0.1519  0.3916  0.0889
15879W        W31953   4.073   6.656  11.680  0.0487  0.5020  0.2356
15880W        W31954   6.028  13.075   1.991 -0.0733  0.1559 -0.1625
15881W        W31955  17.437   7.515   5.470  0.3752  0.4545  0.1396
15882W        W31956   1.158   0.193  15.899 -0.4172  0.2171 -0.0865
15883W        W31957   6.505  13.711   4.282  0.0465 -0.1898  0.1573
15884W        W31958   1.346   3.791   0.704  0.1755  0.1740  0.0750
15885W        W31959  15.904  16.443   4.695 -0.0252 -0.3051  0.0431
15886W        W31960  13.293  14.632  11.727 -0.0224 -0.5911 -0.1341
15887W        W31961  11.689   3.667   0.362  0.2076  0.0916 -0.0060
15888W        W31962  11.752  16.368  13.802  0.2735  0.0855  0.0348
15889W        W31963   1.159   3.051  12.643 -0.3882 -0.1990  0.0984
15890W        W31964  11.239  10.749   4.174  0.0487 -0.2337  0.2047
15891W        W31965  14.376  11.263   2.600  0.1026  0.1043 -0.4807
15892W        W31966  11.713   4.736   5.384 -0.0164 -0.1071 -0.2962
15893W        W31967  10.904   0.619  11.568 -0.2298 -0.0343 -0.1495
15894W        W31968  11.749   6.251   2.398  0.1125  0.0535 -0.2208
15895W        W31969  16.468   2.457   2.776 -0.0284  0.0664  0.0943
15896W        W31970   7.422  17.336  13.900  0.2361 -0.0060 -0.2862
15897W        W31971   9.830   2.775   3.201  0.1813  0.0528  0.0696
15898W        W31972   6.361   9.768   3.435 -0.2141 -0.0937 -0.1741
15899W        W31973   7.201   4.774   6.050  0.0718  0.0025  0.0625
15900W        W31974  17.467   7.755   0.816  0.0322  0.0133 -0.1575
15901W        W31975   3.233  14.227  15.366 -0.1689 -0.4270  0.1767
15902W        W31976   1.076   2.143  15.174 -0.6031 -0.1963  0.4428
15903W        W31977   9.430  13.041   3.690  0.0073 -0.3284  0.1372
15904W        W31978   7.883  18.003  15.554 -0.1631  0.2132  0.0484
15905W        W31979  15.055  18.172   1.615  0.2179 -0.2087 -0.3944
15906W        W31980  11.670   9.738   2.555 -0.1434  0.1150 -0.1302
15907W        W31981  15.777   6.830   1.385 -0.0243  0.2140 -0.0218
15908W        W31982   3.983   5.117  11.918 -0.0166 -0.1557  0.4441
15909W        W31983   4.224  13.141   4.595 -0.1218  0.2625 -0.0403
15910W        W31984  13.794  17.863   5.164 -0.1585  0.0086 -0.0185
15911W        W31985  15.061   0.488   1.765 -0.0994 -0.0982  0.0073
15912W        W31986  12.165  12.286  10.670 -0.1746 -0.0271  0.4404
15913W        W31987   1.829  17.934  10.868 -0.3308  0.0526  0.1175
15914W        W31988  12.612  17.368   4.669  0.0043 -0.0440  0.0576
15915W        W31989  16.444   8.254   5.150 -0.0760  0.4700  0.0941
15916W        W31990   6.365   9.987   0.734  0.0060  0.0423  0.2778
15917W        W31991  14.983   5.574   0.886  0.2148 -0.3745 -0.0105
15918W        W31992  16.572   0.188  15.633 -0.0236 -0.0246 -0.2819
15919W        W31993  16.305  13.936  14.310 -0.1997  0.0012  0.0130
15920W        W31994   4.097   0.000   1.589 -0.1855  0.2613  0.0502
15921W        W31995   3.162   6.866   1.848 -0.0236  0.6093  0.0006
15922W        W31996   9.366   0.731  11.482  0.0067  0.1673  0.0212
15923W        W31997  14.763  17.575  14.703  0.1099 -0.2236 -0.0008
15924W        W31998  13.037   0.849   1.387  0.0085 -0.1790  0.1978
15925W        W31999   1.584  12.122   3.779 -0.2747 -0.0410  0.1625
15926W        W32000  12.138   2.047   2.526  0.0052  0.0420 -0.2718
15927W        W32001   9.371  14.063  15.763  0.3168 -0.0083 -0.1351
15928W        W32002  13.233  15.464  10.732 -0.0523 -0.3488  0.2745
15929W        W32003   9.261   6.579   4.714 -0.0474  0.0428 -0.4425
15930W        W32004  12.494   2.844   2.864 -0.2493 -0.3099 -0.2467
15931W        W32005  14.142  11.641  13.149  0.2980  0.1189  0.2750
15932W        W32006  15.750  10.711  12.609 -0.3565 -0.2218  0.0506
15933W        W32007   2.755   5.554  13.736 -0.2772 -0.0381 -0.0375
15934W        W32008   7.563  11.228  13.466  0.2611 -0.0569 -0.0922
15935W        W32009  16.371   1.926   2.832 -0.0781  0.1754  0.0982
15936W        W32010   9.970   0.437   1.799  0.0532  0.2155  0.5966
15937W        W32011  17.372   5.536  15.017  0.1363  0.3000  0.0483
15938W        W32012   9.215   1.234   5.184 -0.0842  0.0577  0.0405
15939W        W32013  12.397  15.552   1.577  0.0019 -0.3054 -0.1180
15940W        W32014  10.345   0.487   2.152  0.2268  0.1058  0.4600
15941W        W32015  16.110  15.214   3.742  0.2381 -0.0234  0.1606
15942W        W32016   3.182   2.757   2.503  0.3497  0.1853  0.2180
15943W        W32017  12.716   6.898   6.108 -0.0967  0.0816 -0.0307
15944W        W32018   5.694   0.469  12.808 -0.0165 -0.1690 -0.1355
15945W        W32019   0.359  13.512   3.712 -0.2655 -0.0323 -0.1327
15946W        W32020  11.564  13.275  14.709  0.0080  0.2938  0.2292
15947W        W32021  12.859   7.835  14.477 -0.1197  0.2751  0.0193
15948W        W32022   0.572   2.128  11.922  0.2991  0.2479  0.3145
15949W        W32023   1.045  11.600   4.153  0.1420  0.1552  0.3331
15950W        W32024  16.669   4.855  12.835 -0.2416 -0.3000 -0.1047
15951W        W32025   6.227   8.722  12.672  0.0168 -0.0011 -0.2534
15952W        W32026  16.720   3.838   2.741  0.1922 -0.0013  0.2296
15953W        W32027   9.949  11.359  14.798 -0.1223  0.3080  0.0872
15954W        W32028   8.382   6.115  13.913  0.0867 -0.0313  0.0524
15955W        W32029   8.697  17.572  11.375  0.0964 -0.3089  0.0660
15956W        W32030  10.858   6.715   5.529 -0.0857  0.2103  0.3768
15957W        W32031   3.709  10.750   4.848  0.3179  0.0603  0.0053
15958W        W32032  15.082   2.031   0.336 -0.1232  0.0728 -0.1130
15959W        W32033   3.939  18.076  15.418 -0.0083  0.2090  0.1463
15960W        W32034  15.054   5.308   2.922 -0.4487 -0.2552  0.2525
15961W        W32035   5.445   5.034   5.914  0.1857  0.0002 -0.0348
15962W        W32036   1.291  16.254  15.096 -0.1283 -0.3040  0.0836
15963W        W32037  18.019   8.178  13.523 -0.1336  0.4811 -0.1009
15964W        W32038   7.094   4.504   2.147 -0.3021 -0.1888  0.1490
15965W        W32039   3.856   9.556  12.350  0.0608  0.1655  0.1733
15966W        W32040  12.542   7.043  11.109 -0.2280 -0.2046  0.1357
15967W        W32041   9.772  13.840  12.673  0.2756 -0.2792  0.1894
15968W        W32042  17.853   9.851   2.901  0.2423 -0.4112  0.1073
15969W        W32043  10.383   0.613  11.422 -0.2220  0.1141  0.2374
15970W        W32044   2.677   2.215  13.296  0.2678 -0.1054 -0.1588
15971W        W32045   6.711   2.102  14.204 -0.0604  0.0623 -0.1633
15972W        W32046   4.952  11.707   1.196  0.2931 -0.0206  0.0528
15973W        W32047  15.376  13.349   2.839  0.4652 -0.2652  0.3757
15974W        W32048   1.903  11.684   1.192  0.1659  0.0285 -0.2375
15975W        W32049   9.753  11.837  12.731  0.3002  0.4152  0.0803
15976W        W32050  12.416  17.407  13.372  0.2772  0.0700 -0.1526
15977W        W32051  12.819   0.780  13.180  0.2161  0.0191 -0.0757
15978W        W32052  10.537   5.764  15.261 -0.2796  0.1339  0.2858
15979W        W32053   8.429   8.136   4.076 -0.2431 -0.0326  0.3340
15980W        W32054  16.236   9.634   3.630  0.1421  0.2911  0.1091
15981W        W32055   5.422  14.589  14.847  0.3302 -0.1779  0.1398
15982W        W32056  10.727   2.274  12.877  0.0743  0.2438 -0.1675
15983W        W32057  13.034  13.423   1.353 -0.3422 -0.2165  0.0139
15984W        W32058   7.923  10.141  14.600  0.0973  0.1550  0.1670
15985W        W32059  16.523  10.418  13.509 -0.1827  0.0981  0.1460
15986W        W32060  16.370  15.276  12.130  0.0792  0.1188 -0.2657
15987W        W32061   4.197   0.329   3.466 -0.1445 -0.0056  0.1754
15988W        W32062   4.952  14.491   0.792 -0.0592 -0.1042 -0.0015
15989W        W32063  16.262   7.427  14.271 -0.1673  0.0352 -0.2626
15990W        W32064   2.748  15.778   1.777 -0.2691 -0.0629 -0.1773
15991W        W32065   2.087   8.283   0.265 -0.0871  0.1592 -0.0091
15992W        W32066  14.775  12.386  15.668 -0.1471  0.2004  0.3180
15993W        W32067   5.775  10.272   4.921  0.0350 -0.0794  0.2192
15994W        W32068  16.584  11.822   1.836  0.1235  0.0659  0.2083
15995W        W32069   9.389   0.309  11.102  0.1112 -0.3604  0.0648
15996W        W32070   5.030  15.563  11.807 -0.0736 -0.0314 -0.0863
15997W        W32071   3.287   8.595  13.714  0.1085  0.3250  0.3216
15998W        W32072  15.638   6.044   0.843 -0.2040  0.1137  0.0906
15999W        W32073   0.918   2.466   2.532  0.1977 -0.2108 -0.3408
16000W        W32074   6.992  16.502  15.038  0.1990 -0.1668  0.2089
16001W        W32075  11.508   7.715  15.455  0.3807  0.1988  0.2210
16002W        W32076   3.466   5.481  12.720  0.1600  0.2610  0.0299
16003W        W32077   0.201  12.725  12.139 -0.2550  0.1363 -0.0390
16004W        W32078  17.384   7.855  15.195 -0.1041 -0.0882 -0.4196
16005W        W32079   1.509   9.202   0.063 -0.0055 -0.0702  0.0643
16006W        W32080   2.253   0.248  11.523 -0.5248  0.1269  0.2167
16007W        W32081  10.832  18.427   1.109  0.1944  0.0491  0.0802
16008W        W32082   6.404   6.344   4.969  0.0874 -0.0928  0.0782
16009W        W32083   4.914   5.279   1.993  0.0923 -0.0078  0.1079
16010W        W32084   8.676   1.956   3.520 -0.0691  0.0277 -0.1463
16011W        W32085   6.685  17.835  13.784  0.0227  0.1150 -0.1319
16012W        W32086   2.111   8.658  10.717 -0.2295  0.1076 -0.1539
16013W        W32087   2.124   1.969  11.983  0.2634  0.1432  0.1055
16014W        W32088  13.455  15.944  14.959  0.0761 -0.1667 -0.1152
16015W        W32089   4.747  11.492  10.884  0.4885 -0.1102  0.2532
16016W        W32090  11.430   9.867   1.864 -0.0822  0.1368  0.2069
16017W        W32091  16.151  10.342   4.761 -0.2075  0.1920 -0.0725
16018W        W32092   4.690   3.976  11.514 -0.0328 -0.1202 -0.0987
16019W        W32093   8.119  11.036   0.335 -0.0125  0.1954 -0.0845
16020W        W32094   0.135  15.747   0.549 -0.3097  0.0371 -0.7239
16021W        W32095   4.603  10.657  14.223  0.0899  0.0196 -0.0580
16022W        W32096  12.026  13.537   5.173 -0.0170  0.2498  0.1079
16023W        W32097  14.299  15.765   3.513  0.0341 -0.0099 -0.1394
16024W        W32098  15.186   5.611  15.275  0.2057  0.0606  0.2693
16025W        W32099   3.811   5.820   5.127 -0.0777 -0.1360  0.1459
16026W        W32100   8.704  10.718   4.436  0.1313 -0.4714  0.1532
16027W        W32101  18.130  13.226   1.539 -0.2819  0.0243  0.2137
16028W        W32102  18.227  11.952  12.326 -0.0083  0.2320  0.3264
16029W        W32103  12.060  14.352  13.323  0.1966 -0.0588  0.0437
16030W        W32104   9.936   9.028  12.675  0.0153 -0.0129 -0.1136
16031W        W32105  17.533   6.504  11.251 -0.1853 -0.1575 -0.0695
16032W        W32106   2.567  14.373   2.977 -0.2528  0.0646  0.0994
16033W        W32107   6.318  15.411   4.492 -0.2071 -0.3470 -0.2663
16034W        W32108   5.582   9.682  13.221  0.0167  0.1290  0.2802
16035W        W32109   0.038  15.253   0.595 -0.0096 -0.0505 -0.0353
16036W        W32110  13.144  18.143  15.316  0.0732  0.3271 -0.0773
16037W        W32111  12.574   8.869   0.944  0.2515  0.0687  0.2492
16038W        W32112  16.062   7.529   5.855  0.1264  0.1043 -0.1865
16039W        W32113   0.462   0.151   5.244 -0.2326 -0.0821 -0.1303
16040W        W32114  11.252   3.338  14.687 -0.1365 -0.1834  0.1223
16041W        W32115   7.160   6.335  15.639 -0.2012 -0.1081 -0.1583
16042W        W32116   6.008  17.450   4.315 -0.1414  0.3680  0.3413
16043W        W32117  14.435   5.916  13.194 -0.1486 -0.0011  0.1152
16044W        W32118   3.076   0.938  13.467 -0.5371 -0.1419 -0.0006
16045W        W32119   4.945  16.582  15.796 -0.0679 -0.1583  0.3250
16046W        W32120  17.426  14.272   2.828 -0.1633 -0.2768  0.0484
16047W        W32121  17.608   3.879  11.617  0.0472 -0.1679  0.1917
16048W        W32122   6.312   9.325  14.951  0.1953  0.0450 -0.1758
16049W        W32123   5.623  10.137  14.738  0.1993  0.3000  0.0219
16050W        W32124  17.318   0.534   0.375 -0.1173  0.0393  0.0364
16051W        W32125   7.581  15.911   4.094 -0.1210 -0.3286  0.1920
16052W        W32126  11.918   6.998  15.326 -0.3735  0.0099 -0.1886
16053W        W32127   9.278   5.712   1.672  0.1670  0.3075  0.2409
16054W        W32128  15.406   1.551   1.499  0.0694  0.1890  0.0900
16055W        W32129  16.603  16.752  13.746 -0.0611  0.1702  0.2919
16056W        W32130   1.086  12.589  14.428 -0.1151  0.0603 -0.1428
16057W        W32131  11.399   5.689  11.763  0.3340 -0.0826 -0.0244
16058W        W32132  11.821  13.421   0.729  0.2539 -0.0617 -0.2730
16059W        W32133   1.972  12.976  12.325 -0.0405  0.0996  0.0390
16060W        W32134   6.487   8.777   4.482 -0.2178 -0.1427 -0.0511
16061W        W32135  18.017   0.113   2.808  0.0410  0.0743  0.0295
16062W        W32136   8.636   6.091  13.411 -0.1956  0.3544  0.0325
16063W        W32137   2.086   0.661  11.336  0.1488  0.0196 -0.3222
16064W        W32138  11.285   5.156  14.957 -0.4118  0.1294 -0.0307
16065W        W32139  11.032  11.474  12.534  0.1667  0.0459  0.0482
16066W        W32140   0.921  14.337  15.829  0.3135 -0.0448 -0.0873
16067W        W32141   3.872   7.000   0.173 -0.0329  0.4166 -0.3299
16068W        W32142  17.043  11.768  14.799 -0.0822 -0.1079 -0.0966
16069W        W32143   5.172  12.342   2.596  0.1576 -0.2018 -0.5333
16070W        W32144   2.394   8.041  13.593 -0.2090 -0.1152  0.2456
16071W        W32145   1.425   6.858   4.279 -0.0920 -0.1163 -0.2009
16072W        W32146   4.961  13.776  15.997  0.1577 -0.1010 -0.0274
16073W        W32147  15.927  10.461  15.115 -0.1905 -0.1347 -0.0172
16074W        W32148   9.044  14.003  12.676  0.1688  0.1067  0.0718
16075W        W32149   0.930  10.336   1.958  0.2567  0.1820 -0.1215
16076W        W32150   1.100  15.845   0.768  0.1978  0.2819 -0.0604
16077W        W32151  10.576  11.677   0.359  0.0303  0.4202  0.0183
16078W        W32152   3.977   8.836   1.912  0.1233  0.2974  0.2333
16079W        W32153  14.059  12.791   0.662  0.2231 -0.0358  0.1744
16080W        W32154   6.711  10.817  14.530  0.0461  0.0544 -0.0765
16081W        W32155  16.679   1.728   1.921  0.2068  0.1049 -0.1135
16082W        W32156   5.426  13.258  15.447 -0.1410  0.0248  0.1089
16083W        W32157  14.983  10.445   4.578  0.2648  0.1292 -0.0529
16084W        W32158   0.096   8.996   3.599  0.0310  0.1167 -0.1186
16085W        W32159   4.093  17.914   0.796 -0.1547 -0.1848  0.2594
16086W        W32160   5.458   0.293  12.303  0.1513 -0.1726 -0.0537
16087W        W32161  14.823   5.804  15.843 -0.1732 -0.0224  0.3492
16088W        W32162  15.347  13.723   4.282  0.1639  0.0286  0.1500
16089W        W32163   3.974  11.898  13.541  0.1342 -0.2350 -0.1479
16090W        W32164   7.367  11.491  15.260  0.1829 -0.1765 -0.0098
16091W        W32165   4.320   8.238  15.647  0.1764  0.1591 -0.0601
16092W        W32166   3.580   5.234  10.963  0.0253 -0.0134 -0.3189
16093W        W32167   4.823   2.806  13.279  0.0700 -0.0276 -0.1914
16094W        W32168   4.537  14.420  14.563  0.0069 -0.1492 -0.0716
16095W        W32169   3.781   8.982   5.929  0.2084  0.1185  0.1014
16096W        W32170   1.640   3.096   0.444  0.0474  0.5795 -0.1527
16097W        W32171   4.464  11.633   2.462  0.0466  0.1740 -0.0506
16098W        W32172   3.854   6.996   2.579  0.1366  0.0405 -0.0729
16099W        W32173  16.924  11.003   3.762 -0.2919  0.0544 -0.0431
16100W        W32174  15.565  17.925   5.101  0.0267 -0.0702  0.0255
16101W        W32175  12.689   5.023   1.110 -0.1233 -0.1641 -0.0107
16102W        W32176   2.218  16.176  15.801  0.0635 -0.1574 -0.0924
16103W        W32177  14.648  10.006  14.116  0.2287  0.0829 -0.0374
16104W        W32178   0.525   1.479  13.112 -0.0662 -0.1158  0.2702
16105W        W32179  14.512   7.644   5.242 -0.0856  0.0359 -0.1293
16106W        W32180  18.476  12.550  14.680 -0.2726  0.0076  0.2725
16107W        W32181  13.136  16.055  12.159 -0.1887  0.0638 -0.0302
16108W        W32182  12.288  10.473   1.430 -0.2126 -0.0967 -0.2874
16109W        W32183   1.824   2.166   4.347 -0.0305  0.4800  0.3103
16110W        W32184   2.784   4.409   4.109  0.1466  0.2194  0.1737
16111W        W32185   6.201   0.240   4.172 -0.1289 -0.3960 -0.0566
16112W        W32186   4.957  12.523   3.034 -0.6458  0.1708  0.2538
16113W        W32187   6.757   6.898  14.604 -0.0405 -0.0440  0.1070
16114W        W32188   3.860   1.893   3.005 -0.1677  0.1497 -0.1117
16115W        W32189  10.878   7.055   0.093 -0.1740 -0.0788  0.4234
16116W        W32190   2.741  12.632  13.665  0.0934  0.0945  0.1521
16117W        W32191  15.250  16.063   5.747  0.1469  0.0445 -0.2751
16118W        W32192  13.557  17.819  12.241 -0.0081  0.2160 -0.1011
16119W        W32193   2.520  16.285   4.650  0.1611 -0.1634  0.1302
16120W        W32194   5.014  13.905   3.530  0.2494 -0.3562  0.3485
16121W        W32195   6.434  10.814  14.948  0.2393  0.0709  0.1700
16122W        W32196   3.785  11.211  14.828 -0.2172  0.1429 -0.3037
16123W        W32197   4.781   8.663   3.786  0.1135  0.1604 -0.1751
16124W        W32198   5.134  12.390   2.038  0.0322 -0.1912  0.3250
16125W        W32199  16.419  14.753  11.951 -0.1784 -0.4235 -0.0457
16126W        W32200  11.581  12.602   2.444  0.0395 -0.0379 -0.2597
16127W        W32201   2.305  16.869  14.624  0.1129 -0.1004  0.0220
16128W        W32202  11.557   1.298   5.349 -0.0778 -0.2230  0.1686
16129W        W32203   6.735  16.275  15.873 -0.3554 -0.2294 -0.0397
16130W        W32204  13.535  12.262  13.090 -0.2829 -0.4967 -0.2738
16131W        W32205  11.034   4.585   2.865  0.2042 -0.1779 -0.3553
16132W        W32206  17.071  15.193  12.187 -0.3029  0.2037  0.1279
16133W        W32207  18.236   0.123  14.061 -0.1218 -0.1603 -0.0934
16134W        W32208  17.956   6.331  11.553  0.1222 -0.1710  0.1157
16135W        W32209  16.276  18.225  11.263 -0.0293  0.1206 -0.1859
16136W        W32210  14.323  14.299   2.059  0.5038  0.2656 -0.0801
16137W        W32211   6.601   3.373   4.440  0.2912 -0.0935  0.2928
16138W        W32212   4.912   0.337   2.669 -0.1185  0.2100  0.0876
16139W        W32213  11.560  11.763   3.944 -0.2010 -0.3383  0.2207
16140W        W32214   2.285   3.522  13.090  0.1961 -0.4253 -0.1372
16141W        W32215   2.918   2.135   0.537 -0.3766 -0.2543  0.2489
16142W        W32216  10.385   5.879  14.231  0.0210  0.2248 -0.2781
16143W        W32217  10.362  13.363  11.695 -0.2967  0.0122  0.0589
16144W        W32218  16.221  15.469  13.646  0.0989  0.0372  0.0788
16145W        W32219   5.406  14.397   1.112  0.3990 -0.0670  0.0830
16146W        W32220   5.003   6.955   5.390  0.0852  0.3888 -0.0137
16147W        W32221   0.819  10.672   5.221 -0.2786  0.3256  0.1986
16148W        W32222  11.363   4.771   1.708 -0.5125  0.0181  0.0501
16149W        W32223   2.218  14.535  13.289  0.0735  0.1668 -0.2035
16150W        W32224   7.495   0.583   2.619 -0.0907 -0.2703 -0.0658
16151W        W32225  14.439  16.762   2.015  0.1861  0.0691  0.0935
16152W        W32226   5.381   8.912  12.932  0.0213  0.0728  0.0361
16153W        W32227   0.833   3.294   5.573  0.2160  0.1096  0.0903
16154W        W32228   5.152  17.317   1.854 -0.0186 -0.1962 -0.1391
16155W        W32229   9.055   4.098   3.869 -0.1539  0.0171  0.1815
16156W        W32230   8.353   9.426  15.780 -0.1942 -0.1007  0.2764
16157W        W32231  11.357   5.930   2.470 -0.0667  0.2116 -0.1128
16158W        W32232  11.861   5.897  14.100 -0.2285  0.0617 -0.1172
16159W        W32233   4.695   5.392   4.188 -0.1085  0.2296  0.1121
16160W        W32234   7.890   1.394   0.237  0.1336  0.0739 -0.3754
16161W        W32235   5.013   0.135   4.179 -0.0659 -0.5875 -0.0284
16162W        W32236   9.678  15.754  11.028 -0.0316  0.0578  0.1729
16163W        W32237  16.117   5.200   4.117  0.0569 -0.0206  0.1058
16164W        W32238  16.558   3.986  13.144 -0.1838  0.0369 -0.3662
16165W        W32239  18.072   2.828  11.400 -0.1095  0.1487  0.0423
16166W        W32240   3.697  11.896  12.031 -0.1671  0.3139  0.1804
16167W        W32241  17.675   4.730   1.382  0.0993  0.0195 -0.0554
16168W        W32242   8.715  18.105   0.131  0.0618 -0.1932  0.1214
16169W        W32243   1.309  13.313   5.792 -0.0298  0.0021  0.1229
16170W        W32244  11.624   3.724  14.138  0.0888  0.1415  0.1800
16171W        W32245  11.349   0.032   1.057  0.4894 -0.1009 -0.1957
16172W        W32246  12.890  16.795  10.733 -0.0554  0.2685 -0.0136
16173W        W32247  15.779  13.816   2.778  0.3904  0.1677 -0.1854
16174W        W32248   9.535  13.543  13.402  0.2961  0.1213 -0.2377
16175W        W32249  14.031   8.493  15.753  0.0399 -0.0682  0.1104
16176W        W32250   5.721   5.716  14.519  0.1544  0.1149  0.0009
16177W        W32251  15.002   1.224  15.369  0.1475 -0.0562  0.2557
16178W        W32252  13.521   0.988   2.422 -0.0406 -0.2458 -0.0598
16179W        W32253   4.168   9.205  12.556  0.1050 -0.2537  0.1414
16180W        W32254  11.115   2.021  14.394  0.1421 -0.1289  0.0674
16181W        W32255   1.629   4.093   5.331  0.0978  0.3388 -0.1031
16182W        W32256   4.470   0.346   6.004  0.1341 -0.0109 -0.1640
16183W        W32257   7.958   6.361  14.077 -0.1273  0.0885 -0.0485
16184W        W32258   5.232  14.806  10.975 -0.0102  0.0586  0.0270
16185W        W32259   6.626   4.398   2.854 -0.1863 -0.0053 -0.0610
16186W        W32260   8.678   6.101   4.770 -0.0921  0.1062 -0.0613
16187W        W32261   2.245   2.645   4.827  0.3215 -0.2651 -0.2633
16188W        W32262   0.824   3.026   5.123 -0.2493  0.0108 -0.0394
16189W        W32263   1.313  16.803   1.836  0.0384 -0.1625 -0.2466
16190W        W32264   6.645  16.376   2.976  0.1521 -0.4055 -0.0660
16191W        W32265  15.140   6.284   2.051  0.0459 -0.1200  0.0887
16192W        W32266   3.270  15.636   1.763  0.0865  0.3256 -0.2004
16193W        W32267   5.477  14.247  14.292  0.2722  0.3056 -0.2986
16194W        W32268  12.251   4.025  15.090 -0.0825 -0.3028 -0.1859
16195W        W32269  16.850   4.547  12.017  0.1432 -0.0266  0.1622
16196W        W32270  11.811  13.220  12.281  0.1482  0.0343 -0.3065
16197W        W32271   1.358   5.303  12.234 -0.0361 -0.2393 -0.1194
16198W        W32272   0.408  11.183  15.250 -0.2314  0.1775  0.2650
16199W        W32273   4.150   1.228   5.551 -0.0469  0.1483  0.2294
16200W        W32274  14.867  11.116  12.729 -0.0684 -0.2424  0.2279
16201W        W32275  11.943   9.124  14.969  0.2865  0.0165  0.0085
16202W        W32276   3.018  11.084  13.001  0.4642  0.1669  0.1121
16203W        W32277  15.154  15.654   0.757 -0.2013  0.1010  0.3136
16204W        W32278  17.047   6.925   0.296  0.1455 -0.0028  0.0006
16205W        W32279  13.747  11.547   1.442 -0.0659 -0.0772  0.0129
16206W        W32280   3.692   2.644  14.588 -0.0209  0.0064  0.2212
16207W        W32281   6.327   2.027   2.604 -0.2484 -0.1244  0.1470
16208W        W32282  12.869  11.318   5.035 -0.0859  0.1425  0.2676
16209W        W32283  13.246  12.888  11.596  0.1029 -0.0140 -0.0637
16210W        W32284   6.019  12.529   0.790 -0.1156  0.0587 -0.4070
16211W        W32285  17.713   1.665  12.021  0.2175  0.0516  0.2202
16212W        W32286   2.726   2.368   5.234 -0.1853  0.0126  0.0596
16213W        W32287   7.472   1.748  12.396  0.1015  0.2246 -0.0310
16214W        W32288   0.569   9.902  14.290 -0.0427 -0.2354 -0.0975
16215W        W32289   4.654  11.335   4.601 -0.0451  0.1126  0.1340
16216W        W32290  13.315   1.945   1.287 -0.1685  0.1444 -0.2494
16217W        W32291   9.820  13.608   4.878 -0.0334  0.0684 -0.1241
16218W        W32292  10.929   9.067  15.397 -0.1753 -0.0420  0.0833
16219W        W32293  10.599   0.420  14.019 -0.4585 -0.1107  0.2673
16220W        W32294  15.674  12.025  11.941  0.1592 -0.3476 -0.5982
16221W        W32295  10.648   1.681   2.376  0.0550 -0.2519  0.0737
16222W        W32296   2.301   0.746  10.864 -0.2697 -0.4901 -0.0184
16223W        W32297   9.140  15.321   4.566 -0.3042  0.3537 -0.0204
16224W        W32298  11.076  12.108  15.002 -0.2203 -0.0579  0.1503
16225W        W32299   1.606   2.879  11.876  0.2436 -0.2952  0.0516
16226W        W32300  18.100  13.388   5.247  0.0729  0.1412  0.2112
16227W        W32301   1.718  13.266   3.749 -0.1343  0.1224 -0.0707
16228W        W32302  17.862  15.743   2.078  0.4078 -0.1291  0.1664
16229W        W32303  14.508  12.689  11.561  0.0800  0.0609 -0.0503
16230W        W32304  12.112  12.001   3.129  0.2191 -0.0112 -0.1481
16231W        W32305   3.769   9.470   4.274 -0.0117  0.0253  0.0241
16232W        W32306   0.235  14.545  12.475  0.1400 -0.0760  0.2265
16233W        W32307   1.812   1.650  15.955  0.0807  0.0631  0.1361
16234W        W32308   5.536  13.979   4.675  0.4297 -0.1851 -0.3171
16235W        W32309   1.584  18.506   3.451 -0.2024  0.1908  0.1933
16236W        W32310   1.665   5.592  13.589  0.2521 -0.0277 -0.1676
16237W        W32311  15.277   0.176   2.063 -0.4001 -0.2933  0.0652
16238W        W32312  13.288   5.835  15.650  0.1001  0.2892 -0.0469
16239W        W32313  12.807  11.490  13.145  0.0726 -0.0994  0.0668
16240W        W32314   7.917   5.995   4.302  0.0943 -0.0134  0.2735
16241W        W32315  17.662   3.277   2.963  0.1896 -0.1521 -0.1994
16242W        W32316  13.610   0.178  12.693  0.1691 -0.1884 -0.2102
16243W        W32317  10.484   7.826  14.567  0.1151  0.2773 -0.1389
16244W        W32318  15.442  16.723   0.669  0.2608 -0.3955 -0.0161
16245W        W32319  12.329   3.073   0.994  0.0451 -0.0556  0.0080
16246W        W32320  17.811  11.213  11.813 -0.1487  0.1142 -0.0597
16247W        W32321  15.243  18.176  11.492  0.0018  0.0522 -0.2220
16248W        W32322   4.222  14.506   1.533 -0.0440  0.1487  0.2458
16249W        W32323  10.627   1.485   1.428 -0.1512 -0.0409 -0.2190
16250W        W32324   6.334  16.195   0.783 -0.0798 -0.3727 -0.1568
16251W        W32325   4.562  14.704  11.652 -0.1808 -0.2004  0.1339
16252W        W32326  13.202   1.431   3.508  0.1757  0.1416 -0.0270
16253W        W32327  14.331   0.412   1.053 -0.2706  0.0200  0.0996
16254W        W32328  13.130  12.374   2.293  0.1411  0.1172  0.1275
16255W        W32329  11.044   0.583  14.298  0.1837 -0.1572  0.3067
16256W        W32330   1.103  10.803  14.522  0.0679  0.0700  0.0111
16257W        W32331  15.025  10.021   0.419  0.2348  0.1906 -0.2418
16258W        W32332   6.674  13.365  13.975 -0.1386  0.6146  0.1046
16259W        W32333  16.652  10.703   1.324 -0.1193 -0.1396  0.0666
16260W        W32334   4.386   6.830  15.511 -0.0214  0.0075 -0.3386
16261W        W32335   2.063   0.586  13.132  0.1384  0.0233  0.0839
16262W        W32336   2.667   0.988   3.005  0.3654  0.0773  0.2704
16263W        W32337  14.871   3.023   0.322 -0.0182  0.0969  0.0014
16264W        W32338  16.068  13.129  14.806 -0.2144  0.0410 -0.0963
16265W        W32339  17.259  14.418  15.044 -0.3206 -0.2708  0.0635
16266W        W32340   3.151   9.589  12.949  0.3569 -0.0686 -0.1167
16267W        W32341   3.611   3.418   0.816 -0.0681  0.0294 -0.1055
16268W        W32342   7.325  15.753  12.241 -0.1064  0.0509 -0.0957
16269W        W32343  18.021  14.180   3.042  0.4245 -0.1649 -0.0632
16270W        W32344   7.663  16.927   3.381 -0.2609  0.3359  0.0207
16271W        W32345  11.520  11.088  15.770 -0.0649 -0.1323  0.2327
16272W        W32346   7.402  14.235   1.254 -0.1134  0.2225 -0.0028
16273W        W32347   2.391  11.698   3.115 -0.0139 -0.0315  0.0879
16274W        W32348  16.318   4.106   3.899  0.2434 -0.2667 -0.0995
16275W        W32349   9.370   0.857   2.340 -0.2345  0.1470  0.1576
16276W        W32350   9.966  15.887  13.640 -0.2024 -0.1148 -0.0900
16277W        W32351  12.598   8.127   1.097 -0.2170 -0.3392  0.1668
16278W        W32352   7.898  13.134  12.256 -0.2518  0.2542 -0.2020
16279W        W32353   3.418  13.063   4.814  0.0891  0.0613  0.2709
16280W        W32354   7.118  10.393   2.500 -0.1607 -0.2356 -0.0157
16281W        W32355  14.742  13.539   1.126  0.0995  0.1065  0.0916
16282W        W32356  10.387   8.258   1.155 -0.2894 -0.1205  0.0640
16283W        W32357   8.658  17.320   4.211  0.1142 -0.2258 -0.0123
16284W        W32358  16.173   1.357   1.123  0.1776 -0.0100  0.1659
16285W        W32359   5.967  10.535  14.827  0.0420 -0.0795 -0.0049
16286W        W32360   3.823   7.631   1.753  0.0145 -0.2314  0.1881
16287W        W32361   4.397   9.704  15.320 -0.2224 -0.0022 -0.0710
16288W        W32362   2.164  14.155  11.645  0.1410  0.0283 -0.0158
16289W        W32363  12.569  11.199   0.736 -0.0090  0.1107  0.4412
16290W        W32364   1.105  14.998  11.764  0.0504 -0.1067 -0.1359
16291W        W32365   3.553  15.318   4.247 -0.0162 -0.3529 -0.0863
16292W        W32366   3.939   2.704   3.318  0.0888  0.1545 -0.3376
16293W        W32367   8.414   2.513  14.883  0.1782 -0.0239  0.4875
16294W        W32368   0.687   5.135  10.499  0.1022  0.2302 -0.1665
16295W        W32369  17.174   9.890   2.096 -0.1647 -0.2755  0.1012
16296W        W32370  15.122  13.108   2.483 -0.0484  0.0234 -0.0763
16297W        W32371   2.152  15.244   3.557 -0.0899 -0.2517  0.1357
16298W        W32372  12.372  15.244  13.278 -0.1696  0.0549  0.0667
16299W        W32373   0.692   3.649  15.462  0.4347 -0.1405 -0.2058
16300W        W32374   5.721   8.016  15.594 -0.0987 -0.0360 -0.4006
16301W        W32375   5.607   2.339  14.601 -0.0098 -0.0976 -0.0437
16302W        W32376   6.468  11.482   2.247 -0.2309  0.1312  0.4285
16303W        W32377  12.185   7.916   2.699 -0.0596  0.1844  0.0459
16304W        W32378  16.865  17.970  13.125 -0.1034  0.0898 -0.2050
16305W        W32379  17.302  13.520   2.526 -0.3079  0.2377 -0.0351
16306W        W32380  17.290  13.657   3.073  0.0375 -0.1010 -0.0155
16307W        W32381  10.990  13.185  12.287 -0.0153 -0.0649  0.0287
16308W        W32382  18.032   4.423   5.078  0.2251  0.2150  0.0406
16309W        W32383   1.992  13.657   4.474 -0.2008 -0.3199  0.0096
16310W        W32384   0.004  17.853   1.758 -0.1972 -0.1253  0.1740
16311W        W32385   7.794  12.178   3.639 -0.4929 -0.1611  0.1727
16312W        W32386   0.780   4.578  12.803  0.2544 -0.3247 -0.1589
16313W        W32387  10.812   4.309  13.050  0.3284  0.0731  0.1640
16314W        W32388   0.613   1.096   1.932  0.1624  0.0946  0.1079
16315W        W32389   9.600   4.154  10.198 -0.2732  0.2177 -0.0424
16316W        W32390  10.351  12.780  13.563  0.0091 -0.1314 -0.1356
16317W        W32391   7.733   1.031   4.026 -0.1418  0.2131  0.4186
16318W        W32392   0.628  17.800   1.604 -0.1230 -0.0765 -0.0037
16319W        W32393   5.695   4.714   0.232 -0.1833 -0.1008 -0.0319
16320W        W32394  10.966   5.194   0.653  0.0458  0.1769 -0.1673
16321W        W32395   9.986  13.326   0.184 -0.1212  0.0392  0.0189
16322W        W32396  16.022  12.793   2.319 -0.0870  0.2493 -0.0571
16323W        W32397  16.730  15.003   6.082  0.0481 -0.2730 -0.4695
16324W        W32398   0.021   7.343  11.880  0.4341  0.6477  0.1998
16325W        W32399   2.468  16.880   4.603 -0.0429 -0.2263  0.0073
16326W        W32400  16.679   4.701   1.396  0.0057  0.3835 -0.0002
16327W        W32401   3.711  14.254   4.826 -0.1706  0.0553  0.2996
16328W        W32402  13.480   9.996  14.869 -0.2110 -0.0500  0.0315
16329W        W32403  15.002   6.090  13.919  0.1383  0.0319  0.2229
16330W        W32404  13.890  17.802  12.652 -0.0609  0.3867  0.0458
16331W        W32405  13.817  18.274   4.721  0.2222 -0.3726  0.3356
16332W        W32406   6.857   7.915   3.540  0.1022  0.0680  0.1838
16333W        W32407  13.525  16.861   3.036 -0.3520  0.1044  0.0022
16334W        W32408   8.912  17.231  12.968 -0.0294  0.1865  0.0920
16335W        W32409   6.666  17.604   2.359 -0.0377 -0.1370 -0.0940
16336W        W32410   7.418  16.909  15.736 -0.1170 -0.1858 -0.0256
16337W        W32411   4.127   1.373  12.030 -0.0259 -0.2657 -0.1782
16338W        W32412   8.923   1.143  14.853  0.1196  0.1849 -0.2665
16339W        W32413  18.174  10.324  12.793  0.2777 -0.0353 -0.0657
16340W        W32414  13.829   6.393   2.087 -0.1560  0.0038 -0.6746
16341W        W32415  17.880  12.715   2.525  0.2135  0.1907  0.0153
16342W        W32416   2.690   2.706  15.766 -0.1687  0.2643 -0.1342
16343W        W32417  18.128   9.585   2.576  0.2947 -0.0167  0.1251
16344W        W32418  16.100   1.715  10.573  0.2236 -0.1207 -0.4944
16345W        W32419   6.062  15.539  12.731 -0.0709  0.0332 -0.1559
16346W        W32420   9.859   8.743   4.593 -0.2230 -0.3367 -0.1691
16347W        W32421  15.199  16.768   1.117  0.1754  0.2854  0.4136
16348W        W32422   7.760   9.152   1.473 -0.0412  0.0782  0.0452
16349W        W32423   7.202  16.435   1.055 -0.0938 -0.2081 -0.0626
16350W        W32424   4.131  17.659   1.388 -0.1864  0.0788 -0.1124
16351W        W32425  12.006  10.830   3.253  0.1140  0.0556 -0.0702
16352W        W32426  11.439  11.851   4.430  0.2146  0.1130 -0.0132
16353W        W32427  10.815   3.704   0.679  0.1529  0.2346 -0.2877
16354W        W32428   0.305   8.996   0.683  0.2360 -0.2075  0.2098
16355W        W32429  16.429  13.288   5.117 -0.0563 -0.1257  0.0823
16356W        W32430   4.845  15.219   4.730 -0.0111 -0.0778  0.1118
16357W        W32431   2.184   1.592   0.688  0.0946  0.1858 -0.1490
16358W        W32432   4.289  10.396   3.296  0.0308 -0.3103 -0.2255
16359W        W32433   3.258   8.549  15.340 -0.2521  0.1427  0.0690
16360W        W32434   5.529   3.094   2.236 -0.0292 -0.0465  0.0201
16361W        W32435   2.453   2.254  15.448 -0.2076 -0.1437 -0.3728
16362W        W32436  13.544  17.921   2.920 -0.3031 -0.2240  0.0131
16363W        W32437   9.155   5.991  14.258  0.2193  0.0858  0.3216
16364W        W32438   6.019  14.929   0.746 -0.0013 -0.0422 -0.2512
16365W        W32439  13.046   0.552  14.605 -0.3110  0.0104 -0.0636
16366W        W32440  15.617  18.397   2.399 -0.3578  0.3726  0.4549
16367W        W32441  15.863   2.484  10.579  0.0946 -0.0182  0.2407
16368W        W32442  10.163   4.429  11.302  0.2589  0.3162  0.1459
16369W        W32443   1.561  13.229   1.212 -0.1790  0.0848  0.0486
16370W        W32444  17.849  18.207   2.874  0.0408  0.1096  0.2069
16371W        W32445   9.842  11.450   4.871  0.0424  0.3926 -0.0532
16372W        W32446  10.915   2.221   5.529 -0.1454 -0.1650  0.2420
16373W        W32447   6.737  16.475   5.556  0.0711 -0.0948 -0.1906
16374W        W32448  18.130   1.359   0.587 -0.2352 -0.1857  0.2254
16375W        W32449  13.581  17.299  11.599  0.0027  0.3207 -0.2244
16376W        W32450  14.710   9.157   4.441 -0.1099 -0.3203  0.0506
16377W        W32451   4.627  13.187  13.123  0.2997 -0.2181 -0.0256
16378W        W32452   7.613  15.898  12.619 -0.1594  0.1374  0.2562
16379W        W32453  12.101  18.315   5.850 -0.3267  0.0805  0.1587
16380W        W32454  13.469   6.052  12.580  0.2709  0.0616 -0.1919
16381W        W32455   9.882  10.460  14.878 -0.2215  0.0543 -0.0968
16382W        W32456  16.513   2.170   2.348  0.1143  0.2148  0.0131
16383W        W32457   7.082   3.766   3.392 -0.1145 -0.0766  0.1886
16384W        W32458  11.043   0.552   1.968 -0.3125 -0.0210  0.2776
16385W        W32459   1.474  15.018   0.553 -0.2310  0.1614  0.0489
16386W        W32460   3.514  12.705  12.389  0.0155 -0.2664  0.1602
16387W        W32461  13.041   3.333  11.825 -0.0211  0.1642 -0.1965
16388W        W32462  14.702  16.302   0.891  0.1035 -0.0682  0.2278
16389W        W32463  12.088  10.043  11.137  0.0555  0.3734  0.3499
16390W        W32464  11.086  15.608   2.607  0.3730  0.1114 -0.0172
16391W        W32465  16.689   8.495  14.107 -0.1112 -0.1008  0.2720
16392W        W32466   0.841   5.959  15.603 -0.3426  0.2270  0.3121
16393W        W32467  12.678   6.624  12.642 -0.1228 -0.2011 -0.1682
16394W        W32468   1.013  13.486  11.760 -0.1441 -0.0420  0.1528
16395W        W32469  17.179   9.970  12.141  0.1600  0.2178  0.0429
16396W        W32470  10.434  11.814  14.264  0.1883 -0.3677 -0.1293
16397W        W32471  13.257   5.163   1.186 -0.3672 -0.2660  0.0816
16398W        W32472  17.203   1.513   4.860 -0.1025  0.0744 -0.0425
16399W        W32473   9.267   6.215  12.889  0.1030 -0.1649 -0.0365
16400W        W32474  12.662   8.772   1.724 -0.1307 -0.1898 -0.1628
16401W        W32475   5.024  18.151   3.012  0.0490  0.1314  0.0394
16402W        W32476  12.984  10.956  11.928  0.1227 -0.2581 -0.2744
16403W        W32477  16.430   0.480   0.156 -0.0805  0.2089  0.0737
16404W        W32478   6.049   3.860  11.435 -0.0107  0.2267  0.3459
16405W        W32479   1.091  17.987  14.521 -0.0547 -0.1493  0.1014
16406W        W32480  14.794  17.713  13.528  0.1730  0.1043 -0.0237
16407W        W32481  15.789  17.795   0.040 -0.0456 -0.0552  0.1921
16408W        W32482   3.998   0.889   4.193  0.2496 -0.2935  0.1655
16409W        W32483  17.228   9.098   1.743  0.1350 -0.0131 -0.2363
16410W        W32484   2.682   2.661  15.241 -0.0835 -0.0692 -0.2876
16411W        W32485   3.021   7.726   3.171 -0.3983 -0.0832  0.0443
16412W        W32486   2.925  15.386  11.852 -0.1693  0.0067  0.0737
16413W        W32487  14.314   5.683  11.714  0.3904 -0.0284  0.2220
16414W        W32488  14.005   0.836   0.989 -0.1322  0.0528  0.2383
16415W        W32489   6.640   3.489  14.552  0.0701  0.1350  0.2312
16416W        W32490  17.778  10.118   0.978  0.1196 -0.0230 -0.1460
16417W        W32491  16.390   9.822   0.955  0.1111 -0.0026 -0.2626
16418W        W32492  13.723  13.182   0.051  0.5758 -0.1423  0.0906
16419W        W32493  11.909  18.563  12.233 -0.0571 -0.1001  0.0341
16420W        W32494  15.011   1.953  11.701 -0.3094  0.5853 -0.3091
16421W        W32495   6.006   9.871  13.625 -0.0151  0.1830 -0.1552
16422W        W32496   6.111   1.431  15.568 -0.0287 -0.1178  0.2217
16423W        W32497   6.636   7.923  12.229  0.1078  0.1372  0.2343
16424W        W32498   1.775   0.176   5.443 -0.0734  0.1867 -0.2165
16425W        W32499   9.431  11.039  14.129  0.3536 -0.4352  0.5138
16426W        W32500  17.185  11.918   3.443  0.3253 -0.1635 -0.3531
16427W        W32501  18.098  16.126   3.979  0.3971 -0.2189 -0.4247
16428W        W32502  13.392   8.901  10.661 -0.3155  0.0915 -0.1919
16429W        W32503  14.921   5.487   4.328  0.0811 -0.3678  0.2024
16430W        W32504  16.840   8.798   5.212  0.1336 -0.1859 -0.1810
16431W        W32505  10.283   6.333   0.489 -0.2581 -0.0170  0.1132
16432W        W32506  15.928  15.721   5.224  0.1380 -0.2654 -0.2427
16433W        W32507   1.507  18.539   4.035 -0.4199 -0.1052  0.2912
16434W        W32508   8.653  16.768  11.970 -0.3016  0.1163  0.2245
16435W        W32509  15.511  15.117   5.285 -0.0415  0.3494 -0.0041
16436W        W32510  16.497  10.048  13.133  0.0675  0.1015 -0.0946
16437W        W32511  16.186  15.479   1.326  0.0521  0.1981 -0.0382
16438W        W32512   5.949   8.466  15.430  0.3309  0.1262 -0.2544
16439W        W32513  11.704   0.878   0.688  0.3709  0.0251 -0.0077
16440W        W32514  16.174   0.297   2.408 -0.0168 -0.2620 -0.0765
16441W        W32515  10.159   7.316   5.857 -0.1553 -0.0131  0.0212
16442W        W32516   0.061  17.579  14.716 -0.1743  0.2630 -0.0789
16443W        W32517  18.311   0.072   1.339 -0.0820  0.1070  0.1603
16444W        W32518  13.855  12.282   0.860  0.0694  0.1519 -0.0656
16445W        W32519  13.421   8.990   3.260 -0.0486 -0.1417  0.1043
16446W        W32520  18.381  11.595   1.856 -0.0840 -0.4004  0.0502
16447W        W32521  12.329  16.484   2.661 -0.2924 -0.2354  0.0403
16448W        W32522   8.491  13.191  15.025  0.2818 -0.0955  0.1160
16449W        W32523   5.143   2.725  11.088 -0.0590  0.1702 -0.0005
16450W        W32524  18.201   5.257  12.478 -0.3298 -0.2366  0.0880
16451W        W32525  14.150  14.849  15.525 -0.2763 -0.2462 -0.2343
16452W        W32526   3.884   9.641   0.905 -0.1875 -0.1679  0.3283
16453W        W32527  14.824   0.108   1.457  0.1010 -0.1855 -0.1916
16454W        W32528   4.455  17.476   4.218  0.1829 -0.1836  0.1529
16455W        W32529  17.215  18.102   3.963  0.1638  0.3115  0.1533
16456W        W32530   6.574   7.701   4.162  0.5791  0.1754  0.2110
16457W        W32531  13.405   7.068   3.433  0.1951  0.1144  0.2554
16458W        W32532  14.526   2.140  12.707  0.0199 -0.0764 -0.0036
16459W        W32533   0.238   1.001   1.560 -0.1065  0.1891  0.3187
16460W        W32534   1.910   9.656  12.807  0.1165 -0.2642 -0.0641
16461W        W32535  17.185   9.553   0.292  0.0164 -0.1150 -0.0222
16462W        W32536   5.566   6.475  11.811 -0.0513 -0.3678 -0.0702
16463W        W32537   2.056  18.223  11.307  0.1071  0.0583 -0.0114
16464W        W32538   1.188  14.864  13.375  0.1553 -0.2234  0.1873
16465W        W32539   5.298   9.355   3.990 -0.0594 -0.0174  0.3588
16466W        W32540  10.911   5.250   3.051 -0.0000  0.1385 -0.0452
16467W        W32541  12.532   1.194  11.944 -0.2972  0.2592 -0.1073
16468W        W32542   5.141   1.143  14.681  0.1289 -0.0639  0.3568
16469W        W32543  16.740  15.827  12.763  0.0214  0.0680 -0.0015
16470W        W32544   9.357   3.046   3.655  0.2612  0.0001 -0.1990
16471W        W32545  15.559   2.904  14.734 -0.0837  0.2907  0.2320
16472W        W32546   0.181   9.100   5.571 -0.4348 -0.2010 -0.3153
16473W        W32547  13.071   4.214   2.728  0.1891 -0.0324  0.3513
16474W        W32548   2.707   9.004  11.371 -0.2716  0.1338 -0.0429
16475W        W32549   6.651  11.753  13.999  0.2329  0.2887  0.0471
16476W        W32550  12.356   0.401  10.094 -0.0785  0.0428 -0.0675
16477W        W32551  15.762   3.073   2.091  0.2524  0.1156  0.1630
16478W        W32552   6.845  10.944  13.995  0.1227 -0.2970  0.0917
16479W        W32553  15.129  13.169  13.159 -0.0487  0.0292  0.4061
16480W        W32554   8.440  12.121  12.639 -0.1007  0.0847  0.1821
16481W        W32555   9.481   7.787  14.391 -0.1199  0.1333  0.0468
16482W        W32556  18.285  16.068   3.357 -0.0527 -0.0933 -0.3707
16483W        W32557   3.097   3.860   0.239  0.1283  0.0246  0.1050
16484W        W32558   9.855   2.035   6.206  0.0879  0.1644 -0.0083
16485W        W32559  17.943   4.620  12.007 -0.0203 -0.1284  0.3052
16486W        W32560  15.917  17.398  11.845 -0.1143 -0.1360 -0.2610
16487W        W32561   3.903  14.246   4.172 -0.0174  0.2267 -0.0785
16488W        W32562   0.250   5.709  14.662 -0.0509  0.0222  0.2641
16489W        W32563   4.015   7.698   1.289 -0.1593  0.2187  0.0624
16490W        W32564   7.677  18.497   0.395 -0.0011  0.2024 -0.2271
16491W        W32565  15.636  18.463  13.519 -0.2164  0.0592 -0.0662
16492W        W32566   8.140  16.836   2.544 -0.2224  0.1208 -0.0060
16493W        W32567  13.355   8.797  15.259 -0.0289 -0.2189  0.0805
16494W        W32568   0.783  14.504  13.544 -0.1819 -0.0561 -0.0278
16495W        W32569  14.206  17.248  12.173 -0.0454  0.0449 -0.0239
16496W        W32570   5.595   5.738   2.493 -0.0946  0.0174  0.1653
16497W        W32571   1.495   5.620   2.043  0.1061 -0.0250  0.1865
16498W        W32572  12.608  13.306  14.152 -0.1553  0.0452  0.3710
16499W        W32573  10.032   4.392   3.695  0.1052 -0.2302 -0.1159
16500W        W32574  15.454   0.525   4.800  0.1762 -0.2447  0.0163
16501W        W32575   7.532   7.769   5.834  0.1271 -0.2735  0.1487
16502W        W32576   8.918  10.975  14.130  0.0887  0.4746 -0.0224
16503W        W32577  12.999   9.729  13.716  0.0330  0.1215 -0.1410
16504W        W32578  17.646  14.754   2.191 -0.0159  0.4081  0.1391
16505W        W32579  18.372  17.370   3.505  0.1226 -0.1703  0.1872
16506W        W32580  10.739  17.322   0.713  0.0211  0.4517 -0.0310
16507W        W32581  14.034   3.962  14.621 -0.0201  0.0059  0.0274
16508W        W32582  18.197   5.752   4.604  0.2014  0.1903  0.2633
16509W        W32583  15.275   4.712  11.118  0.1616  0.0172  0.0069
16510W        W32584   7.684  13.679   4.777  0.0709 -0.3309 -0.3992
16511W        W32585  11.913  10.945  11.364  0.0605  0.0233 -0.0964
16512W        W32586   8.806   2.066  11.106  0.1990 -0.0156 -0.3055
16513W        W32587   8.519  10.282  14.681  0.2621 -0.1201  0.2839
16514W        W32588  10.689  18.433   1.659 -0.0561 -0.1179 -0.3399
16515W        W32589  15.395   0.711  14.121  0.4000  0.1102 -0.0296
16516W        W32590  16.322   3.249   0.221 -0.4703  0.0795  0.1867
16517W        W32591   6.684   1.114   3.842  0.1636  0.1882 -0.0668
16518W        W32592   9.516   9.274  14.466 -0.0090  0.0623  0.1812
16519W        W32593   4.332   8.937   3.714 -0.2871 -0.0584 -0.0417
16520W        W32594  15.649   4.559  12.417  0.3469 -0.0101  0.2529
16521W        W32595  18.031  14.517   0.656 -0.3932  0.0535 -0.0362
16522W        W32596   0.487  15.437   4.083 -0.0936  0.1451 -0.0690
16523W        W32597   0.851   2.294  15.569 -0.1453 -0.1737 -0.0983
16524W        W32598   7.553   1.785   1.335  0.0517  0.1624 -0.1177
16525W        W32599   5.125   8.277   3.894 -0.1889 -0.0297  0.0063
16526W        W32600  10.352   3.252   2.166 -0.3841  0.2992  0.1247
16527W        W32601   8.862  16.170  11.595  0.2264 -0.1742  0.0309
16528W        W32602  15.899  15.873   0.358  0.4384  0.0339  0.0286
16529W        W32603  15.933   6.530  14.743  0.1900 -0.1470 -0.4066
16530W        W32604   6.972   8.092  13.183  0.0279 -0.0573  0.1846
16531W        W32605  10.741   0.640   1.210  0.0593 -0.1133  0.0093
16532W        W32606   7.988  13.590   0.324  0.2795 -0.1739  0.1543
16533W        W32607   5.055  12.588   4.288 -0.2337  0.1085  0.0562
16534W        W32608  12.229  12.097  15.839 -0.0203  0.1200 -0.2958
16535W        W32609   2.922   9.389   1.154 -0.0876  0.0589 -0.0789
16536W        W32610  15.280  11.163  13.579 -0.5713  0.1784  0.1488
16537W        W32611  10.727   8.000   4.785 -0.1737  0.1485  0.0534
16538W        W32612   4.324   7.319   1.501  0.0447 -0.1629 -0.1489
16539W        W32613   6.665  11.411  15.774  0.3229 -0.1815 -0.3293
16540W        W32614   5.687   5.171  11.580  0.5098  0.2858 -0.2708
16541W        W32615   2.502  10.290   4.965  0.0327  0.0573 -0.2165
16542W        W32616  10.164  13.602   5.294 -0.0540  0.0842  0.0401
16543W        W32617   6.759   6.914   6.078 -0.0806 -0.1806 -0.2781
16544W        W32618   0.146  16.152  13.632 -0.0216 -0.2085 -0.4303
16545W        W32619   1.062   4.813  12.418  0.0194 -0.0466  0.2581
16546W        W32620  18.533  17.239  11.998  0.0002 -0.0992 -0.0560
16547W        W32621  10.756   0.368  13.516 -0.0873  0.3486  0.1046
16548W        W32622   4.864  16.342   3.298  0.1509 -0.0390 -0.0688
16549W        W32623  16.595  12.245  12.481  0.0126 -0.0727 -0.2377
16550W        W32624   9.861  17.321   3.737 -0.1607 -0.1122  0.2185
16551W        W32625   5.813  12.715   3.323  0.0717 -0.1976  0.0178
16552W        W32626   6.864  16.162  12.470  0.0965 -0.0230  0.0226
16553W        W32627   3.557   7.417   0.238  0.1319  0.2822 -0.0708
16554W        W32628  12.778   4.708  14.839  0.2057  0.5170 -0.4168
16555W        W32629  16.013   6.974   5.017 -0.2315 -0.0563  0.1468
16556W        W32630  11.945  12.369   2.717  0.1172 -0.2016  0.0955
16557W        W32631  13.350   6.916  11.567 -0.1297 -0.0896 -0.1324
16558W        W32632  11.418   1.557   1.110 -0.2214 -0.1589  0.5190
16559W        W32633   4.181   3.280   1.432  0.0493 -0.3854 -0.2607
16560W        W32634   2.091   1.575   2.544 -0.1155 -0.0428  0.1761
16561W        W32635   7.524  11.495  14.772  0.3460  0.1433  0.1564
16562W        W32636  18.548  16.460  13.240 -0.1213  0.0001  0.2376
16563W        W32637  11.314   1.650  11.287 -0.1158 -0.1241 -0.1639
16564W        W32638   0.461  14.141  13.691  0.2171  0.2739  0.1060
16565W        W32639   5.801   1.076   2.859  0.0229  0.1436 -0.0797
16566W        W32640  14.249   2.510  14.398  0.0220 -0.1644  0.0903
16567W        W32641  18.072  12.029   3.414 -0.0436 -0.1571  0.2104
16568W        W32642   3.199   6.199  12.341 -0.3594  0.2004  0.1707
16569W        W32643  16.304   2.647   0.779  0.2715 -0.3527 -0.0934
16570W        W32644   0.917   8.272   1.827 -0.0375 -0.1253  0.2773
16571W        W32645   5.090  13.311  15.855  0.2063 -0.1184  0.2057
16572W        W32646  12.725   2.599   4.809 -0.0621  0.2287 -0.0689
16573W        W32647   2.002  13.779   3.112 -0.2543  0.1731 -0.1070
16574W        W32648   6.746  14.131  12.903 -0.5902  0.2640  0.1288
16575W        W32649   8.403   7.007  14.340 -0.1686  0.3437  0.1134
16576W        W32650   9.937  14.050  13.655 -0.1632 -0.1026 -0.0068
16577W        W32651  18.095   8.578  12.355 -0.0425 -0.2201  0.2078
16578W        W32652   2.348  10.167  15.021  0.1687  0.1048 -0.1008
16579W        W32653  11.745   2.651  12.435 -0.1314 -0.0748 -0.0657
16580W        W32654  18.068  12.768  13.960  0.0341 -0.1413  0.0929
16581W        W32655  12.981   0.325  12.852 -0.0214  0.0192  0.4545
16582W        W32656   8.428   8.796   0.861  0.3625 -0.0756  0.0514
16583W        W32657   1.647   3.571  12.919  0.1504  0.0606 -0.2826
16584W        W32658  15.881  16.065  10.679  0.1339 -0.2025  0.2753
16585W        W32659   6.906   5.356   0.120  0.1583 -0.0965 -0.0646
16586W        W32660  13.180   8.617  11.045 -0.0613 -0.0984  0.1173
16587W        W32661   9.409   5.454  12.558  0.3639 -0.0737 -0.0179
16588W        W32662  16.571   3.406  14.625  0.0059 -0.1850  0.1250
16589W        W32663   4.018   3.760   0.000  0.2304  0.3045 -0.2103
16590W        W32664  13.963   6.768  13.639 -0.4054 -0.0845 -0.0134
16591W        W32665  17.094   1.044  13.959 -0.0450  0.1281  0.0548
16592W        W32666  14.195  17.445   0.578 -0.3251  0.0271 -0.1508
16593W        W32667   6.856   2.521   4.263  0.0890  0.0036 -0.0067
16594W        W32668   9.129  17.299  13.444 -0.1262  0.1873  0.0587
16595W        W32669   8.492   0.907  15.567  0.0030  0.0809  0.0331
16596W        W32670  10.817   6.296   2.088 -0.0359  0.1818  0.2023
16597W        W32671   7.508  16.677  12.553  0.3260  0.0254 -0.0661
16598W        W32672  17.172   9.348  14.922  0.0944 -0.0905 -0.0763
16599W        W32673   3.705   5.256   1.176  0.2312 -0.2807 -0.0615
16600W        W32674  18.387   7.145   4.881  0.0989 -0.2172 -0.1311
16601W        W32675   4.326   9.623   1.149 -0.3555  0.0315 -0.0072
16602W        W32676   5.274   6.176   1.534  0.1531 -0.0694 -0.4515
16603W        W32677  18.266   0.838  10.840  0.1070  0.0428 -0.0091
16604W        W32678   0.575   1.361  15.468 -0.1749 -0.1830  0.2230
16605W        W32679   8.710   5.203  13.897 -0.2073  0.0405  0.1266
16606W        W32680  14.056   9.470  14.089  0.0525  0.4248 -0.2042
16607W        W32681   2.754  15.623   0.847 -0.1186 -0.0363  0.0639
16608W        W32682   7.052   9.725  15.836  0.2151 -0.2202 -0.1620
16609W        W32683  11.983  18.366  14.011  0.3116  0.2153  0.0872
16610W        W32684   4.635  12.210   3.302 -0.0049  0.0469 -0.1982
16611W        W32685  11.799  17.064  12.698 -0.0378 -0.0325  0.1808
16612W        W32686  13.176   7.272   4.646 -0.0662 -0.5381  0.1911
16613W        W32687  11.209  16.923   3.580 -0.0293  0.0896  0.3164
16614W        W32688   4.260  16.088   2.765  0.1363  0.1882 -0.0959
16615W        W32689  12.463   7.259   3.294  0.0320 -0.0509 -0.2610
16616W        W32690  10.461  11.866  11.401 -0.1134  0.1716  0.2604
16617W        W32691   3.682   7.682   6.086 -0.0463  0.0088  0.1940
16618W        W32692   9.481  10.846   4.809  0.2732 -0.0606  0.2290
16619W        W32693  10.108  18.242  13.310  0.2871 -0.1570 -0.3605
16620W        W32694   0.591  14.317  12.204 -0.0203  0.0436  0.0620
16621W        W32695  13.420   8.852   5.737  0.1016 -0.0210  0.2937
16622W        W32696  15.356   9.560   4.577  0.0880  0.0605  0.1247
16623W        W32697   1.695   9.319   6.088 -0.2485  0.1274  0.0494
16624W        W32698   0.600   0.097   1.802  0.5326 -0.0958 -0.1419
16625W        W32699   0.588  15.806   1.413  0.2941 -0.1641 -0.1517
16626W        W32700   9.362   1.678   0.814  0.0299  0.0951 -0.2090
16627W        W32701  14.845   5.578   5.763 -0.0269 -0.0173  0.1655
16628W        W32702  12.715   0.917   1.732 -0.1107 -0.0044  0.0901
16629W        W32703   5.778   3.075   4.598  0.4522 -0.0588 -0.0143
16630W        W32704  14.853   2.271   4.176 -0.0679  0.1107  0.2689
16631W        W32705  15.866  13.928  13.380 -0.0253 -0.2089 -0.2365
16632W        W32706   8.608   2.985  13.959 -0.2232  0.0994 -0.1724
16633W        W32707  13.660   2.346   1.174  0.1034  0.2759 -0.3285
16634W        W32708   2.444   7.052  13.357 -0.0200  0.2178 -0.1450
16635W        W32709  16.615  15.202   3.772 -0.1990  0.0981  0.0185
16636W        W32710  13.091   7.550  12.263  0.1105 -0.5094  0.0838
16637W        W32711   6.116  17.424   1.840  0.0261 -0.0357  0.2946
16638W        W32712  12.763   0.964  11.489  0.1651  0.2174 -0.0081
16639W        W32713  11.544   5.597  12.717 -0.3544 -0.1592 -0.1184
16640W        W32714  18.423   8.138   5.247 -0.1043  0.2839 -0.0867
16641W        W32715   2.852   0.556   3.972  0.2188 -0.1864  0.3283
16642W        W32716  11.178  15.053   1.759 -0.0928  0.1000  0.1556
16643W        W32717   7.571   7.146  14.062 -0.0695  0.3585 -0.1785
16644W        W32718   8.824   9.817  14.683 -0.0856 -0.2264  0.2944
16645W        W32719  16.100  11.206  13.032 -0.2499 -0.1161 -0.1541
16646W        W32720   9.019  10.130  15.011  0.0105 -0.2038 -0.2808
16647W        W32721   8.966  14.943   5.977  0.0399  0.0035  0.0621
16648W        W32722  12.015   2.181  11.024  0.2306 -0.1308 -0.2292
16649W        W32723  14.010  14.559  13.272  0.3133  0.3874 -0.1442
16650W        W32724   6.244   1.345  13.799  0.0932  0.0736 -0.2337
16651W        W32725  17.032  12.366  15.950 -0.1031  0.0136 -0.0244
16652W        W32726  15.826   0.771  14.432  0.2161 -0.1254  0.2702
16653W        W32727  11.975  18.068  12.328  0.0285 -0.1149 -0.2624
16654W        W32728   3.390   7.418   5.619  0.0398  0.0891 -0.2569
16655W        W32729  12.547   9.966   2.566  0.0133  0.0727  0.0914
16656W        W32730   7.140  13.369   1.785 -0.0861 -0.1639  0.1230
16657W        W32731   0.842   7.867  11.885  0.2573 -0.0713  0.0525
16658W        W32732  18.262  15.224  14.973  0.2557 -0.3419  0.1257
16659W        W32733   1.104   9.020   3.902 -0.0006  0.0152  0.1443
16660W        W32734   0.328   1.534  10.716  0.0325  0.1915  0.2175
16661W        W32735   4.575   1.046   2.221 -0.1539 -0.3908 -0.1751
16662W        W32736  11.841   8.367   5.254  0.4842  0.2331 -0.0369
16663W        W32737  14.780  10.907   3.858  0.1964 -0.0259 -0.0752
16664W        W32738   8.594   8.892   2.604 -0.2644  0.3354 -0.2520
16665W        W32739   2.725  17.872  15.378 -0.1019  0.1902  0.0043
16666W        W32740  18.468   1.433  11.348 -0.0038 -0.2569  0.0018
16667W        W32741   7.276  15.229   5.163  0.1493  0.0760 -0.1703
16668W        W32742  14.342  10.430  10.023  0.3366 -0.0178 -0.1276
16669W        W32743   2.893  17.446   5.551 -0.0612 -0.1472 -0.0128
16670W        W32744   5.796  18.349  15.247  0.1005  0.0367  0.0491
16671W        W32745  17.991  15.669   1.249  0.3410  0.4606 -0.2384
16672W        W32746  11.484   0.104   0.468 -0.1181  0.1788  0.0866
16673W        W32747   3.849  16.326   3.240  0.1664  0.2176 -0.0812
16674W        W32748   6.220   8.750   0.793 -0.0851  0.1295 -0.2599
16675W        W32749   9.325  12.629   0.614  0.0168  0.1900 -0.0961
16676W        W32750   8.679   8.401   0.573 -0.0624 -0.2919  0.2443
16677W        W32751   9.623  12.640   4.306  0.0485  0.0813 -0.1208
16678W        W32752  17.127   9.718  14.384 -0.1852  0.2544 -0.0643
16679W        W32753  16.891   8.962  12.091 -0.1095 -0.0111 -0.0468
16680W        W32754   1.071   7.198   6.159 -0.2158 -0.1803  0.0881
16681W        W32755  13.981   9.064  10.951 -0.2958  0.0441  0.2378
16682W        W32756   2.162  11.087  15.157 -0.0090  0.0400  0.0776
16683W        W32757  16.104   3.776   1.366  0.3293  0.0028  0.0411
16684W        W32758  12.506   7.037  12.404  0.1440 -0.0323 -0.0645
16685W        W32759   3.888  18.422   3.343  0.1470 -0.1697  0.2428
16686W        W32760  15.154  10.010  14.423 -0.0862  0.2340  0.1648
16687W        W32761   2.900   9.796   5.852 -0.1480  0.0016  0.0529
16688W        W32762  17.360  12.722   3.246 -0.0872 -0.1082  0.1080
16689W        W32763   7.349  11.772  12.659  0.0057 -0.2583  0.3762
16690W        W32764   0.823   0.229   4.161 -0.1589 -0.2628  0.1362
16691W        W32765   4.663  10.236   0.992 -0.1387  0.3138  0.0601
16692W        W32766   4.287  17.709   5.799  0.0577  0.1312 -0.1845
16693W        W32767   1.797  11.622  13.956  0.1746 -0.1414 -0.0354
16694W        W32768  10.892   8.859   5.996 -0.0970  0.2145  0.2324
16695W        W32769  14.998  15.342  15.630 -0.0139  0.1467  0.0016
16696W        W32770   8.145  10.249   2.402  0.0081  0.2117 -0.0771
16697W        W32771  13.433  15.636  15.433  0.1652  0.0444  0.0766
16698W        W32772  15.773   3.561   2.280 -0.2748  0.0102  0.0399
16699W        W32773  13.696  13.261   3.375  0.1407 -0.0402 -0.0208
16700W        W32774   8.158   3.188  12.381 -0.2455 -0.0887 -0.1857
16701W        W32775   5.647   2.108   2.529 -0.2728  0.2116  0.1164
16702W        W32776   1.538   2.944  11.303 -0.0777 -0.1839 -0.0057
16703W        W32777  12.887   1.659  15.858 -0.0444 -0.1284  0.1483
16704W        W32778  12.294   4.240  15.564  0.2271  0.1003 -0.0379
16705W        W32779  12.934  15.463   2.475 -0.2519 -0.1386  0.0980
16706W        W32780   1.806  15.527  11.309  0.0527 -0.0533 -0.2285
16707W        W32781  14.735  15.053   2.878 -0.0873 -0.0340 -0.0643
16708W        W32782  15.001  17.227  15.150 -0.0075 -0.0176 -0.0570
16709W        W32783   2.109  12.998  15.344 -0.1136 -0.3139 -0.0960
16710W        W32784  10.392   3.827  12.010 -0.1576  0.1180 -0.0638
16711W        W32785   0.952  11.441   3.687 -0.0269 -0.0660  0.1653
16712W        W32786  11.247   5.508   2.739 -0.0713 -0.0505 -0.0788
16713W        W32787   9.266   4.262   2.812 -0.1109  0.0925 -0.3200
16714W        W32788  18.026  17.755   0.141  0.2831  0.1933  0.2909
16715W        W32789   4.378  11.103   0.796  0.0748  0.1967 -0.2396
16716W        W32790   8.999   5.488  11.445 -0.0714 -0.2813 -0.0348
16717W        W32791  12.147  17.989   0.847  0.0423  0.1986  0.2308
16718W        W32792  16.050   7.465   5.109 -0.0840  0.0227  0.1215
16719W        W32793   1.196  13.662  13.834  0.2044 -0.4373 -0.2422
16720W        W32794   0.913  10.865   2.510 -0.0914 -0.1647  0.1223
16721W        W32795   7.590  15.193   0.761  0.0172 -0.2667 -0.0469
16722W        W32796   1.666   2.486   3.943  0.2565 -0.2304  0.0846
16723W        W32797   9.240   0.999  12.315  0.3204  0.1817 -0.1507
16724W        W32798   1.870  17.756   3.894 -0.0108  0.0607  0.2046
16725W        W32799   0.206  15.586  14.815  0.0628  0.0218 -0.4854
16726W        W32800  11.028  16.861   2.599  0.2071  0.0467 -0.1301
16727W        W32801  14.564   0.629  14.821 -0.0733 -0.2001 -0.1052
16728W        W32802  12.871  10.477   0.149 -0.4494 -0.2687  0.1881
16729W        W32803   4.968   0.793  11.315 -0.1719 -0.0195  0.2077
16730W        W32804   0.127   1.507  12.170  0.1192  0.4216  0.2800
16731W        W32805   4.545  16.447  11.537 -0.0732  0.1159 -0.2277
16732W        W32806   2.075  11.762  13.586  0.1251 -0.1005 -0.1010
16733W        W32807   5.198  16.065   5.176 -0.2529  0.0862  0.3579
16734W        W32808  18.012   3.514  11.303 -0.1311 -0.2778  0.0324
16735W        W32809   7.779   3.117   3.034 -0.1770 -0.7500 -0.1312
16736W        W32810   1.472   0.057  13.997 -0.0230  0.1205  0.1253
16737W        W32811  10.659   8.000   5.279 -0.2879  0.1118 -0.1242
16738W        W32812   9.366  11.642  11.925 -0.0027  0.0360 -0.0539
16739W        W32813   5.441   3.657  15.396  0.0031  0.1184 -0.0481
16740W        W32814   6.022   1.968  15.489  0.2987  0.0245 -0.0619
16741W        W32815   8.485  12.093  12.162  0.0254  0.0632 -0.2139
16742W        W32816   8.680  14.449  11.824  0.0148 -0.1282  0.0214
16743W        W32817   5.518   1.091  15.506 -0.1538  0.1287  0.1633
16744W        W32818   5.495  11.282  11.176 -0.1529  0.1247 -0.3664
16745W        W32819  16.828  10.795  12.678  0.2100 -0.3287  0.0703
16746W        W32820   8.412  17.509  13.649 -0.0892  0.1845 -0.1735
16747W        W32821   2.866   3.065  15.492 -0.0567  0.1451 -0.2033
16748W        W32822  15.619  11.014   4.242 -0.0004 -0.2573 -0.1962
16749W        W32823   6.797   1.131  12.539  0.0650 -0.3287  0.0214
16750W        W32824   6.237   7.302   0.662 -0.2707 -0.0667  0.1343
16751W        W32825   0.621  12.155  14.486 -0.1437 -0.4249 -0.3253
16752W        W32826  10.104   1.790  15.368 -0.4137 -0.2442  0.0503
16753W        W32827   2.674   0.236   0.569  0.0115  0.0979  0.0176
16754W        W32828  10.401  14.736  15.419  0.2836 -0.0981  0.0741
16755W        W32829   7.095   1.310  15.284 -0.1055 -0.0506  0.1635
16756W        W32830  15.195   6.254  15.990 -0.0146  0.2311  0.1484
16757W        W32831  12.493  15.251  14.668  0.3169 -0.1915 -0.4761
16758W        W32832   7.022   6.048   3.738 -0.0709 -0.2589 -0.0661
16759W        W32833   6.948   8.840   4.803  0.2611 -0.0383 -0.0525
16760W        W32834   3.449   9.149  13.788 -0.0151  0.0498 -0.0990
16761W        W32835  11.570   9.469   5.313 -0.0310  0.1690 -0.2836
16762W        W32836   4.854  11.923   2.550  0.0412  0.0670 -0.2118
16763W        W32837   9.909   5.129  14.648 -0.0499 -0.0396 -0.1436
16764W        W32838   1.121  14.732  15.623 -0.1896  0.3186  0.0530
16765W        W32839  11.421  15.586  12.639  0.0413  0.0568  0.0384
16766W        W32840   2.693   4.134  14.235 -0.1710 -0.3537 -0.1437
16767W        W32841   4.482  10.478   1.462 -0.1210 -0.0731 -0.0586
16768W        W32842  11.852  16.555  12.642  0.0890 -0.1385  0.2259
16769W        W32843   3.609  18.431   1.938  0.0032 -0.2584 -0.3616
16770W        W32844   5.801   5.851   3.976 -0.0962 -0.0461 -0.1148
16771W        W32845  14.153   4.818  12.388 -0.0542 -0.0550 -0.0214
16772W        W32846  11.879   2.360   0.745  0.0298 -0.1744 -0.1766
16773W        W32847  10.351   4.357   2.643 -0.0342  0.1564 -0.1091
16774W        W32848   3.570  10.984   2.312  0.0183 -0.2738 -0.0051
16775W        W32849  10.137   1.067  11.289  0.0140 -0.0568 -0.1624
16776W        W32850   3.260   5.805   1.791 -0.2877 -0.2065 -0.2922
16777W        W32851   9.784  13.010  14.447 -0.3737 -0.1753 -0.4066
16778W        W32852  14.489   6.742  15.635  0.0141  0.0442 -0.1046
16779W        W32853  11.195   4.420   0.325  0.1596  0.0621 -0.1098
16780W        W32854  10.729   9.200   0.622  0.1512 -0.2404 -0.0013
16781W        W32855  14.796   8.538  12.947  0.1890 -0.1811 -0.1718
16782W        W32856   8.856   1.054   4.834  0.1596  0.1172 -0.1467
16783W        W32857  17.121   0.707   1.297  0.0650 -0.0810  0.0485
16784W        W32858   9.964  11.086  15.344 -0.0981  0.3196  0.0770
16785W        W32859   7.409  17.758   0.340  0.0619 -0.1058  0.0992
16786W        W32860   8.520  14.649   5.295 -0.1968  0.1395  0.0196
16787W        W32861   0.649  14.736  14.911 -0.0166 -0.1651  0.0546
16788W        W32862   7.616   4.987   4.114 -0.0993  0.1339 -0.0269
16789W        W32863  10.129   9.404   2.213 -0.0589  0.2131  0.0218
16790W        W32864  12.403  13.168  12.227  0.1162 -0.0552 -0.0396
16791W        W32865  12.231   9.409  12.331 -0.1319 -0.2008 -0.0039
16792W        W32866  12.076  16.613   3.512 -0.0472  0.0970  0.0496
16793W        W32867  13.759  15.288  15.830  0.0526  0.0748  0.0995
16794W        W32868  14.020  11.742  12.704 -0.0047 -0.0269 -0.1816
16795W        W32869  10.793  17.645  14.242  0.0421  0.0669 -0.2058
16796W        W32870   3.513   6.680   3.434 -0.2982  0.2021 -0.1439
16797W        W32871   8.038   6.014  12.522  0.1077  0.3425  0.0825
16798W        W32872   8.806   4.692   2.767 -0.0826  0.1206 -0.0136
16799W        W32873  12.899  13.338  13.698 -0.2330 -0.1604  0.0782
16800W        W32874  12.973   6.345   1.613  0.3331  0.0626 -0.2015
16801W        W32875  18.014   0.179  15.153  0.2786 -0.3442 -0.0045
16802W        W32876  12.501  11.021   3.612  0.1017  0.1096  0.0575
16803W        W32877   5.979   1.833   1.611  0.0210  0.2167  0.2619
16804W        W32878  14.602   7.849  13.784 -0.0795 -0.1267 -0.0092
16805W        W32879  10.596   3.430   3.042 -0.2881  0.2060  0.0153
16806W        W32880   0.488  13.490   4.229  0.0882 -0.1946  0.0363
16807W        W32881  12.123  13.511  14.207 -0.1765  0.0238  0.0620
16808W        W32882   5.266   0.527  15.497 -0.0508  0.2698  0.4021
16809W        W32883  11.374   1.714   5.244 -0.0270 -0.0172  0.0889
16810W        W32884   5.342  10.055   0.442 -0.0141  0.1919  0.0501
16811W        W32885   1.714  17.809   4.885  0.1469 -0.3489  0.1213
16812W        W32886   5.999   9.920  14.959  0.2475  0.0855 -0.1662
16813W        W32887  11.215   0.974  13.426 -0.1059  0.4836  0.1553
16814W        W32888   9.396  16.219   0.073 -0.1606 -0.0306 -0.0338
16815W        W32889   8.810   8.393  13.365 -0.0408  0.1364 -0.0746
16816W        W32890   6.266   6.749  13.833  0.2907  0.2413 -0.0381
16817W        W32891  11.147  12.634  13.499  0.3486  0.0614 -0.1566
16818W        W32892   1.088  13.460  11.286  0.0692 -0.1429  0.1622
16819W        W32893   1.266  12.395  13.452  0.0901  0.0943 -0.1277
16820W        W32894  14.183   3.445  12.896  0.0402 -0.4322  0.0466
16821W        W32895  17.460   6.223   1.908  0.0919 -0.0513 -0.2155
16822W        W32896   0.934  16.296   0.413  0.3211 -0.0388 -0.1164
16823W        W32897   0.983  17.254   3.987  0.0224 -0.0091  0.1675
16824W        W32898   8.011   1.726  11.376 -0.1835 -0.3263  0.0846
16825W        W32899   6.494   1.023  15.643  0.0884  0.4359 -0.0205
16826W        W32900   1.972   1.829   5.126  0.2873 -0.2063  0.1122
16827W        W32901  10.413   9.442  13.005 -0.0144 -0.0893 -0.2402
16828W        W32902   6.790  17.982  14.957  0.1410  0.1553  0.2272
16829W        W32903   9.956  17.645   4.250 -0.1019  0.0480  0.2524
16830W        W32904  14.547  13.658  12.722 -0.1503 -0.0105  0.1476
16831W        W32905  15.828  12.405   4.721 -0.3870 -0.1600  0.0654
16832W        W32906   7.660   9.202  13.427 -0.0408  0.0420  0.2126
16833W        W32907   8.807  18.497  12.586  0.0095 -0.1321 -0.1234
16834W        W32908  12.657   2.867   1.916  0.0012 -0.2031 -0.0761
16835W        W32909   4.147   5.411   3.484 -0.0445  0.2937  0.5488
16836W        W32910   4.013   2.888  10.966  0.0287 -0.1976  0.0670
16837W        W32911   7.206  10.169  11.838 -0.0515  0.1617  0.4156
16838W        W32912  15.519  17.210   1.728  0.2768  0.1865  0.1851
16839W        W32913   8.814   8.777  13.035 -0.1921 -0.1562 -0.1296
16840W        W32914   3.151   2.574  15.635 -0.0862 -0.1469  0.5237
16841W        W32915   7.034   8.774  13.781  0.1578 -0.2101  0.0855
16842W        W32916  13.363  10.463   5.150 -0.1222 -0.0661  0.0091
16843W        W32917   3.482   3.880   0.569  0.0419  0.0146  0.2559
16844W        W32918  16.098  16.764   2.939 -0.1205 -0.2146 -0.0742
16845W        W32919  13.872   6.823  11.524 -0.0323  0.1565  0.3180
16846W        W32920   3.758   3.833   0.995 -0.0042  0.2448 -0.2004
16847W        W32921  11.396   1.633   2.765 -0.2908 -0.0832 -0.2079
16848W        W32922   0.855  13.855   1.116  0.0351 -0.0041  0.0609
16849W        W32923   0.721  16.751  14.767 -0.0069  0.1117  0.0422
16850W        W32924  15.512   8.350   0.809 -0.0380 -0.1525  0.0063
16851W        W32925   2.417   5.168   4.253  0.2093  0.2717  0.1334
16852W        W32926  15.743  13.642  12.449 -0.2718  0.0386  0.1446
16853W        W32927   6.448   9.946  11.436 -0.1101  0.2268 -0.0671
16854W        W32928   9.974  11.919  11.424  0.0079  0.0859  0.0109
16855W        W32929  11.120  15.203   4.051  0.3334 -0.0682  0.0232
16856W        W32930   9.131  12.481  14.225 -0.0827  0.1716 -0.0736
16857W        W32931   7.089  12.473   5.422 -0.2755 -0.1416 -0.1626
16858W        W32932  16.975   7.622  11.331  0.0472 -0.0971  0.0447
16859W        W32933  16.274   5.636  15.967  0.0975  0.2112  0.0439
16860W        W32934  18.506   9.594  11.681 -0.3625 -0.0591 -0.1038
16861W        W32935   6.098   3.516   5.371 -0.2743 -0.1442 -0.1974
16862W        W32936   4.420   1.920  15.500  0.0896  0.0185  0.2726
16863W        W32937   9.665   5.777  13.092  0.0530 -0.2449  0.1310
16864W        W32938   6.852   8.418   4.189  0.2921  0.1073  0.5016
16865W        W32939   4.956   4.080  13.333  0.1209  0.2499  0.2761
16866W        W32940   0.479  12.729   1.013  0.3829 -0.3351 -0.1339
16867W        W32941   3.768   5.394  14.106  0.1647  0.0216  0.1560
16868W        W32942  15.855  17.902  10.991 -0.3791  0.2380  0.0235
16869W        W32943   4.442   9.477   5.018  0.5415 -0.0416 -0.1817
16870W        W32944  17.722   4.677  14.934 -0.2369  0.0327 -0.1118
16871W        W32945   5.574  16.339   1.157 -0.1288 -0.1030  0.3535
16872W        W32946  12.282   5.485   1.585 -0.0318 -0.3225  0.1004
16873W        W32947   4.387   3.302  13.246 -0.0531 -0.3102 -0.0885
16874W        W32948  10.401  12.166   3.782 -0.2295 -0.2143 -0.0134
16875W        W32949   7.489   4.786   1.525 -0.0415 -0.0922  0.1645
16876W        W32950   6.232  18.561  11.415  0.2170 -0.2246 -0.0512
16877W        W32951   8.316   0.612  15.925  0.4121  0.1008  0.0130
16878W        W32952  16.985  16.350  13.920  0.2839  0.4394  0.1759
16879W        W32953   7.210   6.516   3.860  0.0518 -0.1521  0.3342
16880W        W32954   4.736  13.120   2.288 -0.0983  0.0522 -0.2128
16881W        W32955   2.222  13.102  14.818 -0.2473 -0.1827  0.4710
16882W        W32956   9.061   7.801  14.649 -0.0416 -0.1755 -0.3301
16883W        W32957   8.856  14.034  13.733 -0.0931 -0.0830 -0.0177
16884W        W32958  13.947  13.209   4.120 -0.1256 -0.2178 -0.0308
16885W        W32959   1.969   8.503  14.584 -0.0444  0.0751 -0.0808
16886W        W32960   2.871  10.501  15.925 -0.2210  0.0229  0.0045
16887W        W32961   7.398  17.092   1.104  0.0400 -0.0880 -0.4387
16888W        W32962  13.055  10.158   4.582 -0.0680  0.1847  0.4199
16889W        W32963  10.623   3.494  12.561  0.0704 -0.0286 -0.0162
16890W        W32964  16.066  10.680   3.487 -0.4441  0.0152  0.0721
16891W        W32965   2.763  13.531  12.802  0.1921  0.0224  0.1548
16892W        W32966   3.841  16.016   3.657 -0.2948  0.1152 -0.4059
16893W        W32967  10.075   4.885  12.974 -0.4592 -0.3024 -0.2255
16894W        W32968  16.844   3.230   3.907  0.0421  0.0754 -0.0236
16895W        W32969   9.630   0.871   0.153 -0.1389 -0.3257  0.0982
16896W        W32970   8.124  14.486  14.721  0.0714 -0.1117 -0.6003
16897W        W32971   8.528   7.940  14.293  0.1211  0.1635 -0.2088
16898W        W32972  11.456  18.367  14.735 -0.0140 -0.1334  0.1709
16899W        W32973   1.338   3.521  12.536  0.3062  0.1333  0.0886
16900W        W32974   6.942   7.798  11.825 -0.1383 -0.1558 -0.0363
16901W        W32975   1.174  17.426  15.367  0.3395 -0.2861 -0.0475
16902W        W32976   0.165   4.153  13.084  0.0952 -0.1935 -0.2365
16903W        W32977  14.723   0.094  14.962  0.0196 -0.1644 -0.0124
16904W        W32978  10.180   1.743   0.452  0.0199  0.0849  0.0253
16905W        W32979  12.467  16.327   4.716 -0.2631  0.0719 -0.1043
16906W        W32980   9.585   5.343   3.979 -0.0329 -0.1202  0.2258
16907W        W32981  15.549   5.115   4.264  0.0034  0.1575 -0.1246
16908W        W32982  17.172   8.490  11.982 -0.2204  0.2460  0.1997
16909W        W32983   9.008   3.410   4.540  0.0898  0.0644  0.4110
16910W        W32984  15.228   9.803  12.814  0.0492  0.0080 -0.4586
16911W        W32985   7.594   9.989  15.025 -0.0615  0.0712 -0.0473
16912W        W32986   4.437   2.869  11.949 -0.1658  0.0945  0.0422
16913W        W32987   4.898  13.643  14.918  0.2912  0.2155 -0.1778
16914W        W32988   3.420  17.498   0.955  0.2821 -0.0632  0.1126
16915W        W32989  10.461  15.135   1.091 -0.1231  0.1470  0.0876
16916W        W32990   2.952   6.848  13.343  0.1283  0.2981  0.0532
16917W        W32991  13.124   8.752  14.509  0.2979  0.0592 -0.1385
16918W        W32992   4.625   0.229  14.180  0.2218 -0.1993  0.0821
16919W        W32993  15.606   9.576   0.573  0.0209  0.0506 -0.0847
16920W        W32994   5.106   3.607  15.761 -0.2259  0.2629  0.2538
16921W        W32995  14.473  10.166  15.808 -0.2252  0.0083 -0.3714
16922W        W32996  16.180  17.709   2.804 -0.1919 -0.1007 -0.2481
16923W        W32997  11.016   8.445   2.383 -0.0180  0.0062 -0.3056
16924W        W32998   5.712   4.352  14.743 -0.2301 -0.4394  0.0781
16925W        W32999   9.843  16.504   4.350 -0.3115  0.1575 -0.0665
16926W        W33000  10.284  17.220  13.534  0.1521 -0.2347 -0.1824
16927W        W33001  12.416  13.366  11.151 -0.4882 -0.1169  0.0067
16928W        W33002   3.738  13.114   0.101 -0.0201 -0.0403 -0.2672
16929W        W33003  12.094   5.599   6.325  0.0292 -0.2080 -0.1156
16930W        W33004   1.837  16.030   0.376 -0.1265 -0.0294 -0.2433
16931W        W33005  15.729   2.410  11.047  0.2918 -0.1347  0.0724
16932W        W33006  11.913   2.413   3.778 -0.0325 -0.2790  0.0556
16933W        W33007   6.555  17.492  14.321 -0.3049  0.3092  0.0729
16934W        W33008   2.503   1.658  15.702 -0.1365  0.2623 -0.1181
16935W        W33009  14.037  13.682   1.687  0.3291 -0.1588  0.2707
16936W        W33010   9.185   4.273   4.551 -0.2963  0.0324 -0.1180
16937W        W33011   0.921  11.970   3.810 -0.3478  0.2773  0.0323
16938W        W33012   6.046   2.504   3.120 -0.5179  0.1103  0.1323
16939W        W33013   4.068   1.476  14.622  0.1665  0.0617  0.0740
16940W        W33014  13.040   4.294  14.843  0.0769 -0.0285 -0.0632
16941W        W33015   5.376  14.721  11.924  0.0409 -0.0309  0.1913
16942W        W33016   7.017   8.274  12.044  0.0050  0.0254 -0.1497
16943W        W33017  13.126   8.399  12.062 -0.1548  0.1303  0.1877
16944W        W33018   5.198   6.757   2.214 -0.0790  0.0891  0.2850
16945W        W33019  11.454   4.577  14.698 -0.1885  0.1229 -0.3055
16946W        W33020  13.368   4.607   2.501 -0.0359 -0.0929  0.2421
16947W        W33021   7.497   9.727  13.314 -0.0313 -0.1629  0.0461
16948W        W33022  14.309   8.791   4.736 -0.1562  0.0394 -0.2027
16949W        W33023   1.944   9.126  12.874 -0.2829  0.0518  0.0296
16950W        W33024  16.501  17.951   2.377  0.2098 -0.4470 -0.2793
16951W        W33025   1.935   2.714  10.948  0.1321  0.3905 -0.1861
16952W        W33026  13.098   7.042  14.966 -0.1852 -0.1954  0.1599
16953W        W33027  16.680   2.010  15.528 -0.2111 -0.3775  0.0319
16954W        W33028  18.526   8.723   3.001 -0.0300 -0.0317  0.0345
16955W        W33029  13.852   2.929  13.502  0.2362  0.2253 -0.0680
16956W        W33030  15.368  11.600  11.912 -0.1228 -0.2443 -0.1118
16957W        W33031   8.441   4.577   1.191 -0.2354  0.0231  0.0543
16958W        W33032   2.828   3.901   3.923  0.1472  0.0210 -0.2647
16959W        W33033  12.937  12.513   3.024  0.1117  0.1140  0.3131
16960W        W33034   6.951   5.300   1.756 -0.0627  0.0749 -0.1929
16961W        W33035   0.029  14.827  14.803 -0.2015  0.0295  0.1447
16962W        W33036  16.922  15.788  11.304 -0.0302 -0.1340 -0.0981
16963W        W33037  14.551   7.103   3.224 -0.0411 -0.0153  0.0957
16964W        W33038  17.769   1.850   5.558  0.0749 -0.0876 -0.0896
16965W        W33039   3.448   9.422   3.666  0.0910  0.2562 -0.0945
16966W        W33040   4.141  13.007  13.100 -0.0488  0.2619  0.1737
16967W        W33041   6.267  10.431  11.725 -0.0573 -0.2295  0.0756
16968W        W33042  17.280   8.142   5.774 -0.0482  0.1039  0.2186
16969W        W33043   1.137   4.338  15.127  0.0213  0.0204  0.1791
16970W        W33044  18.156  15.155   3.434 -0.2076  0.0015 -0.2891
16971W        W33045   1.947  12.331   0.509 -0.2025  0.5112  0.1122
16972W        W33046   6.888  13.570   6.385  0.1423  0.0385 -0.2367
16973W        W33047  13.163  16.514   4.629 -0.1616  0.0326 -0.2475
16974W        W33048  17.053  12.665  12.418 -0.3314 -0.2488 -0.2780
16975W        W33049   5.997   2.136   1.208 -0.3619  0.0158  0.0868
16976W        W33050   8.192   1.504   3.730  0.0590 -0.0138 -0.0945
16977W        W33051  14.284   8.608  11.070 -0.0373  0.0266 -0.1909
16978W        W33052   4.876   7.824  13.621  0.3516 -0.1195  0.4873
16979W        W33053   5.056  18.242   4.094  0.2833  0.1868  0.3616
16980W        W33054  14.373   6.369   4.843  0.0842 -0.4723 -0.0946
16981W        W33055   7.612  14.906   0.391  0.0127  0.3256 -0.1800
16982W        W33056   5.653   8.649   3.364 -0.2771 -0.1450 -0.3224
16983W        W33057   6.192   8.754  15.788  0.1939  0.1856 -0.3689
16984W        W33058  10.344   0.209   4.126  0.2496  0.1481 -0.1265
16985W        W33059   7.597  12.702   1.027  0.2695 -0.0590 -0.0810
16986W        W33060  17.460  15.250  14.005 -0.0622 -0.0682 -0.1537
16987W        W33061  16.469  17.292  15.665 -0.2076 -0.3463  0.4338
16988W        W33062   2.249   0.743   3.204  0.1798 -0.1888  0.0594
16989W        W33063   9.056   7.805  15.850  0.2307  0.1744  0.0193
16990W        W33064  10.474  17.350  15.763 -0.1771 -0.0554  0.2708
16991W        W33065   2.539  14.643   4.590 -0.2225  0.5422 -0.1207
16992W        W33066   2.020  10.451   3.992 -0.2854 -0.0395 -0.1903
16993W        W33067  15.787   7.318  14.123 -0.3578  0.0206  0.2353
16994W        W33068  16.295   6.941  11.374  0.3000  0.0580 -0.1886
16995W        W33069   9.121  12.497   4.062 -0.0390  0.1442  0.1475
16996W        W33070   6.919  17.923   1.267 -0.1090  0.5250  0.2236
16997W        W33071   6.849  16.137   6.005 -0.1687 -0.2070 -0.1218
16998W        W33072  14.239   0.571   4.876  0.1799 -0.1007 -0.1352
16999W        W33073   1.170   0.544   2.100 -0.1167  0.1308 -0.4123
17000W        W33074   3.164   9.125   0.700  0.0144 -0.0830  0.1032
17001W        W33075   3.982   5.499  12.310  0.1546  0.2537 -0.1457
17002W        W33076  14.013  10.088  12.300 -0.2913 -0.1251  0.2337
17003W        W33077  16.298  15.037  13.326  0.0877 -0.0359 -0.0026
17004W        W33078   8.696   5.385  11.842  0.2650 -0.0249  0.2795
17005W        W33079  16.191  11.425  14.196 -0.2332 -0.0523 -0.1965
17006W        W33080  14.271  13.281  13.035  0.0251  0.3983 -0.2231
17007W        W33081  17.557   7.065   0.084 -0.1200 -0.1683  0.2929
17008W        W33082   7.254  12.880   2.901  0.1678 -0.1671 -0.1872
17009W        W33083   7.339  18.180  13.965  0.1569 -0.0221 -0.1133
17010W        W33084   1.970  16.949   5.433 -0.2931 -0.0588 -0.1801
17011W        W33085   6.091  10.498   2.596  0.3546 -0.0910  0.3436
17012W        W33086  17.796   5.524  12.450  0.1893 -0.2234  0.0732
17013W        W33087  17.454   9.667  13.055  0.1369 -0.0565  0.2424
17014W        W33088   0.894  15.086   4.924  0.1633 -0.3771  0.3347
17015W        W33089  16.179   4.412  13.944 -0.0417 -0.0134  0.1981
17016W        W33090  14.822  14.307   4.173 -0.0386 -0.2587 -0.1953
17017W        W33091   4.993   1.891  12.353 -0.1007 -0.2166 -0.0293
17018W        W33092   9.130   7.326   5.240  0.4858 -0.1465  0.0556
17019W        W33093   2.913   1.841  12.531 -0.4052  0.0798  0.1912
17020W        W33094   9.505  11.146  15.624  0.0050  0.1255  0.1809
17021W        W33095   4.969  15.909   0.481  0.2567 -0.5757  0.4188
17022W        W33096  11.512  12.824  12.248  0.0578 -0.0410 -0.3296
17023W        W33097   8.665  16.979  16.019  0.0529  0.2849 -0.0871
17024W        W33098   0.001   2.039  15.782 -0.1605  0.1436  0.3284
17025W        W33099   0.263  14.411   3.490 -0.1154  0.1276 -0.0405
17026W        W33100   1.479   0.997  10.856  0.1747  0.2572 -0.0525
17027W        W33101   2.682  10.239   1.710 -0.0020 -0.5505 -0.1335
17028W        W33102  14.646   0.618   4.201  0.1773 -0.3239  0.0070
17029W        W33103  10.683   7.175   3.433 -0.2993 -0.4248  0.0240
17030W        W33104  18.073   5.261   0.534 -0.1482 -0.2421  0.0539
17031W        W33105   3.667   1.371   1.653  0.2265  0.1694  0.2930
17032W        W33106  14.856  12.944  12.162 -0.0689 -0.2095 -0.3171
17033W        W33107   9.943   9.627  15.270 -0.4770 -0.0199 -0.4396
17034W        W33108   1.903   3.794  14.449  0.2174  0.1755  0.3002
17035W        W33109   1.136  15.473  15.463 -0.2949 -0.1135 -0.3096
17036W        W33110   2.787  10.968  15.660 -0.0403 -0.0592  0.0588
17037W        W33111   6.303  13.606  13.482  0.0268 -0.0851 -0.0160
17038W        W33112  15.540   6.158  12.587 -0.2061 -0.0839  0.1779
17039W        W33113  15.327   7.886   0.735  0.0019  0.2202  0.1153
17040W        W33114   9.996   5.723  13.544  0.2453 -0.1429 -0.0179
17041W        W33115  17.333  15.357   1.984 -0.2162  0.2497  0.1345
17042W        W33116  10.058   8.536  12.502  0.2116 -0.2821 -0.1545
17043W        W33117  12.368  12.828   4.695  0.0449  0.2702 -0.3181
17044W        W33118  15.762   4.655   1.688 -0.0887 -0.0280 -0.1963
17045W        W33119  14.063   4.283  15.003  0.3392  0.2607 -0.2488
17046W        W33120   1.915  10.461   3.409  0.0608  0.1497  0.1083
17047W        W33121   4.979  12.601   1.079  0.0527  0.0496  0.0989
17048W        W33122   0.998  14.367   2.833  0.1927  0.2434 -0.1422
17049W        W33123  11.088   1.312   3.184 -0.1564  0.1414  0.0986
17050W        W33124   1.893  11.600   2.594 -0.0134  0.0946 -0.3582
17051W        W33125   0.230  15.026   4.052  0.0283 -0.2149 -0.0632
17052W        W33126   9.601  11.157  13.627  0.3238 -0.2849 -0.0313
17053W        W33127   4.794   6.678  15.917 -0.2763  0.2838  0.0778
17054W        W33128   9.920  15.651   2.181  0.0325  0.3297  0.1037
17055W        W33129   2.676   9.448  11.794 -0.0274 -0.2164  0.0904
17056W        W33130   2.612   8.482   3.209 -0.0879  0.0845  0.0562
17057W        W33131   2.446   5.139   5.954 -0.2980 -0.0021  0.2975
17058W        W33132   4.247   6.003   1.955  0.0309  0.1540  0.1951
17059W        W33133  12.268  16.973   4.629 -0.0297 -0.4608  0.1304
17060W        W33134   5.435   2.148  12.433  0.0548 -0.1852 -0.0890
17061W        W33135   1.695  12.772  15.120 -0.3485  0.2260  0.3664
17062W        W33136   8.142   3.796   2.277 -0.1310 -0.2535 -0.2139
17063W        W33137   0.012  15.208   1.065 -0.1246  0.0363  0.0147
17064W        W33138   2.148   3.413  15.265  0.2688  0.0590  0.1328
17065W        W33139  12.184   8.691   1.905  0.0813  0.1745 -0.3495
17066W        W33140   4.999  16.394   0.365  0.1180  0.1980 -0.4233
17067W        W33141  16.978   8.049   4.825 -0.1949 -0.0894 -0.3437
17068W        W33142  12.355   6.293   4.609 -0.0639 -0.0232  0.4688
17069W        W33143   7.528   0.498  13.643 -0.1314  0.3006  0.1005
17070W        W33144  10.521   8.765   0.289  0.0592  0.2428 -0.1084
17071W        W33145   4.946   8.127  11.576 -0.1442 -0.1311  0.0232
17072W        W33146   9.496   1.183  15.690 -0.0848  0.0537  0.0121
17073W        W33147  12.763   8.580  14.120  0.1459 -0.2023  0.0119
17074W        W33148   0.364   1.543  12.652  0.1882 -0.1249  0.0486
17075W        W33149  10.511   6.115   1.079 -0.3149 -0.0684 -0.0214
17076W        W33150   3.560  13.870   5.252  0.0648 -0.1220  0.0238
17077W        W33151   5.814  15.657   0.429  0.0159 -0.2006  0.1010
17078W        W33152  11.896   0.363   0.630  0.2477  0.0608 -0.1692
17079W        W33153  12.400   0.755   3.317 -0.2190  0.2264  0.3483
17080W        W33154   7.836  16.573  10.461 -0.1095  0.2884  0.0216
17081W        W33155  10.967  11.936   0.701  0.3040  0.3647 -0.2004
17082W        W33156  10.419   7.536  13.163  0.2570 -0.1653  0.2626
17083W        W33157   2.885  17.444   2.672  0.0640  0.0282  0.3563
17084W        W33158  15.767   6.534   4.287 -0.0893  0.0694  0.0831
17085W        W33159   2.405   7.035  14.237 -0.1902 -0.4204 -0.2746
17086W        W33160   9.786   9.865   4.458 -0.0098  0.3300  0.1765
17087W        W33161   9.592   8.954   2.477  0.0315  0.0190 -0.1283
17088W        W33162  12.643  18.461  12.952 -0.1855  0.1252  0.1007
17089W        W33163   4.768   4.413   5.754  0.0683 -0.0603 -0.2755
17090W        W33164  16.171  13.838   4.480 -0.3473 -0.0119  0.0161
17091W        W33165   9.133   1.084  13.587 -0.2352  0.0233 -0.0528
17092W        W33166   6.219   9.904  11.905 -0.0227  0.0774  0.1255
17093W        W33167   7.453   5.298  14.536 -0.2460 -0.0718 -0.0881
17094W        W33168   3.908   7.123   2.020  0.1164 -0.3435  0.1341
17095W        W33169  16.242  11.844  14.466 -0.0307  0.1988 -0.1581
17096W        W33170   6.561   9.083  11.871  0.1963  0.1702 -0.0578
17097W        W33171   1.280   2.020   6.061 -0.1324 -0.0839 -0.0765
17098W        W33172  10.038   8.988   3.596 -0.0990 -0.0395 -0.3042
17099W        W33173  13.904  14.373  15.744 -0.3490  0.0535  0.0139
17100W        W33174   4.046   7.114  11.927  0.1575 -0.0719  0.1967
17101W        W33175   8.302   8.847   0.403 -0.0386  0.1402  0.2609
17102W        W33176   9.833  13.592   2.045 -0.0126  0.1181 -0.0611
17103W        W33177  10.521  11.231  12.628 -0.1567 -0.0209  0.2836
17104W        W33178  15.752  10.592  15.963  0.0248 -0.3710 -0.1505
17105W        W33179  14.250   9.554  15.057 -0.4021 -0.2960 -0.0827
17106W        W33180   6.380   5.288  11.466  0.1764 -0.1175 -0.2915
17107W        W33181   6.834   9.866   3.708 -0.0773  0.1041 -0.1731
17108W        W33182   1.968  15.582   0.583 -0.0333  0.0778  0.2208
17109W        W33183   1.807   4.815   4.717  0.1483  0.0252 -0.3418
17110W        W33184  14.994  14.188  10.846  0.0598  0.2328 -0.1316
17111W        W33185   8.159  14.466   2.609 -0.0870 -0.0413  0.1684
17112W        W33186   3.563  10.133   1.741 -0.1746  0.1355 -0.0913
17113W        W33187  18.474  17.530  15.899  0.0698  0.1141 -0.0213
17114W        W33188  11.560  16.829   0.290  0.1876 -0.3797  0.0186
17115W        W33189   4.767  10.738   1.132  0.1475 -0.1782 -0.0194
17116W        W33190  16.919   3.179  11.431  0.1303 -0.1312  0.0779
17117W        W33191  14.726  11.560  14.358 -0.2659 -0.1539 -0.2419
17118W        W33192  15.885   3.831  13.849 -0.0089 -0.3881  0.0177
17119W        W33193  13.032   5.453  14.213 -0.1982 -0.5091 -0.0121
17120W        W33194   5.777   4.663  12.788  0.2535  0.1701 -0.2778
17121W        W33195   7.490  16.437  14.904  0.1241  0.3353  0.2211
17122W        W33196  11.958  18.299   4.456 -0.1829 -0.4111  0.2094
17123W        W33197  12.666  17.501  12.002  0.1038 -0.0147 -0.0780
17124W        W33198   8.089   6.506  15.634  0.0546  0.0061 -0.1925
17125W        W33199   4.629   2.761  14.784 -0.6256  0.1463  0.1536
17126W        W33200  12.632   2.609  13.405 -0.3589 -0.2707  0.0053
17127W        W33201  14.292   9.725  12.083  0.0954 -0.1753 -0.2060
17128W        W33202   2.824   3.550  12.940  0.0609  0.0846  0.0100
17129W        W33203  15.071  14.033  13.786  0.2344  0.1546  0.1523
17130W        W33204   8.023   4.877   4.314 -0.0735  0.2076  0.0603
17131W        W33205  10.114  16.110  13.166  0.1616  0.2637  0.1400
17132W        W33206   1.234   3.294   4.775  0.0111  0.1073 -0.2413
17133W        W33207   1.341  10.155  15.979  0.0565 -0.3584  0.1048
17134W        W33208  17.906   4.419   0.397  0.1962 -0.1347  0.2169
17135W        W33209  14.524   2.021  14.245  0.0945 -0.0289 -0.0820
17136W        W33210   8.589  15.061  12.848  0.4433  0.0571 -0.1699
17137W        W33211  13.017  13.615   5.413 -0.0939  0.1485 -0.2188
17138W        W33212  10.503   1.468   0.863 -0.0104 -0.0008 -0.1442
17139W        W33213  15.109   8.832   4.675  0.3015  0.1012 -0.2003
17140W        W33214  18.434  13.894  11.260 -0.2040 -0.2304 -0.1206
17141W        W33215   6.101  16.532  12.826 -0.1390  0.1312 -0.5069
17142W        W33216  16.773   8.339   3.361  0.2754  0.2262  0.0380
17143W        W33217  17.549   0.098  14.910  0.1515  0.3552 -0.1534
17144W        W33218   9.487  10.019   4.778  0.1012 -0.0394  0.3302
17145W        W33219  10.708  10.628   1.392  0.4137  0.1139  0.0365
17146W        W33220  13.361   2.525  12.717 -0.2444 -0.1277  0.1495
17147W        W33221   1.535   6.290   3.891 -0.0297  0.1171 -0.0195
17148W        W33222   7.127  16.405   2.077 -0.0465 -0.0794  0.1143
17149W        W33223   2.073  17.457   4.686 -0.0309  0.1145 -0.2042
17150W        W33224  11.251  10.304   1.938  0.1535  0.1652 -0.1842
17151W        W33225  17.899   5.368   2.108 -0.2472 -0.1732  0.1417
17152W        W33226  14.905  16.750   5.054  0.1575  0.1121  0.2740
17153W        W33227   1.345   9.554  11.897  0.3314  0.0229  0.0643
17154W        W33228   6.562  16.717  13.196 -0.0591  0.1569 -0.0427
17155W        W33229  11.069   8.881   2.797 -0.2698 -0.0610  0.2889
17156W        W33230   6.823   5.869  15.948 -0.0778 -0.1028  0.0315
17157W        W33231   8.356   1.181   5.181  0.2130 -0.1242  0.1203
17158W        W33232  10.870   7.975   3.881 -0.0136  0.1274  0.2120
17159W        W33233   4.963  11.230   3.655 -0.0686 -0.2716 -0.0506
17160W        W33234  10.059   2.935   1.780 -0.0801 -0.0656 -0.0819
17161W        W33235   3.881   3.699  14.200 -0.1750 -0.1631 -0.0628
17162W        W33236   7.466   0.743  15.479  0.0131 -0.0797 -0.2757
17163W        W33237  18.455  12.629  13.137  0.1162  0.1567  0.1131
17164W        W33238  18.098   6.588   4.662  0.1910  0.0454 -0.1440
17165W        W33239  13.545  13.834   3.914 -0.4078  0.0587  0.1425
17166W        W33240  13.765  14.178   0.606 -0.1302  0.2185  0.2058
17167W        W33241   0.735   8.723   0.054  0.3982 -0.0992  0.1141
17168W        W33242   7.182   3.278   2.318 -0.1467 -0.0596  0.1876
17169W        W33243   1.769  13.421   1.676 -0.2014 -0.2272  0.1767
17170W        W33244   9.432  11.295   0.578 -0.1899  0.0524  0.0418
17171W        W33245   9.971   8.644   3.279  0.1873 -0.0917 -0.1756
17172W        W33246  17.507   0.649  13.265 -0.2299  0.2977 -0.0269
17173W        W33247   6.266   3.709  12.302 -0.0033 -0.3661  0.0852
17174W        W33248  12.325  11.959   5.523  0.0847  0.1910  0.1786
17175W        W33249  16.936   8.137  14.557  0.2951  0.1401  0.0721
17176W        W33250  16.109   9.512  10.403  0.0289 -0.1028  0.1271
17177W        W33251  13.833  17.945   9.571 -0.2908  0.2913 -0.0768
17178W        W33252  13.607   3.644   0.216 -0.0283  0.2500  0.0320
17179W        W33253  14.411   4.143  14.184 -0.0450  0.2053  0.1257
17180W        W33254  16.930   0.354   6.040  0.1417  0.0299  0.1733
17181W        W33255  13.604  18.548  10.890 -0.1082  0.2287 -0.1484
17182W        W33256  15.901   1.394   1.601 -0.3336  0.1210 -0.1964
17183W        W33257  17.880   2.259   1.792  0.4616  0.1728  0.2208
17184W        W33258   3.265  16.167   2.633  0.2514 -0.0410 -0.1459
17185W        W33259   5.940   2.620   4.845 -0.0013  0.0914 -0.1683
17186W        W33260  10.786  15.944  15.614 -0.2630  0.0347 -0.2310
17187W        W33261   1.662   4.820   1.711 -0.1997  0.0508  0.1694
17188W        W33262   8.226  13.822  10.720 -0.2029  0.1922 -0.0550
17189W        W33263   6.837  16.500   2.511 -0.0825 -0.0345 -0.1784
17190W        W33264   1.509  12.552   2.486 -0.1989 -0.1053  0.1915
17191W        W33265  11.262   5.622   3.798 -0.6014  0.0641 -0.2187
17192W        W33266  12.343  17.380   2.733 -0.1643  0.2930  0.1260
17193W        W33267   7.882   1.566   5.331  0.1387  0.0369  0.0243
17194W        W33268   4.496  17.795  14.753 -0.0453 -0.1236  0.1177
17195W        W33269   0.903   0.224  14.634 -0.0676 -0.1031  0.1144
17196W        W33270  17.071   8.563   2.085  0.1306 -0.1292 -0.1756
17197W        W33271  16.338  13.978   4.041  0.0071 -0.0281  0.1501
17198W        W33272   6.251   8.569   0.359  0.0445  0.3454 -0.1113
17199W        W33273  17.827  12.206   5.125  0.1758  0.1084 -0.1756
17200W        W33274   9.778   6.243  15.457  0.1778  0.0433  0.0521
17201W        W33275   4.196   2.483  14.816 -0.1641  0.1033 -0.4830
17202W        W33276  15.809   4.613   0.586  0.3232 -0.2945  0.0967
17203W        W33277   6.183  18.564   2.697 -0.0192  0.2187 -0.1078
17204W        W33278   5.435  15.865   2.233  0.0517  0.2056 -0.0741
17205W        W33279   6.937  18.446  14.586  0.0434 -0.0689  0.2579
17206W        W33280   9.413  12.981   1.472  0.4566  0.3736 -0.3010
17207W        W33281   8.054   0.602   1.934 -0.2382  0.1225  0.0426
17208W        W33282   2.339   6.668   1.715  0.0443  0.0172  0.2096
17209W        W33283   1.540   0.897  14.590 -0.1223 -0.2854 -0.0425
17210W        W33284  14.979   6.788  12.753  0.3212 -0.1229 -0.1183
17211W        W33285   7.380  16.959   1.588  0.2746  0.0200  0.2551
17212W        W33286   8.854   9.653  11.936 -0.1858 -0.1623 -0.2531
17213W        W33287  10.568   6.471  14.361  0.2135  0.4388 -0.1702
17214W        W33288  18.546  13.987   3.402  0.0682  0.1755  0.1293
17215W        W33289   6.181   1.716  11.203 -0.1561 -0.1784 -0.1981
17216W        W33290  12.860  14.084  14.114  0.2916 -0.2655  0.1551
17217W        W33291   5.728   4.578   2.282  0.0753 -0.1621 -0.1955
17218W        W33292  14.186   2.366   1.397  0.2680  0.3790 -0.1036
17219W        W33293   1.078  13.182  15.712 -0.1784  0.2134  0.1071
17220W        W33294   0.931   7.977   5.585 -0.0361 -0.1475  0.3063
17221W        W33295  14.419   3.263   1.069  0.1209 -0.2233  0.1213
17222W        W33296  15.181  11.057  15.234  0.1294 -0.0159 -0.0345
17223W        W33297   2.511   2.114  15.904 -0.2055  0.1299 -0.2077
17224W        W33298  15.924  13.460   0.639 -0.0270  0.1363  0.2868
17225W        W33299   0.649   6.228   0.031 -0.1748 -0.0219 -0.3219
17226W        W33300   3.699  11.293   5.713 -0.1037  0.3308 -0.2671
17227W        W33301   8.648   6.065   5.339 -0.0623 -0.3628 -0.0471
17228W        W33302  15.690   1.677  11.254 -0.2125  0.1748  0.1444
17229W        W33303   9.866  14.326  12.657  0.0680  0.4209  0.2154
17230W        W33304  12.695  17.605  14.721 -0.0854  0.3118 -0.0092
17231W        W33305   8.217   6.465  12.563  0.0132 -0.0545 -0.2418
17232W        W33306   0.914   4.299   4.306 -0.0614 -0.2465  0.3110
17233W        W33307  15.152  15.038   1.918  0.1915  0.2818 -0.0802
17234W        W33308   9.316   1.542  13.556  0.3640 -0.0603  0.2308
17235W        W33309  10.865   1.206  13.699  0.0124 -0.4465  0.1691
17236W        W33310  18.213   9.550   3.261  0.1138  0.0579  0.2550
17237W        W33311  13.763  11.354  11.207 -0.1357  0.1216  0.0285
17238W        W33312   6.592   8.125   3.864  0.1815 -0.2167 -0.0729
17239W        W33313  15.057  15.084   3.781 -0.3229 -0.0696 -0.1611
17240W        W33314   7.018   5.281   6.052 -0.1416  0.0131  0.3305
17241W        W33315   1.884  12.750  10.945 -0.3264  0.1492  0.2083
17242W        W33316  12.032  10.774  13.564 -0.0073  0.1034 -0.1386
17243W        W33317   8.598   6.795  11.640 -0.0003  0.3066  0.0097
17244W        W33318  14.808  18.023  15.502 -0.2934  0.2407 -0.0324
17245W        W33319   0.599   8.353   3.947 -0.0681  0.5121  0.2404
17246W        W33320   9.528   3.822   1.481  0.0459  0.2887  0.1033
17247W        W33321  14.399  10.832  13.739 -0.0210  0.0089 -0.1087
17248W        W33322   0.448  18.313   1.228  0.0088  0.0724  0.0107
17249W        W33323   8.625  16.841   4.398 -0.1803  0.3585  0.0073
17250W        W33324   7.291  11.996   1.577 -0.2644 -0.0371  0.3173
17251W        W33325  12.932   3.959  14.499 -0.0697 -0.0764  0.3828
17252W        W33326  13.820  16.716   1.242  0.0552  0.2671 -0.1543
17253W        W33327  12.353   8.089   2.196  0.0595 -0.1950 -0.1602
17254W        W33328   0.733  11.395   1.759 -0.1672  0.1068  0.0433
17255W        W33329  15.398   3.084  11.278  0.0385 -0.0037 -0.2382
17256W        W33330  17.312   3.054  13.331 -0.2573 -0.1064  0.1969
17257W        W33331  15.389   7.476  14.293  0.0855  0.0503  0.2343
17258W        W33332   1.613   0.758  12.085  0.3048  0.0384  0.0212
17259W        W33333   4.460  12.674   0.049  0.3444 -0.0297  0.1647
17260W        W33334   2.060   5.994  13.386 -0.2075  0.0375  0.2873
17261W        W33335  12.310  11.956   2.665  0.0215 -0.0305  0.0052
17262W        W33336   6.746   7.936  15.460 -0.2456  0.0806 -0.0791
17263W        W33337  12.671   7.055   0.596 -0.0083  0.0891 -0.1491
17264W        W33338  14.813  17.707  14.075  0.4007  0.1764  0.1704
17265W        W33339   9.553   1.550  13.092 -0.1472  0.1420 -0.2250
17266W        W33340   5.093   5.766   3.574  0.1443  0.1568  0.3644
17267W        W33341  11.100   9.823   3.871  0.1266 -0.0295  0.0514
17268W        W33342   3.080  14.484  13.118  0.0286  0.4632  0.2719
17269W        W33343   4.893  12.951  14.199 -0.3033 -0.1448 -0.0542
17270W        W33344  14.956   6.173  13.365  0.0510 -0.0697 -0.1862
17271W        W33345   6.948   9.164  14.178 -0.2197  0.3254 -0.0536
17272W        W33346   3.361   5.332  12.257 -0.1725 -0.0109  0.0150
17273W        W33347  10.420  13.502   0.522  0.2585  0.1133 -0.0567
17274W        W33348   9.263   0.530  13.765  0.2228 -0.3613 -0.0000
17275W        W33349  14.723   4.272   5.084 -0.2050  0.1422  0.1879
17276W        W33350  14.244   1.780   1.553 -0.0348 -0.1145 -0.1654
17277W        W33351   9.880   5.336  12.555  0.0095 -0.0790 -0.0297
17278W        W33352  12.937  17.913   3.723  0.0686 -0.2424  0.0429
17279W        W33353   9.317  12.627   2.729  0.1836  0.1536 -0.1341
17280W        W33354  14.755   5.112   9.997  0.2824 -0.2082 -0.1588
17281W        W33355  11.718   0.848  15.231 -0.1183 -0.3228  0.0743
17282W        W33356   3.176   5.146  13.952  0.2133 -0.4254  0.1303
17283W        W33357   3.521   4.400   2.338  0.1494 -0.2267 -0.0027
17284W        W33358  17.476  16.416  13.817  0.2855 -0.0319  0.3540
17285W        W33359   0.862  16.811   4.125  0.3072 -0.1875 -0.1311
17286W        W33360  14.016   8.390   1.446  0.1188  0.1709  0.0736
17287W        W33361  14.044   0.040   5.924  0.0729  0.1417 -0.1274
17288W        W33362  17.862  16.070  15.066 -0.1600  0.0854 -0.2040
17289W        W33363  14.646  17.664   0.207  0.0505  0.3544  0.3406
17290W        W33364  16.049  12.719   1.174 -0.0250  0.1502  0.1209
17291W        W33365  13.213  16.352   1.346 -0.0212 -0.0007 -0.2000
17292W        W33366  12.856  10.989  13.297 -0.0833 -0.4125 -0.2551
17293W        W33367  11.196  10.556   0.590  0.2325  0.1133  0.2432
17294W        W33368  18.176  11.323   0.027  0.5986  0.1277 -0.2196
17295W        W33369  13.359   7.390   5.176 -0.2111  0.3148 -0.0234
17296W        W33370   9.639   2.519  11.631  0.0123  0.2902  0.0885
17297W        W33371  11.791  12.745  13.093 -0.0469  0.1315  0.3800
17298W        W33372  12.393  12.821   0.495 -0.0427 -0.2036  0.1032
17299W        W33373  18.066   6.874   0.013  0.0593  0.0157 -0.3348
17300W        W33374   6.296   7.829  11.883  0.2514 -0.1468  0.5611
17301W        W33375   3.106   6.465  15.355 -0.0278 -0.1082  0.2797
17302W        W33376  11.780   1.809  11.278 -0.1158 -0.2230 -0.0189
17303W        W33377  16.412   0.872  11.847 -0.3160 -0.0600  0.3903
17304W        W33378   8.319  15.750  11.303 -0.0318  0.1483 -0.2202
17305W        W33379   4.847  14.461  12.475  0.1770 -0.1408  0.3929
17306W        W33380  14.998  12.276  12.731  0.1083 -0.0942  0.0549
17307W        W33381  12.708  12.807  13.701  0.2544 -0.2879 -0.1415
17308W        W33382  18.344  11.634   5.312 -0.0281  0.2193  0.1999
17309W        W33383   6.251  10.111   0.123 -0.2546  0.1641 -0.1206
17310W        W33384  11.029   2.070   5.016 -0.1024 -0.3516  0.1501
17311W        W33385   7.734   3.335  16.020  0.1456  0.0557 -0.1803
17312W        W33386  10.331   2.658  12.509 -0.1579  0.0763  0.0463
17313W        W33387   0.758   0.161  13.071 -0.2229 -0.0952  0.0991
17314W        W33388  13.101  14.476   1.481 -0.0517  0.0822 -0.3746
17315W        W33389   8.284   5.413   2.960  0.2983 -0.2324 -0.1801
17316W        W33390  17.196  16.801  14.025  0.1985  0.1760  0.0520
17317W        W33391   0.405   8.148   0.050  0.1984  0.0966 -0.0569
17318W        W33392   4.106   3.380   4.728  0.2736  0.0116 -0.2911
17319W        W33393  16.262  15.954  15.375  0.0907 -0.0496 -0.4539
17320W        W33394   0.475  10.970   4.940  0.3031  0.0069  0.0427
17321W        W33395   5.877   3.178   1.204 -0.2724  0.0203  0.1402
17322W        W33396  16.138  15.428   0.532  0.1758 -0.0796  0.1314
17323W        W33397   5.670   3.432  13.815  0.1341 -0.1414  0.0491
17324W        W33398   8.848   7.379  15.595  0.4524 -0.0971 -0.1004
17325W        W33399  17.024  13.706   4.644  0.1731 -0.0353 -0.2493
17326W        W33400   4.800  13.458   0.961 -0.1687  0.1226  0.1436
17327W        W33401   2.629   6.756   5.393 -0.0863  0.0622  0.3285
17328W        W33402   1.733  17.985  11.723 -0.0474 -0.0673  0.1231
17329W        W33403  11.832  12.899  11.822 -0.0016  0.0745  0.0836
17330W        W33404   4.899   4.222   3.460 -0.1080  0.2634  0.0567
17331W        W33405   2.219   0.728  12.193 -0.0816  0.0400  0.1630
17332W        W33406   8.608   7.201   3.990  0.3418  0.0988 -0.0543
17333W        W33407  17.276  16.050  13.102  0.1504  0.0875 -0.1116
17334W        W33408   9.376   3.806  15.069  0.2429 -0.1073 -0.0132
17335W        W33409   3.243  14.263   1.964 -0.2684  0.0536  0.1889
17336W        W33410   7.839   5.967   6.154  0.2842 -0.1887  0.0579
17337W        W33411  10.227   1.144   6.103  0.0860 -0.1972 -0.1641
17338W        W33412  13.408   1.268   4.807 -0.3352 -0.1234  0.0246
17339W        W33413  15.873   5.484  13.046  0.0820 -0.0180 -0.0792
17340W        W33414  14.515  12.327   0.040 -0.2010 -0.2930 -0.1629
17341W        W33415   7.876   2.823  12.595 -0.0078 -0.1743 -0.2945
17342W        W33416   5.034   4.807   1.160  0.1866 -0.2143 -0.3088
17343W        W33417  15.283   0.209   1.282 -0.1145  0.1117  0.5107
17344W        W33418  18.026   3.704  10.072  0.0556  0.1837  0.1400
17345W        W33419  15.302   4.702   5.764 -0.1526 -0.0332 -0.0232
17346W        W33420  17.601  11.531  13.722  0.1569  0.0935 -0.0060
17347W        W33421  14.463   9.223   3.348  0.0895 -0.1326  0.1172
17348W        W33422   5.693   9.420   1.277  0.0556  0.0421  0.2025
17349W        W33423  11.640  14.938   5.428  0.2172  0.2259  0.0210
17350W        W33424   0.703  13.892  11.972 -0.0237 -0.2031  0.1903
17351W        W33425   7.254   3.912  13.218  0.2312  0.1625 -0.0678
17352W        W33426  16.033  11.051  14.524  0.0694 -0.2053  0.1279
17353W        W33427  15.320  17.608  14.319 -0.0988  0.0677  0.1259
17354W        W33428  17.897   1.825   1.931 -0.2159  0.0021  0.1120
17355W        W33429  14.304   7.549  14.109  0.1843 -0.1271 -0.0755
17356W        W33430   6.269   4.780  12.834  0.0175  0.1320  0.3752
17357W        W33431   7.335   6.905  12.102  0.4276 -0.1847 -0.0712
17358W        W33432   3.925  12.342  13.765  0.0040 -0.2140 -0.3198
17359W        W33433   1.486   2.311  13.451  0.3590  0.2560  0.1788
17360W        W33434  17.745  13.090   4.326  0.1504 -0.1080  0.3146
17361W        W33435  17.757  16.733   0.968 -0.0286  0.1328  0.1362
17362W        W33436  15.420  13.295  14.080  0.2139 -0.1422 -0.2142
17363W        W33437   4.866   9.649   3.174  0.1392 -0.2035 -0.4748
17364W        W33438  11.717   5.263   2.688 -0.0442  0.0723 -0.0478
17365W        W33439  17.565  17.166   4.025  0.0817  0.0544 -0.0744
17366W        W33440  16.735  10.070  14.319  0.0301 -0.1427  0.0453
17367W        W33441  13.682  16.919   1.724  0.1584 -0.0191  0.1391
17368W        W33442   4.205   0.389   2.562 -0.1640 -0.2580  0.0927
17369W        W33443   1.046  15.848   3.911 -0.1512 -0.3724  0.0564
17370W        W33444   0.695  16.734  11.637  0.0319 -0.2932  0.0229
17371W        W33445   7.385  17.333  11.254 -0.1025 -0.2667 -0.2787
17372W        W33446   5.975   6.464   5.251 -0.0200  0.0017 -0.2759
17373W        W33447  14.103   7.260  14.564  0.1609 -0.0658 -0.0918
17374W        W33448  12.336   9.363   3.720  0.1317  0.0585 -0.2778
17375W        W33449  12.047  15.806  15.899 -0.1816 -0.1895 -0.0518
17376W        W33450   4.478   3.246   4.396 -0.0977  0.1781  0.0474
17377W        W33451   4.804   1.961  14.292  0.0030 -0.4261  0.0118
17378W        W33452  14.957  10.890   6.006 -0.0932  0.0624  0.0870
17379W        W33453  12.103   3.964   2.458  0.3292  0.1394 -0.0503
17380W        W33454   6.858   8.699  14.341 -0.0781  0.3484 -0.2868
17381W        W33455   3.348   4.598  12.442 -0.1594  0.1375  0.0667
17382W        W33456  17.228   9.175   1.231  0.1266  0.1152  0.0389
17383W        W33457   7.553   1.789   0.320 -0.1417  0.4348  0.2144
17384W        W33458   4.898   2.238  11.248  0.0857 -0.3095 -0.0095
17385W        W33459   7.051  13.721   2.906  0.1178 -0.1454  0.0520
17386W        W33460  11.019  14.098  15.490 -0.1250  0.2073  0.3568
17387W        W33461  12.024   7.332  13.677  0.1826 -0.2774  0.0947
17388W        W33462  17.742   5.037   4.019  0.1338  0.1255  0.0231
17389W        W33463   3.919   9.547   5.168  0.1137 -0.1359  0.1551
17390W        W33464  16.209  11.555  11.474  0.1170 -0.1790  0.0074
17391W        W33465  13.728  15.254  11.007  0.0657  0.2172 -0.0530
17392W        W33466   9.974   0.587   3.220 -0.1477 -0.0461  0.6822
17393W        W33467   8.364  17.317   1.476  0.4173 -0.3518 -0.0306
17394W        W33468  18.375  12.287  12.740  0.0882 -0.0765 -0.0570
17395W        W33469   8.709  13.808   2.119 -0.0475  0.2304 -0.1346
17396W        W33470   7.935   4.463  11.088 -0.1288  0.0711  0.0728
17397W        W33471   1.647   7.596  10.523 -0.1196  0.1917 -0.0618
17398W        W33472  11.378   2.849  14.741 -0.1318 -0.2788  0.1183
17399W        W33473  16.067  12.072  16.019 -0.0498  0.2148  0.0900
17400W        W33474  14.237  15.666  12.248  0.0235  0.2562 -0.0250
17401W        W33475   8.786   3.136   1.070 -0.1518  0.2717 -0.1814
17402W        W33476  13.876  14.466   2.920  0.1177 -0.2458  0.0643
17403W        W33477   9.715  15.594   5.245 -0.0187 -0.2303 -0.0845
17404W        W33478  12.355  11.755  14.294 -0.0530  0.3996 -0.1178
17405W        W33479   8.304   5.008  11.754 -0.2091 -0.1203  0.0371
17406W        W33480   1.863   1.025   1.854 -0.1010 -0.0189 -0.0619
17407W        W33481  12.072  13.763  15.585  0.2331 -0.1523  0.0148
17408W        W33482   7.967  13.267  15.312 -0.0965 -0.0258 -0.3244
17409W        W33483   8.162  17.796   0.898  0.4271  0.0947 -0.1745
17410W        W33484  14.580  14.231  12.057 -0.2770  0.3300  0.1815
17411W        W33485   0.230  13.881  10.333  0.2564 -0.2078 -0.2207
17412W        W33486   1.309  15.023   3.218 -0.0896  0.0822 -0.0723
17413W        W33487  17.471   0.176   2.985  0.0102 -0.3834  0.1137
17414W        W33488  15.426   4.795   2.029  0.0131 -0.0110  0.3156
17415W        W33489   6.717   4.392  13.748 -0.3895 -0.0439  0.3844
17416W        W33490  12.636  15.192   2.857  0.1642  0.0056  0.1612
17417W        W33491   2.326  18.445   1.910  0.1009 -0.0281  0.0276
17418W        W33492  11.504  18.296  15.783 -0.1947 -0.4492  0.0091
17419W        W33493   1.880   6.171   4.312  0.3186  0.2500  0.1026
17420W        W33494  14.210   1.445  11.442 -0.1301  0.1760 -0.1329
17421W        W33495   1.661  11.117   4.091 -0.1480 -0.0913 -0.1698
17422W        W33496   2.011  12.449  12.903 -0.1033 -0.1757  0.0070
17423W        W33497  12.408   2.052  15.098 -0.0694 -0.3257 -0.0819
17424W        W33498  13.576  12.554   2.212 -0.1225  0.1060 -0.0836
17425W        W33499   5.971   0.866  12.584 -0.1466 -0.0357 -0.0482
17426W        W33500  11.744   7.227  12.773 -0.1255  0.1658 -0.3364
17427W        W33501   8.908  13.616   1.617  0.2212 -0.0202 -0.2193
17428W        W33502   0.922  13.643  14.250 -0.0044 -0.1151  0.1951
17429W        W33503   1.513   8.757   3.866  0.1798  0.1623 -0.2883
17430W        W33504   9.681   5.772  12.117 -0.1363  0.1912  0.2130
17431W        W33505   0.374  13.103  15.983  0.1485 -0.1473 -0.2717
17432W        W33506   3.167  13.550   1.508  0.1239 -0.2851 -0.2350
17433W        W33507  12.811  14.014  12.374  0.1914  0.4637 -0.3494
17434W        W33508   7.076  15.988  14.147  0.2918 -0.1364 -0.1706
17435W        W33509  15.998   8.945  12.116 -0.0940  0.1828  0.1602
17436W        W33510   6.416   7.383   1.140  0.0140 -0.0436  0.3096
17437W        W33511   8.946  16.665   2.753  0.1093 -0.0984  0.2249
17438W        W33512  12.198   9.132   4.331  0.0087  0.0450  0.0844
17439W        W33513   6.017   6.149   3.364  0.1614  0.3436 -0.2524
17440W        W33514   2.621  11.787  11.402  0.2721  0.1149  0.4174
17441W        W33515  12.209  12.435  12.977 -0.0670 -0.2758 -0.2284
17442W        W33516  12.480  10.800  15.425  0.3212  0.2664 -0.0471
17443W        W33517  16.999   9.728   1.112 -0.0901 -0.2070  0.0434
17444W        W33518   2.205   5.363  15.943 -0.1176 -0.0029  0.0540
17445W        W33519   8.633   2.048  13.259 -0.2522  0.1459  0.1021
17446W        W33520   8.364  15.741   0.798 -0.4547 -0.3639 -0.1558
17447W        W33521   6.294  14.490   1.555 -0.0171 -0.0133  0.1188
17448W        W33522   1.857   0.206   0.630  0.1213  0.0276  0.1043
17449W        W33523   2.810  14.802  12.760 -0.2843  0.1206  0.3048
17450W        W33524  17.787  16.227  11.146  0.2117 -0.0722 -0.0049
17451W        W33525   7.082   4.594   2.740 -0.0212  0.0358  0.1319
17452W        W33526  17.305  15.861  11.768  0.0534 -0.2677 -0.1973
17453W        W33527   1.841   0.288   5.917  0.1556 -0.3188 -0.0365
17454W        W33528   0.911   7.562   4.063 -0.0551 -0.1456  0.1285
17455W        W33529  14.091   7.029   2.656 -0.1881 -0.1443 -0.1101
17456W        W33530  13.884   5.331   4.546 -0.2024 -0.0759 -0.0318
17457W        W33531   6.691  16.190  14.380 -0.2390  0.0056  0.0180
17458W        W33532   0.114  10.179  14.397  0.1881  0.1685  0.3917
17459W        W33533   0.115   0.749  14.498  0.0573 -0.1538 -0.3324
17460W        W33534   7.639  11.516   5.023 -0.1494  0.1396 -0.3843
17461W        W33535  10.950  15.385   0.803  0.1891  0.0957 -0.1772
17462W        W33536  15.849   1.503  15.913  0.0858 -0.0067 -0.1202
17463W        W33537  10.229   9.098   5.458 -0.0838  0.1684  0.0010
17464W        W33538  12.409   9.732  12.030 -0.1859  0.1546 -0.3682
17465W        W33539  15.129  11.854  15.681  0.3113 -0.1583  0.2488
17466W        W33540  12.052   4.891  15.369 -0.0343  0.0621  0.0636
17467W        W33541   9.242   5.335  13.141 -0.1190  0.4522 -0.1656
17468W        W33542  12.247  15.543   3.246 -0.3346 -0.0437 -0.0046
17469W        W33543   0.423   7.269  10.630 -0.0800 -0.1186  0.1469
17470W        W33544   2.979   6.244  14.918 -0.1699 -0.1735  0.1050
17471W        W33545   3.412   4.310   1.287 -0.2182  0.0266 -0.0759
17472W        W33546   1.921   3.030  13.706  0.0375 -0.0855  0.1811
17473W        W33547   3.032  12.750  15.833  0.0295  0.1806 -0.4407
17474W        W33548   6.808  17.931   9.818 -0.3570 -0.3301 -0.3607
17475W        W33549   1.827  10.931  12.040 -0.1021 -0.0342 -0.0346
17476W        W33550   9.772  15.597   1.635 -0.2835  0.3856  0.0688
17477W        W33551   0.269  13.020  11.225 -0.1102 -0.0134  0.0792
17478W        W33552  16.570   0.274   4.726 -0.2239 -0.0249 -0.4639
17479W        W33553   5.676   5.593  13.444  0.0874  0.1466 -0.1529
17480W        W33554  10.024  15.099  11.475 -0.0649 -0.3338  0.2693
17481W        W33555   7.657  10.482   1.513  0.4612  0.0560 -0.3956
17482W        W33556   4.822   5.526   0.463 -0.3197 -0.2707 -0.0041
17483W        W33557   0.158   6.932  13.704 -0.1659 -0.3107 -0.1109
17484W        W33558   8.510  12.476   5.442 -0.1390 -0.2631 -0.1401
17485W        W33559  16.701  11.781   3.223  0.3210 -0.0521 -0.2552
17486W        W33560  14.337  12.918   2.645 -0.0070  0.0386  0.0988
17487W        W33561  11.791  11.962   1.309 -0.2760  0.1432  0.2810
17488W        W33562  14.376  14.874  11.289 -0.0944  0.0101  0.1809
17489W        W33563   1.430  15.534   0.536 -0.3240 -0.0988 -0.2307
17490W        W33564  14.630  15.946   4.740 -0.1510  0.0346  0.2400
17491W        W33565   5.741  15.145  11.794 -0.1830  0.2420  0.0304
17492W        W33566  11.904   8.681   3.487  0.1276  0.2215 -0.3349
17493W        W33567  17.935   4.046   3.397  0.1806  0.1552  0.1616
17494W        W33568   7.040   4.041  14.481 -0.1235  0.1005 -0.0318
17495W        W33569  17.504  16.209   1.088  0.1452  0.0346  0.1076
17496W        W33570   3.769   2.201  12.547 -0.0273 -0.1699  0.0726
17497W        W33571   7.664  17.632   3.920 -0.1346  0.0976  0.0182
17498W        W33572  14.941  15.246  15.081  0.1904  0.1681 -0.4597
17499W        W33573  13.876  13.154   6.213  0.0255 -0.3564 -0.0382
17500W        W33574  16.122   4.877   0.317 -0.0561  0.2069  0.0593
17501W        W33575  14.160   8.301  12.054 -0.1904  0.1065  0.1409
17502W        W33576   1.981  14.362   0.673 -0.1146  0.0538  0.0331
17503W        W33577   9.268  17.444   0.999 -0.2236  0.0869  0.0105
17504W        W33578  13.032   2.444  10.864 -0.3430  0.1568 -0.1179
17505W        W33579  11.777  11.886  12.506 -0.0153  0.1078  0.3164
17506W        W33580   1.960   9.273  12.434 -0.4257 -0.0177 -0.0746
17507W        W33581   4.213  14.598   4.346  0.2631 -0.2328 -0.2374
17508W        W33582   1.231  15.452  12.506 -0.2002 -0.0264  0.1313
17509W        W33583   7.800  18.373  14.579 -0.0255 -0.0818 -0.3418
17510W        W33584  11.752  12.522   3.248 -0.3277 -0.1842  0.1614
17511W        W33585   6.388   6.269   3.052 -0.1229 -0.3918 -0.4735
17512W        W33586  11.257  10.704   9.750 -0.1414 -0.1002  0.0154
17513W        W33587   7.556   5.042  15.833  0.2695 -0.2086  0.1836
17514W        W33588  16.909  18.537   3.935  0.4209 -0.1273  0.0639
17515W        W33589  17.942  10.903   2.702  0.4619 -0.2994  0.0784
17516W        W33590   1.745   6.098  14.937  0.0784  0.2049  0.0970
17517W        W33591   6.609  17.335   5.231  0.4847  0.0986 -0.3442
17518W        W33592  18.357  14.344  12.593  0.1824  0.2534  0.1135
17519W        W33593   1.756  18.093   1.458 -0.1003  0.1009  0.0752
17520W        W33594   1.592   7.593  13.858 -0.0028 -0.0537 -0.1952
17521W        W33595   7.544  10.493  15.017 -0.0583  0.1833 -0.0837
17522W        W33596  16.471  17.933   4.630  0.1523 -0.0005 -0.2208
17523W        W33597  14.760   5.892  12.435 -0.0609  0.0004  0.0528
17524W        W33598  12.165   8.924   3.855 -0.0784  0.2291 -0.2090
17525W        W33599   4.619  10.527  12.776 -0.0586  0.0791 -0.0164
17526W        W33600  13.643   9.419  11.568 -0.1012  0.0406 -0.4644
17527W        W33601   7.336  15.958   3.612  0.3982 -0.1186 -0.3115
17528W        W33602  12.835  10.397   5.438  0.2047  0.2948 -0.1907
17529W        W33603  10.713   6.412   1.483  0.1507 -0.0351 -0.2918
17530W        W33604  13.151  11.164  12.374  0.0426 -0.0618 -0.0961
17531W        W33605   0.171   8.601   3.906  0.0279  0.1016  0.0110
17532W        W33606  18.337   6.035   5.595  0.2408  0.1063 -0.2038
17533W        W33607   4.276   6.818  12.630  0.0413 -0.0731  0.1705
17534W        W33608   0.964  15.818  15.203 -0.0344  0.0434  0.2284
17535W        W33609   8.497  16.112   1.864  0.0544  0.1900  0.2050
17536W        W33610  15.330   9.814   1.743  0.4640 -0.1568 -0.1935
17537W        W33611   8.956   5.073   5.969  0.1323 -0.0590 -0.1932
17538W        W33612  13.749  15.812  15.724 -0.0116 -0.2256  0.1121
17539W        W33613  17.692  17.512  14.267 -0.0990  0.1262 -0.1129
17540W        W33614  14.526  12.849   3.697  0.2413 -0.3078 -0.2910
17541W        W33615   0.945   1.474   0.447  0.2000  0.2654  0.0171
17542W        W33616  17.258   8.254   3.430 -0.2099 -0.0207 -0.0470
17543W        W33617  12.041  10.365   0.769 -0.0190 -0.2097  0.2301
17544W        W33618  17.020  11.840   0.678  0.0937  0.0298  0.3285
17545W        W33619  14.307   6.629  10.726 -0.2325  0.4463  0.0420
17546W        W33620  18.546   9.335  13.694  0.0780 -0.0043  0.3808
17547W        W33621  16.549   7.131  14.585  0.1379 -0.0078  0.1746
17548W        W33622  14.714  13.430  14.723 -0.2333  0.0569  0.3556
17549W        W33623   9.115   4.158   5.073  0.0750 -0.1397  0.0602
17550W        W33624  15.745   2.105  12.708 -0.1832  0.1198 -0.0900
17551W        W33625  15.184   7.441  15.605  0.0481 -0.1970 -0.3700
17552W        W33626  15.836   9.964  15.140  0.2110  0.1571 -0.2110
17553W        W33627  14.482   3.478  13.313 -0.2372  0.0757  0.2178
17554W        W33628  14.593   3.153  12.876  0.1164 -0.2635 -0.0557
17555W        W33629   6.445  10.426  13.947 -0.0768  0.0541  0.1779
17556W        W33630  11.010  15.799   4.105  0.0968 -0.1570  0.0151
17557W        W33631  15.502   4.641   3.561 -0.4029 -0.3921 -0.1800
17558W        W33632  14.564  15.198  14.478 -0.1031 -0.0684 -0.2897
17559W        W33633   0.180   4.655  13.030 -0.2564 -0.1979 -0.2464
17560W        W33634   9.485   0.976  10.503  0.0634 -0.2041  0.1866
17561W        W33635   0.311  16.051  14.583 -0.1566  0.2295  0.0867
17562W        W33636   1.585   1.689   0.869  0.3955  0.1845 -0.0771
17563W        W33637   8.947  15.591  14.119  0.0056  0.0264  0.1678
17564W        W33638  17.941  15.189  11.931 -0.0733 -0.0813  0.0334
17565W        W33639  11.290  16.246   6.079 -0.2702 -0.0743  0.0731
17566W        W33640  14.392   3.239   0.052  0.0626 -0.3728 -0.0139
17567W        W33641   2.325  18.506   0.379 -0.3587  0.0923  0.0244
17568W        W33642  17.181  13.731   4.166  0.1298  0.0166  0.2108
17569W        W33643  15.592   1.900  15.580 -0.1019  0.0088 -0.3341
17570W        W33644   2.340  11.407   1.118  0.0552 -0.1592 -0.0116
17571W        W33645  15.303  10.630   5.018 -0.1102  0.4579 -0.0296
17572W        W33646   0.491   4.106   3.724  0.3256 -0.1460  0.0172
17573W        W33647   2.594   9.609   3.805 -0.0739  0.2213  0.0694
17574W        W33648  12.936   2.437   3.571 -0.1802  0.0445  0.0383
17575W        W33649   0.146   3.883  13.572 -0.0570  0.2957 -0.2465
17576W        W33650   8.607  13.634  14.771 -0.0329 -0.4231 -0.0698
17577W        W33651   5.578   1.494   1.950  0.0136  0.0172 -0.1315
17578W        W33652  14.797   3.880  13.275 -0.1753  0.1035 -0.0399
17579W        W33653  14.793  14.669   1.992 -0.5492 -0.0219  0.3403
17580W        W33654   2.143  10.767   4.989  0.0605 -0.0815  0.0744
17581W        W33655  12.875   4.485  11.267  0.2990 -0.2434 -0.0043
17582W        W33656  12.070   6.667   4.591  0.3028  0.0975  0.2875
17583W        W33657   2.507   4.690   4.515  0.0643 -0.2338  0.0588
17584W        W33658   8.816  16.317   1.492 -0.0185  0.1137  0.1404
17585W        W33659  12.911   5.386  15.149 -0.0703  0.0499 -0.1922
17586W        W33660   2.152   3.777   0.512  0.4273  0.1959  0.0884
17587W        W33661   1.717  17.408  13.575  0.1353 -0.1051  0.2162
17588W        W33662  11.955  15.732   4.550 -0.0858  0.1914 -0.1984
17589W        W33663  11.961   3.572   2.692  0.2034  0.4965 -0.4272
17590W        W33664  13.649   7.861  10.911  0.0107 -0.1130  0.4557
17591W        W33665   6.836  11.566   3.033 -0.0895 -0.3128 -0.0516
17592W        W33666  18.551  16.946   3.697  0.3972 -0.0097  0.1328
17593W        W33667  14.634   4.392  13.282 -0.0672 -0.2083 -0.1852
17594W        W33668   5.156   0.275  12.831  0.2031  0.0182  0.0189
17595W        W33669   3.796   7.120   3.126 -0.2820 -0.4641  0.3012
17596W        W33670  11.914   9.262   1.259  0.0249  0.1422 -0.0167
17597W        W33671   4.688   6.999  14.029  0.0265 -0.3918 -0.4845
17598W        W33672  14.967   6.957   2.730  0.0278  0.1110 -0.1675
17599W        W33673   3.105   4.659  15.905 -0.3059 -0.0151  0.0942
17600W        W33674  13.768  15.669   9.643 -0.2363  0.2219  0.2542
17601W        W33675  10.295   4.942  12.473 -0.0972 -0.2634 -0.0286
17602W        W33676   9.372   1.197   2.673 -0.0786 -0.0454 -0.1755
17603W        W33677  10.258   5.862   3.352 -0.2043  0.0752  0.1480
17604W        W33678  16.498   4.015   1.879 -0.0194 -0.0028 -0.2260
17605W        W33679   5.660  13.449   4.619  0.4146 -0.2398 -0.2072
17606W        W33680  17.148   2.623   5.047 -0.3090 -0.1205 -0.0732
17607W        W33681  17.025   0.955   2.997 -0.1556 -0.2549 -0.1012
17608W        W33682   2.948  15.308  13.827  0.2316  0.0163  0.0256
17609W        W33683   8.732   2.036   5.045  0.0704  0.1877 -0.3094
17610W        W33684   3.000   1.947   1.944 -0.3583 -0.1338  0.0035
17611W        W33685   3.571  17.757   1.580 -0.1415  0.4816 -0.2575
17612W        W33686  10.328   1.846   6.127  0.0055 -0.0795  0.0256
17613W        W33687  13.599   6.796   1.859  0.2541  0.2144  0.1174
17614W        W33688   1.176   5.645   0.652 -0.1145 -0.2324 -0.3331
17615W        W33689  15.371   9.480   5.358  0.0247  0.1310  0.1903
17616W        W33690  17.303   5.396   3.253  0.0305  0.2389  0.1057
17617W        W33691  14.225  14.876   2.032 -0.0651 -0.1110  0.1501
17618W        W33692  13.849  17.523  15.189  0.2883 -0.0556 -0.1685
17619W        W33693  15.871  15.065  11.916 -0.1752  0.4353 -0.0544
17620W        W33694   4.649  17.844  12.304 -0.1825  0.1100 -0.4241
17621W        W33695  12.042   7.433   5.776  0.0013 -0.2916  0.0409
17622W        W33696  14.434   3.850   0.036  0.0272 -0.2623  0.3027
17623W        W33697  11.385   6.166   3.785 -0.4080  0.0329  0.1106
17624W        W33698   2.156  13.833  15.967 -0.0648 -0.0057 -0.0496
17625W        W33699  12.068  14.525   5.703  0.0867 -0.1844 -0.0654
17626W        W33700   7.941   1.168  14.862 -0.1224  0.1489 -0.1204
17627W        W33701  12.690  16.317  12.180  0.0241 -0.2862  0.4344
17628W        W33702  13.339  16.229   0.843 -0.0708  0.0956 -0.0618
17629W        W33703  10.849  13.755  11.948 -0.0939  0.2536  0.0973
17630W        W33704   4.359   8.963  11.174 -0.0561 -0.2621 -0.2875
17631W        W33705  13.340   8.557   5.176 -0.4059 -0.1963  0.1920
17632W        W33706  11.729   2.238   4.990 -0.0590  0.3887  0.0114
17633W        W33707  16.757   1.287  13.372 -0.0489 -0.0041  0.0778
17634W        W33708   7.773   2.327   5.188  0.1072  0.1852 -0.3637
17635W        W33709   9.281  12.139   0.672  0.0870 -0.1362  0.3506
17636W        W33710   4.509   5.652   3.763  0.0400 -0.0423 -0.0107
17637W        W33711  13.192   8.149   4.889  0.0462  0.2070 -0.3755
17638W        W33712  17.745  12.126  10.897  0.1172  0.0000  0.1701
17639W        W33713   5.709  15.062   3.363  0.0505 -0.1121  0.1790
17640W        W33714   4.113  12.110  14.812 -0.0239 -0.0431  0.0494
17641W        W33715  18.045   3.574   4.190  0.0363  0.1335  0.0413
17642W        W33716  18.098  15.915   5.894  0.0391 -0.0529  0.2478
17643W        W33717  10.803  13.645   0.803 -0.1913 -0.1501  0.2140
17644W        W33718   4.737  13.362   4.866 -0.0562  0.0066  0.0158
17645W        W33719  15.523  10.872   5.738  0.1127  0.2013  0.2532
17646W        W33720   6.080  10.891  11.739 -0.4306  0.0188  0.2851
17647W        W33721   6.013   4.740  12.341 -0.2384  0.0490 -0.0608
17648W        W33722   3.207  12.496   1.809  0.0905  0.1740 -0.5402
17649W        W33723  16.132   1.732  12.797  0.2087 -0.0738  0.1046
17650W        W33724  17.947  12.010  16.005 -0.0417  0.0986 -0.0923
17651W        W33725   8.501   4.933   2.406  0.2277 -0.2149  0.2640
17652W        W33726  14.088   1.886  12.433 -0.3672  0.1116 -0.1588
17653W        W33727  16.393   1.421  15.827  0.2587 -0.0108  0.0613
17654W        W33728   0.393  12.674   6.177  0.1848 -0.0004  0.3497
17655W        W33729  17.860  12.931  15.084 -0.1773  0.1221  0.0548
17656W        W33730  14.497   6.351  13.524  0.0023  0.2213 -0.0276
17657W        W33731   0.088   8.288  11.416 -0.1175  0.1015 -0.2238
17658W        W33732  13.306   2.773  14.059  0.1722  0.0060  0.0466
17659W        W33733  12.047  12.936  12.724 -0.2318  0.0195 -0.0729
17660W        W33734  12.747   0.933  15.219  0.0800 -0.0908 -0.0851
17661W        W33735   7.151   4.521   4.872  0.0437  0.0511  0.0112
17662W        W33736   8.831  10.678   3.603 -0.1388 -0.1965  0.1161
17663W        W33737  17.531  11.044   3.734 -0.0893  0.0697 -0.2312
17664W        W33738   5.941  10.542   3.635  0.1262  0.0242  0.0563
17665W        W33739   4.454  13.787   1.889  0.1438 -0.3697 -0.0502
17666W        W33740   4.646   4.766   5.390 -0.0317  0.0813 -0.0278
17667W        W33741  16.207  15.661   3.595 -0.0505 -0.0701  0.0974
17668W        W33742  16.927   5.062   4.421  0.0081  0.2118 -0.2567
17669W        W33743  14.645   5.349  15.901 -0.0905  0.2761 -0.1849
17670W        W33744  11.612  18.563  11.733 -0.0490  0.0159  0.6161
17671W        W33745   1.034   0.833   1.098 -0.3175 -0.2588 -0.1332
17672W        W33746  11.474   9.730  11.644  0.3017  0.3115  0.3045
17673W        W33747  18.206   9.817   5.222  0.1574  0.0450  0.2693
17674W        W33748  11.208  12.250   0.277 -0.2510 -0.1421 -0.0877
17675W        W33749  11.689   2.555  12.996  0.0994 -0.1666  0.3473
17676W        W33750  14.659  18.232   2.249 -0.4064 -0.0964  0.0171
17677W        W33751   2.448  15.575  12.091 -0.0277 -0.2317 -0.0977
17678W        W33752  16.893   1.041  10.930 -0.0106  0.0949  0.2638
17679W        W33753  13.831   6.097  11.014  0.0805 -0.2021 -0.0904
17680W        W33754   2.383  12.924  14.409 -0.0768  0.0708 -0.0026
17681W        W33755   3.370   1.683  12.211  0.1087 -0.1633  0.1527
17682W        W33756   2.164   1.621   4.187 -0.1167 -0.2386 -0.0934
17683W        W33757  15.940  15.309   2.683 -0.3326  0.0857  0.2105
17684W        W33758  14.697  17.288   1.367 -0.0219  0.0294 -0.1808
17685W        W33759   7.038   5.855   0.446 -0.0068  0.2896  0.1815
17686W        W33760   6.813   0.837   3.038 -0.0805  0.3162 -0.0525
17687W        W33761   9.587  14.260  15.098 -0.0124  0.1175  0.0560
17688W        W33762  13.142   6.025   2.395 -0.0186  0.2452  0.0377
17689W        W33763  12.878   6.254  11.288  0.1069  0.0500 -0.1034
17690W        W33764  15.386   3.056  12.426 -0.0129  0.0385  0.1578
17691W        W33765  13.121  17.911  11.321 -0.1979 -0.0156  0.0329
17692W        W33766   8.478  16.451   1.111 -0.0669  0.3722 -0.2544
17693W        W33767  10.547  17.583  15.042 -0.0719 -0.3031  0.0621
17694W        W33768  11.661  12.013   2.421 -0.0874 -0.2654 -0.0493
17695W        W33769  14.751  12.683  13.511  0.2040 -0.5497 -0.0819
17696W        W33770  15.410   7.368  13.256 -0.1141  0.1233  0.0734
17697W        W33771   8.824   7.897   4.452 -0.5399  0.1565  0.1183
17698W        W33772  15.271   6.006  11.264 -0.1088 -0.0839  0.4149
17699W        W33773   3.702  14.269  11.796 -0.3218  0.1288 -0.0469
17700W        W33774  10.126   2.341   0.774  0.0805 -0.1071 -0.2228
17701W        W33775   5.717   1.937   4.359 -0.0843 -0.0280  0.1738
17702W        W33776   4.775  11.866   5.373 -0.3005 -0.0572  0.1334
17703W        W33777  12.792  17.571   1.401  0.1029 -0.0996  0.0494
17704W        W33778   5.387  15.088  12.638  0.1407 -0.5200 -0.3028
17705W        W33779   2.746  11.834   5.102  0.2454 -0.0826 -0.0699
17706W        W33780  16.840   5.328  12.564  0.0119  0.2549 -0.1651
17707W        W33781  15.663  13.822   0.803 -0.0758  0.0222 -0.2818
17708W        W33782  13.725  10.240   4.380  0.0084  0.3014 -0.1942
17709W        W33783  16.708  12.515  14.208 -0.0743 -0.1881 -0.5041
17710W        W33784   1.639  13.829  13.708  0.1358  0.0185  0.1254
17711W        W33785  11.030   9.957  15.728  0.0269  0.0798  0.0698
17712W        W33786  16.497   7.860   1.766  0.0962  0.2941 -0.2726
17713W        W33787   7.898  10.487   1.986  0.1172  0.4941  0.1118
17714W        W33788   7.924   7.349  13.116  0.0921 -0.0566 -0.0324
17715W        W33789  10.954   2.499   2.159 -0.0838  0.2331  0.3242
17716W        W33790   4.573   9.198  13.429 -0.2472  0.0740  0.0272
17717W        W33791   8.650   9.895   2.157 -0.0762  0.0180  0.0045
17718W        W33792   7.403  18.278  13.083 -0.1273 -0.3002 -0.1402
17719W        W33793   1.859  13.217   4.238  0.0025 -0.2042 -0.3547
17720W        W33794   7.132  15.652   4.910  0.0918 -0.0854 -0.2045
17721W        W33795  18.282  13.446   1.974  0.0504  0.2042  0.0671
17722W        W33796   5.828  12.854   3.884  0.0275 -0.1803 -0.0137
17723W        W33797   5.018  13.631  12.748  0.2461 -0.2980 -0.1214
17724W        W33798   9.638   8.525   4.050 -0.2365  0.1257 -0.1450
17725W        W33799   0.052   2.483   0.435  0.0739 -0.0518  0.1164
17726W        W33800  12.565   1.628  14.949  0.1537  0.1024  0.2856
17727W        W33801  11.499  16.204  12.681 -0.1335 -0.0372  0.1453
17728W        W33802  15.228   4.583  13.984 -0.1915 -0.2632  0.0788
17729W        W33803  13.952  16.131   0.171 -0.2502 -0.1003  0.2711
17730W        W33804  11.487   3.540   2.911  0.0475  0.0377  0.3761
17731W        W33805   2.307  16.202  14.741  0.0321 -0.0083  0.0305
17732W        W33806   5.253   3.942   5.086  0.2772 -0.2282 -0.3438
17733W        W33807   8.833  10.496   1.494  0.2924 -0.4279  0.1358
17734W        W33808   4.731  16.435   1.699  0.0531 -0.2089  0.0160
17735W        W33809  10.806  10.821  14.241  0.0870 -0.0502  0.2164
17736W        W33810  11.838  16.370   1.136  0.0063  0.3122  0.4261
17737W        W33811   9.668  12.841  11.317 -0.0262  0.1676  0.2144
17738W        W33812  10.451   8.096   1.874 -0.0991 -0.0319  0.1093
17739W        W33813  15.245  17.634  15.045  0.2576  0.0443  0.0196
17740W        W33814   7.236   3.539  14.541  0.2099 -0.2387 -0.0714
17741W        W33815   3.043   4.223   5.528 -0.2433 -0.1813  0.1266
17742W        W33816   9.618   9.380  15.571  0.5896 -0.1404 -0.0050
17743W        W33817   9.810  12.045  12.089 -0.1676  0.0740  0.3354
17744W        W33818  15.445  12.521  11.916  0.1725  0.1404  0.0824
17745W        W33819  17.728  11.471   1.261  0.0995 -0.1538 -0.1610
17746W        W33820  10.835   3.922  13.828  0.1298 -0.2063 -0.0939
17747W        W33821  11.720  13.800  13.323  0.0077  0.0247 -0.1000
17748W        W33822  18.094  17.986   0.551  0.0859  0.3194  0.0663
17749W        W33823  11.591  14.127   0.499 -0.3226 -0.3203 -0.1383
17750W        W33824  13.461  12.769  14.783 -0.0078 -0.2311  0.5040
17751W        W33825   8.693   7.547   1.018 -0.1887 -0.0391 -0.4505
17752W        W33826  14.678   7.474   1.922  0.2907  0.3144 -0.1572
17753W        W33827  13.333   0.096  14.196 -0.3401  0.0022  0.2421
17754W        W33828   3.610   8.701   6.380 -0.1632 -0.0993 -0.0329
17755W        W33829   8.749  12.839  14.317  0.1010  0.2516  0.1629
17756W        W33830   7.870  11.738   0.132  0.4066  0.0038 -0.0162
17757W        W33831  16.172   8.796  15.616  0.3027  0.2067 -0.1545
17758W        W33832  17.195  14.127   3.719  0.0869  0.1129  0.5287
17759W        W33833  18.315   4.875   1.385 -0.1292 -0.2027 -0.2516
17760W        W33834  10.653   8.577  15.858  0.1583  0.0139  0.1552
17761W        W33835   9.186  10.326  12.091 -0.0312 -0.0616 -0.3632
17762W        W33836   0.376   3.197   4.887 -0.0110 -0.0134  0.2489
17763W        W33837  13.738   9.870   3.991 -0.3129 -0.2876 -0.3423
17764W        W33838  16.252  14.944   2.995  0.1913  0.0546 -0.0151
17765W        W33839  18.450   1.695   3.872 -0.1308 -0.0651  0.0503
17766W        W33840  12.341   2.679   0.684 -0.1491  0.0257  0.1759
17767W        W33841   5.907   5.930   6.089 -0.0154  0.0568 -0.0525
17768W        W33842   4.392  16.653  14.669 -0.2123 -0.0767  0.0724
17769W        W33843   6.502   8.650  15.352 -0.2808 -0.1691 -0.0960
17770W        W33844   2.734   0.290  11.726 -0.1243  0.0624 -0.0207
17771W        W33845  17.783   0.506  14.052 -0.1074 -0.0301 -0.0077
17772W        W33846   1.243   1.845   0.403 -0.4094 -0.0934 -0.0186
17773W        W33847  10.364   4.589  15.868  0.2523 -0.1398  0.1159
17774W        W33848   0.948   9.726   1.046  0.1739  0.1397 -0.3063
17775W        W33849   8.173   8.927   1.306 -0.0735 -0.1762  0.2674
17776W        W33850  14.953  17.301   3.981 -0.0664 -0.0206 -0.4292
17777W        W33851   0.246  10.016   2.627 -0.1557 -0.1900 -0.0480
17778W        W33852  13.139   8.058   0.230 -0.1185 -0.2730 -0.0448
17779W        W33853   3.076   6.710  12.434 -0.3713 -0.0512  0.0029
17780W        W33854  14.471   3.441  15.360  0.0254 -0.0143 -0.1177
17781W        W33855   9.185   2.044   4.755  0.0701 -0.2660  0.1475
17782W        W33856   0.339  11.174   0.727  0.5169  0.0912 -0.2383
17783W        W33857   2.194  11.468  13.138 -0.3187 -0.0379 -0.1530
17784W        W33858   8.383   2.820  13.252  0.1549 -0.4636  0.1679
17785W        W33859   8.955  17.277  10.851  0.1518 -0.1658  0.1177
17786W        W33860   6.331  16.539  14.410  0.1594  0.0087  0.0102
17787W        W33861  10.755  17.971  12.039 -0.0673 -0.0996 -0.1878
17788W        W33862  11.954   5.607   5.003  0.2479 -0.3979 -0.0359
17789W        W33863  18.225  17.550  11.093 -0.2293  0.0953 -0.1965
17790W        W33864   2.963   4.708  11.485 -0.1206 -0.2416  0.3089
17791W        W33865   7.845  18.030  15.043 -0.1279 -0.1068 -0.3080
17792W        W33866   2.688   7.929   4.156 -0.2861 -0.1584  0.1508
17793W        W33867   6.212  16.258   2.695  0.1138 -0.0216 -0.1259
17794W        W33868   4.065   6.839   1.629 -0.0533 -0.3385  0.2350
17795W        W33869   4.926   8.400   2.448 -0.3889  0.0952 -0.0887
17796W        W33870   3.134   5.815   6.204  0.0085 -0.2501 -0.4494
17797W        W33871   8.893   1.574   4.351 -0.3231 -0.1154 -0.2069
17798W        W33872  10.524   2.189   5.085  0.1297 -0.4150 -0.0971
17799W        W33873   4.205  13.204  15.360  0.0254 -0.0838 -0.0057
17800W        W33874   0.062   6.768  12.966  0.0557 -0.0098 -0.1364
17801W        W33875  11.315  11.327   5.121  0.2291  0.3087  0.1648
17802W        W33876   7.609  16.618   2.048 -0.0817 -0.1239  0.1250
17803W        W33877   9.830  10.717   6.116  0.1021 -0.0937  0.2264
17804W        W33878  12.497  13.396   4.278  0.0578  0.1234  0.2217
17805W        W33879  10.359  12.858   5.035  0.2815  0.1684 -0.0853
17806W        W33880   6.011   4.791  13.264  0.0064  0.0536  0.0178
17807W        W33881  13.162   9.458  11.518  0.1091 -0.0292 -0.2430
17808W        W33882   1.059  10.375  12.338  0.1753 -0.0840 -0.1101
17809W        W33883  12.528   6.881   4.533 -0.2260  0.1764  0.0572
17810W        W33884  15.730   8.895   3.277 -0.1640 -0.2578  0.3138
17811W        W33885   4.947   3.700  14.120  0.2497  0.1486 -0.0733
17812W        W33886   3.125   3.487   3.295  0.1643  0.1952  0.1664
17813W        W33887   9.944   1.863  13.065  0.2302  0.0841  0.3231
17814W        W33888  17.633   9.632   0.519 -0.3855  0.3734  0.3347
17815W        W33889  18.476   2.744  14.823  0.4257 -0.1326  0.0797
17816W        W33890   8.598  15.075   4.101 -0.4833  0.0658 -0.0321
17817W        W33891  14.050   0.890   0.104 -0.1093 -0.1290  0.0069
17818W        W33892  13.392   1.639   0.006  0.3584  0.0448 -0.1323
17819W        W33893   0.514   0.737   1.251  0.3496  0.0353  0.2588
17820W        W33894  16.761   4.098  11.693 -0.0860  0.0357 -0.0998
17821W        W33895  12.244   3.524   4.638 -0.0674 -0.4147 -0.1291
17822W        W33896  13.300  17.702  14.524 -0.0071  0.1647  0.0838
17823W        W33897   1.763   1.183  12.382  0.0239  0.1272  0.1141
17824W        W33898  15.758  12.067  13.045 -0.2511 -0.0025  0.3678
17825W        W33899  15.670  13.695  11.500  0.2357  0.3979  0.0175
17826W        W33900  11.505  15.529   1.165 -0.1530 -0.0236 -0.1743
17827W        W33901   5.527   9.932  13.800 -0.0408 -0.0932 -0.1325
17828W        W33902  17.774   9.802   5.935 -0.0023 -0.3919 -0.0365
17829W        W33903   1.609   7.381   4.355  0.2505  0.0180  0.2371
17830W        W33904   3.085  18.242   1.947  0.0605 -0.0159 -0.0105
17831W        W33905  11.279  18.286   1.472 -0.1430  0.0126  0.1494
17832W        W33906  14.569  16.675   0.170 -0.3332  0.2053  0.0904
17833W        W33907   8.797   0.601  15.861  0.1352 -0.0288  0.4229
17834W        W33908  14.906  17.839  12.506  0.0527  0.0384  0.1789
17835W        W33909   9.238  13.579  15.619 -0.0967 -0.1476  0.1893
17836W        W33910  16.119   4.738  12.672  0.2994  0.0879  0.1319
17837W        W33911   7.268  15.584   0.486  0.0617  0.1868 -0.0401
17838W        W33912  17.229  18.329   2.139 -0.0455  0.2497 -0.1662
17839W        W33913   1.003  15.980  14.379 -0.2644  0.1774 -0.0802
17840W        W33914   8.831   9.033   1.107  0.5072  0.0457  0.1207
17841W        W33915   0.447   9.552   0.860 -0.0298 -0.0367 -0.6064
17842W        W33916   8.142  16.921   3.069  0.0610  0.0353 -0.1995
17843W        W33917  16.016   3.067   4.176 -0.0482  0.3256 -0.1498
17844W        W33918  10.118  11.898   1.693  0.0916 -0.0144 -0.0761
17845W        W33919  14.713  12.685  12.525 -0.0454  0.2244  0.0836
17846W        W33920   1.108   3.584  11.698  0.0168  0.0041 -0.0616
17847W        W33921  13.789   9.690  13.171 -0.4207  0.0525  0.0413
17848W        W33922  15.699   8.344  14.579  0.1695  0.4956  0.0668
17849W        W33923  17.324  10.014  15.999 -0.0168 -0.0361  0.0926
17850W        W33924  18.177   5.106   3.009  0.3138  0.1175  0.0304
17851W        W33925   4.325  13.920  10.596 -0.3996 -0.1192 -0.0476
17852W        W33926   7.830  11.629  15.157  0.1085  0.0529 -0.0337
17853W        W33927  16.930   5.882  15.340 -0.0382  0.1349  0.0666
17854W        W33928   3.543  11.620  14.012 -0.0794 -0.1763  0.1929
17855W        W33929   2.377   1.748   2.196  0.4238  0.2897  0.1081
17856W        W33930  10.138   2.529   1.260 -0.2340 -0.2045 -0.2577
17857W        W33931  10.079   8.053  12.588  0.2071 -0.0584 -0.2759
17858W        W33932  12.663   8.505   2.131  0.0673 -0.2368 -0.4096
17859W        W33933   7.419  11.424  11.941 -0.1451  0.0418  0.1603
17860W        W33934   5.261  11.008   2.701  0.1105 -0.3778 -0.1850
17861W        W33935  10.985   8.463  13.982  0.1306  0.1134 -0.0230
17862W        W33936  11.999  13.482  13.559  0.3060 -0.1502  0.0929
17863W        W33937   1.297   6.734   0.654  0.2793  0.1398 -0.0944
17864W        W33938  17.396   7.082   4.978 -0.0994 -0.0481 -0.0525
17865W        W33939  12.639   0.311   4.211  0.0662  0.0774 -0.1104
17866W        W33940   4.100   7.432  15.129 -0.1325 -0.0431  0.2859
17867W        W33941  10.057   1.222   4.344 -0.2972  0.1374  0.0395
17868W        W33942   9.811   7.015   2.566 -0.0310 -0.0329  0.2666
17869W        W33943  17.736   6.721   4.983  0.1982  0.1725  0.0292
17870W        W33944  14.405   0.685   3.137 -0.0632  0.0837  0.1668
17871W        W33945   0.898  11.154  10.755 -0.1185  0.2071  0.1253
17872W        W33946  15.634   6.500   2.225  0.2661  0.2844 -0.0033
17873W        W33947   4.474   5.198  15.970  0.0171 -0.1513 -0.0236
17874W        W33948   0.081  17.025  13.347  0.1432  0.0307 -0.0372
17875W        W33949   8.160  12.632   1.001  0.1548  0.0534  0.0112
17876W        W33950  11.486  13.523  10.888 -0.2229 -0.0681 -0.0938
17877W        W33951  13.294  17.737   0.589  0.3495 -0.1713 -0.1005
17878W        W33952  18.223   5.113   4.229  0.2829 -0.1055  0.1342
17879W        W33953  12.218   7.391  12.866 -0.0867 -0.0858  0.0340
17880W        W33954   5.155   7.986   1.148 -0.2812  0.0666  0.0141
17881W        W33955   6.088   4.160   0.808  0.0708  0.1678 -0.0926
17882W        W33956  16.043   1.444   0.349  0.1776 -0.0646  0.1594
17883W        W33957  10.284  18.146   0.461  0.1074  0.3887  0.2276
17884W        W33958   1.925  10.600  11.671  0.0581  0.0892 -0.0929
17885W        W33959   0.836   1.426  15.938 -0.2588 -0.3184 -0.0451
17886W        W33960   1.331   8.115  12.536  0.1564  0.0789  0.0763
17887W        W33961   5.793  16.691   3.566  0.1578 -0.3219  0.2305
17888W        W33962  10.399  11.148  15.623  0.5275  0.0381  0.0043
17889W        W33963   4.290   3.456   2.247 -0.0138 -0.0393  0.1891
17890W        W33964  16.085  17.594  12.395  0.6190 -0.2958  0.1943
17891W        W33965  15.540  17.133  15.063  0.0055 -0.0482 -0.0061
17892W        W33966   0.608   9.393  15.861 -0.0604  0.0825 -0.1218
17893W        W33967  14.586  17.431   0.851  0.0166 -0.0459  0.2029
17894W        W33968   8.803   5.797   0.710 -0.1228  0.3729 -0.1355
17895W        W33969   0.817   4.774  11.183 -0.1044 -0.0689 -0.2298
17896W        W33970   2.988   7.988  14.178 -0.4273 -0.2183 -0.0251
17897W        W33971   8.868   7.982  12.678  0.0623  0.0697  0.0361
17898W        W33972  11.448  15.446   4.429 -0.2695  0.1063  0.2626
17899W        W33973   0.346  12.990   4.765  0.1762 -0.0704  0.0329
17900W        W33974  10.933   2.598  14.264 -0.1093 -0.1110  0.1381
17901W        W33975  12.119  11.109  14.662 -0.2126 -0.1333 -0.0088
17902W        W33976   7.537  11.056  11.324 -0.0184  0.0005 -0.1491
17903W        W33977   5.320  11.222  15.715 -0.0608 -0.3230  0.1333
17904W        W33978   6.547   0.514  13.971 -0.0454  0.0467 -0.0522
17905W        W33979  10.193  15.371  11.870  0.0884  0.1860 -0.0394
17906W        W33980   2.280   1.150   2.147  0.2203 -0.0268 -0.1449
17907W        W33981   6.767  14.901  15.122 -0.1656  0.0106 -0.3355
17908W        W33982  11.055   7.314   1.782  0.2470 -0.0128 -0.0519
17909W        W33983  11.644  14.345   5.501 -0.2383  0.0181  0.1686
17910W        W33984  12.223  11.793   2.121 -0.1552  0.1117  0.0694
17911W        W33985   4.016  17.088  15.624  0.0910  0.0363 -0.2104
17912W        W33986  17.018   2.416   2.329 -0.2083  0.0433  0.1292
17913W        W33987  14.165  13.003  12.631  0.1425 -0.0902 -0.1162
17914W        W33988  11.533   5.349   4.162  0.0985  0.0556  0.2455
17915W        W33989  16.016   0.564  14.809 -0.1392 -0.2262 -0.0814
17916W        W33990   5.595  12.378  13.205 -0.0734  0.0195  0.2136
17917W        W33991   1.617   8.535   4.682  0.0882  0.0915 -0.1576
17918W        W33992  18.216  16.477   4.413  0.1007 -0.0401 -0.2439
17919W        W33993   0.574  17.771   2.678  0.3168  0.1119  0.2559
17920W        W33994  11.071   5.990  13.220  0.0138  0.1063 -0.1784
17921W        W33995   5.095   4.274   4.093  0.0884 -0.0724 -0.1289
17922W        W33996  17.348   1.763   4.349  0.1954 -0.2224 -0.0871
17923W        W33997  18.216   8.446   3.270 -0.0362  0.2389 -0.2164
17924W        W33998   5.267  16.263  14.438 -0.1117 -0.2815  0.1193
17925W        W33999  15.976   8.597   0.761  0.2623  0.2384 -0.0148
17926W        W34000   6.522   4.876   1.064 -0.1307  0.0379  0.1091
17927W        W34001  16.232  14.406  15.048  0.0645 -0.1112  0.2109
17928W        W34002  16.478   2.644   2.284  0.1944  0.0156  0.0390
17929W        W34003  14.001  14.133  13.606 -0.0694  0.0591 -0.2011
17930W        W34004  18.566   9.080  11.983  0.0065  0.2117  0.2477
17931W        W34005   0.952   2.056   3.049 -0.0869  0.1634  0.2508
17932W        W34006   0.920   5.685   1.598  0.1320 -0.4607  0.2191
17933W        W34007  10.591   6.895  13.630 -0.2254 -0.3379 -0.0702
17934W        W34008  14.127   4.947   5.588  0.1035  0.2545  0.3003
17935W        W34009  14.092   2.766   2.203  0.4462 -0.0766  0.0275
17936W        W34010   3.622   6.435  12.481 -0.2402  0.2927  0.1318
17937W        W34011   4.590   9.499  13.029  0.3281  0.1311 -0.2450
17938W        W34012   4.483  16.847  12.382  0.4349  0.3143 -0.0647
17939W        W34013   4.737   1.071  12.594 -0.1426  0.1464  0.3232
17940W        W34014  16.299  17.553   1.284  0.0595 -0.4869 -0.0865
17941W        W34015   0.863  17.198  13.949  0.1791  0.0340  0.0117
17942W        W34016   2.870   1.519   2.182  0.1025  0.2529  0.1197
17943W        W34017  13.681  13.757  13.432  0.0622 -0.1514 -0.0020
17944W        W34018   8.691   3.666  15.573  0.0040 -0.0805  0.0045
17945W        W34019   3.272   4.348   3.255  0.2546 -0.1700  0.0673
17946W        W34020  11.726   8.844   4.368  0.1223  0.1865 -0.1683
17947W        W34021  16.948  14.802   4.818  0.0465 -0.1708 -0.1830
17948W        W34022   7.162   6.769  15.348 -0.1793  0.0682  0.1705
17949W        W34023   1.312   7.167   3.164  0.1845  0.1105  0.2633
17950W        W34024  15.173   3.455  11.533  0.0153  0.1022 -0.1120
17951W        W34025  12.193   2.501  12.940 -0.0023  0.1962 -0.1881
17952W        W34026  17.830   8.936   1.749  0.0644  0.2451 -0.2053
17953W        W34027  13.570   9.464   5.138  0.1114  0.1040 -0.1665
17954W        W34028  18.457  15.797   2.199 -0.0178 -0.1372 -0.4037
17955W        W34029  15.252  10.488  12.449  0.1610 -0.0945 -0.2567
17956W        W34030   1.262   3.509   1.858  0.1272 -0.0018  0.2773
17957W        W34031   7.659  12.660   3.622 -0.0527 -0.0741  0.0757
17958W        W34032   4.883   4.409   0.275  0.0260  0.0764  0.2620
17959W        W34033   4.531   4.518   3.236 -0.0766  0.0272  0.1063
17960W        W34034   3.185  17.164   0.187 -0.2798  0.1012  0.0593
17961W        W34035  13.533   7.767   0.338  0.1197  0.1871 -0.4139
17962W        W34036  15.933  17.352  15.882 -0.0645 -0.2065 -0.3538
17963W        W34037  17.277  18.371  10.860  0.1505  0.3010 -0.0605
17964W        W34038   8.363   4.189  13.693 -0.3123 -0.5079 -0.1180
17965W        W34039   1.518  17.645   1.403 -0.2900  0.2143  0.2486
17966W        W34040   5.080  12.868   2.621 -0.1687  0.1706 -0.0506
17967W        W34041   5.668   0.227  13.836 -0.0907 -0.1094 -0.0912
17968W        W34042   0.341  10.764   3.469  0.3083  0.4664 -0.3389
17969W        W34043   3.956  16.843   1.732  0.2906 -0.3079  0.3167
17970W        W34044   1.674   7.724  12.885 -0.1411  0.0558  0.2406
17971W        W34045  13.143   8.852   0.300  0.0574  0.4907  0.1137
17972W        W34046  10.817  14.002  12.484  0.0060  0.2740  0.1391
17973W        W34047   7.001   8.855  10.219  0.1090  0.1619 -0.0665
17974W        W34048   7.608   8.552   3.988  0.2849 -0.3560  0.1470
17975W        W34049   5.498   0.058   1.535  0.1342  0.0307 -0.3247
17976W        W34050  14.248   8.956   5.190  0.1740  0.2113 -0.2590
17977W        W34051  10.114  13.652  11.261  0.3008  0.0242 -0.3510
17978W        W34052   2.547   0.266   0.008 -0.0297 -0.1834  0.2294
17979W        W34053  13.454   1.915   9.887  0.0595 -0.0631  0.1580
17980W        W34054   4.217   9.351  15.883 -0.0041  0.4075 -0.0190
17981W        W34055   7.817   2.781  14.092 -0.1527 -0.1552  0.1251
17982W        W34056   0.394   0.370   4.404 -0.2385  0.0007  0.0259
17983W        W34057   9.646  13.625   4.383  0.0848  0.1787  0.0919
17984W        W34058   6.970   0.573  11.187 -0.1151  0.0782  0.2583
17985W        W34059  16.228  12.064  15.380 -0.1158 -0.1740 -0.1591
17986W        W34060   5.470  16.132   4.208 -0.0399  0.1572  0.0601
17987W        W34061   4.409   3.338  14.813 -0.3036 -0.2831  0.0270
17988W        W34062  14.094   2.480  13.233 -0.2481  0.1121 -0.0039
17989W        W34063   8.781   1.055   2.447  0.2625  0.1650 -0.2787
17990W        W34064   4.874  14.922   3.715 -0.0719  0.2102  0.0710
17991W        W34065  14.677   8.079   5.047 -0.0866  0.1224  0.4023
17992W        W34066   4.530   6.676   3.561 -0.1613  0.1649  0.0491
17993W        W34067   4.906  12.318   3.748  0.0392  0.0774 -0.1877
17994W        W34068   0.578  10.289  15.864 -0.2141  0.0678 -0.3177
17995W        W34069  14.522   7.515  11.802  0.0477 -0.0285  0.0886
17996W        W34070  16.272   3.057  14.543 -0.0482 -0.0670  0.0099
17997W        W34071   6.954   7.244  13.207 -0.0286  0.2155  0.4025
17998W        W34072   5.220  13.081  11.697  0.3015  0.2107  0.0295
17999W        W34073   3.923   4.296   4.817 -0.2640  0.1611  0.2452
18000W        W34074   1.651   7.548  14.346  0.1504 -0.1604  0.4066
18001W        W34075   0.387  13.696  14.140  0.2821  0.0657 -0.0719
18002W        W34076  12.129  11.900  12.938  0.3630 -0.2729  0.2017
18003W        W34077  16.377   5.540   1.650  0.3293  0.1027 -0.2483
18004W        W34078   1.811  17.208   4.354 -0.0338  0.0444  0.1034
18005W        W34079   4.257  18.411   2.108  0.2170 -0.1786  0.0977
18006W        W34080  11.470   4.528   4.373 -0.0370  0.0639 -0.3185
18007W        W34081   3.208   6.916   4.751  0.0157  0.0614 -0.1993
18008W        W34082   3.463   7.420  12.457 -0.0459 -0.0169  0.1683
18009W        W34083   8.530   4.748  12.334 -0.2344 -0.0546 -0.1302
18010W        W34084   2.123   0.315   2.738 -0.0324 -0.0016  0.0368
18011W        W34085   4.671  13.799  11.378  0.2519  0.3037 -0.2333
18012W        W34086   4.568  16.909   5.493  0.0531  0.1176  0.0504
18013W        W34087  15.600  12.310  12.339  0.2946  0.0372 -0.3816
18014W        W34088  12.740   1.167   4.746 -0.2233 -0.0305 -0.1196
18015W        W34089  10.348  16.014  11.628  0.2964 -0.2166  0.0633
18016W        W34090   9.775  11.562   2.568 -0.2861 -0.0382 -0.1496
18017W        W34091   4.967  16.481  12.936 -0.3618 -0.0805  0.1080
18018W        W34092   0.130   0.688  10.985 -0.1850  0.1855 -0.0840
18019W        W34093   3.183   7.486   4.052 -0.1582 -0.0657 -0.0694
18020W        W34094   1.982   9.100   0.747  0.1904 -0.2902 -0.1944
18021W        W34095  10.884  17.098  10.974  0.3491  0.1917 -0.0485
18022W        W34096   8.572  16.112   3.219  0.0203 -0.0066 -0.1310
18023W        W34097   6.926   8.721   0.972 -0.1352  0.0730  0.2809
18024W        W34098   6.756   5.850   0.997 -0.1157  0.0315 -0.3150
18025W        W34099   4.178   5.025  14.555 -0.3956 -0.3902 -0.0146
18026W        W34100   7.622   6.326  14.439 -0.0848 -0.0634  0.3115
18027W        W34101   0.683   7.347   3.187  0.0815 -0.2255  0.0817
18028W        W34102  10.923  11.797   5.477 -0.2138  0.0272  0.1715
18029W        W34103  15.281  16.771  11.639 -0.1436  0.2173 -0.1906
18030W        W34104  18.435  11.951   2.266  0.0053  0.0896  0.2978
18031W        W34105   6.127   6.067  12.637 -0.0644 -0.3128  0.0181
18032W        W34106  17.019   0.945   2.123  0.0470 -0.0899 -0.0576
18033W        W34107  13.926   6.241   4.913 -0.0092  0.4528 -0.0500
18034W        W34108  14.406   2.258  12.224  0.0378 -0.2319  0.0684
18035W        W34109   4.004   7.688  13.782  0.1809  0.2044  0.2304
18036W        W34110   5.592  15.488   3.028  0.0683 -0.3193 -0.1135
18037W        W34111  18.313   3.547  13.614 -0.1400  0.2413 -0.0256
18038W        W34112   1.091   0.024   3.077 -0.1122  0.1212  0.0484
18039W        W34113   2.416  13.698   2.291 -0.3107 -0.2392 -0.1812
18040W        W34114  13.710  15.410   2.777  0.0111  0.0926  0.2569
18041W        W34115   3.148   5.169   1.105 -0.0141  0.2594 -0.0435
18042W        W34116  13.199  15.094   2.170  0.0925  0.3232  0.3030
18043W        W34117   3.045   8.932  13.999 -0.1155 -0.0715  0.0026
18044W        W34118   2.532   4.132  12.331 -0.2436 -0.1372  0.2882
18045W        W34119  10.400  10.440   4.865 -0.0893 -0.0030  0.0237
18046W        W34120   1.851  14.229  12.038 -0.0449 -0.1814 -0.1272
18047W        W34121  18.089   6.585  12.975  0.0926  0.1209  0.0587
18048W        W34122   8.139  14.942   2.269 -0.0664 -0.0677 -0.1128
18049W        W34123  10.920  10.289  14.945 -0.0748  0.0978 -0.4531
18050W        W34124   5.754  10.288  11.814 -0.1344 -0.2318 -0.1231
18051W        W34125  10.236   7.396   3.460 -0.2118 -0.0113 -0.2040
18052W        W34126  15.485   5.595  14.830  0.3083  0.0939  0.3225
18053W        W34127  14.000   8.024   5.740  0.2485 -0.2009  0.3985
18054W        W34128  15.354  13.850   3.007  0.0625  0.1219  0.2482
18055W        W34129   9.503   2.784  12.055  0.0903  0.0275 -0.0082
18056W        W34130   9.006   3.009   0.680 -0.0985  0.2196 -0.0190
18057W        W34131   0.225   5.912   5.860  0.2381  0.2281  0.3441
18058W        W34132  16.426   5.536   3.894 -0.3534 -0.1036  0.0497
18059W        W34133   1.774  12.796  11.421 -0.3203  0.2839 -0.0360
18060W        W34134  10.580  14.672   1.320 -0.3803 -0.1006  0.3281
18061W        W34135  14.614  13.930   4.473  0.3353  0.0773 -0.0567
18062W        W34136   5.617   9.691   2.228  0.2498  0.1058  0.1546
18063W        W34137  15.965   1.162   5.189  0.0066 -0.0742  0.2950
18064W        W34138  13.692   9.785   5.505 -0.0915 -0.1781  0.2164
18065W        W34139   6.509  10.731   0.895  0.1323 -0.2291 -0.0271
18066W        W34140   7.686  10.153  11.959  0.0130  0.1222 -0.3529
18067W        W34141   6.026  13.520   5.641 -0.0174  0.2143 -0.1958
18068W        W34142  10.704  14.245  13.264  0.1091 -0.0513  0.1194
18069W        W34143   8.998   4.642   1.004 -0.3124  0.3305 -0.1121
18070W        W34144  13.988  18.265  13.939  0.0968  0.2026  0.5929
18071W        W34145   7.231  14.040   4.771  0.1534  0.2070 -0.0566
18072W        W34146  10.789   8.974   1.905  0.0733 -0.0263 -0.3447
18073W        W34147  14.146  17.516  10.879 -0.0611 -0.0607  0.1329
18074W        W34148   3.011  18.229  12.696  0.0415  0.4382 -0.0838
18075W        W34149  10.427   3.891   4.920 -0.2991 -0.2464 -0.1020
18076W        W34150  10.013  18.174  15.474 -0.0336 -0.0723  0.1890
18077W        W34151  10.477   1.203  12.061 -0.0902  0.2542 -0.3185
18078W        W34152  17.723  16.765  15.673  0.1776  0.1460  0.0218
18079W        W34153  16.963  12.954  14.918 -0.2771 -0.0853 -0.1760
18080W        W34154   4.671   9.878  13.795  0.6709 -0.2490 -0.2648
18081W        W34155  17.282  11.820  10.739  0.1974 -0.1378  0.0287
18082W        W34156   9.847   2.675   0.355  0.1608 -0.0603 -0.1190
18083W        W34157  13.236   2.308  15.314 -0.0906  0.1372  0.1027
18084W        W34158  13.725  12.149  12.606  0.0313  0.1521 -0.0653
18085W        W34159   9.781   1.108  15.254  0.0180  0.4585  0.3981
18086W        W34160   9.142  12.506   3.516 -0.0358  0.1121 -0.0889
18087W        W34161  14.808   8.671   1.527  0.1637 -0.1805  0.0345
18088W        W34162   0.858   3.376   0.629 -0.2036 -0.0222 -0.2014
18089W        W34163  16.949  11.088  14.269 -0.1345 -0.2271 -0.2051
18090W        W34164   8.744   3.352   3.075 -0.0423 -0.0848 -0.0399
18091W        W34165  15.583   5.201   1.709  0.0066  0.0451 -0.0704
18092W        W34166  14.670   5.157   3.736  0.1631  0.0836 -0.4575
18093W        W34167  11.069   0.002   5.986  0.1750 -0.1420 -0.0979
18094W        W34168  16.927   3.849  12.770  0.2611 -0.1476 -0.0105
18095W        W34169  12.754   3.893   2.404  0.0627  0.0056  0.4271
18096W        W34170   1.542  13.936   2.927  0.1190 -0.0195 -0.1214
18097W        W34171   4.327   8.743  14.400 -0.1193 -0.0069  0.1252
18098W        W34172   0.624   6.029   2.315 -0.0713 -0.1002  0.1155
18099W        W34173  10.344   7.988  13.829  0.1770 -0.0492 -0.2462
18100W        W34174  18.086   3.331  10.803  0.2040  0.0844  0.1191
18101W        W34175  15.584  10.471  11.142  0.2905  0.0026 -0.2330
18102W        W34176   7.008  18.261  13.557 -0.1062  0.1103  0.0913
18103W        W34177   6.079  17.106   0.263 -0.0099  0.2760  0.1697
18104W        W34178  10.706   9.463   3.028  0.0440  0.1542  0.2987
18105W        W34179  11.213   6.152   0.407  0.1341  0.1394 -0.2901
18106W        W34180  18.524  15.297  11.486 -0.1995  0.2414 -0.0729
18107W        W34181  11.926   7.147   1.163 -0.0158 -0.2395 -0.0760
18108W        W34182  17.709  11.552  14.238 -0.0175 -0.3467 -0.1817
18109W        W34183   4.117   7.981  12.049  0.0464 -0.2520  0.0484
18110W        W34184  11.456  10.157   1.375  0.0793  0.1992  0.0184
18111W        W34185   8.274   7.860  12.963 -0.0079 -0.1369 -0.3770
18112W        W34186   1.086   7.068   4.023  0.1487 -0.3044  0.1915
18113W        W34187   4.508  13.462   2.703  0.1919 -0.0833  0.3474
18114W        W34188   0.425  15.772   0.170 -0.1193  0.0499 -0.2934
18115W        W34189  13.832   6.891  14.212 -0.2757  0.5917  0.1628
18116W        W34190  17.022   1.242   1.205 -0.2823  0.4723  0.2074
18117W        W34191  18.197   0.991  15.635 -0.0587 -0.2056  0.0673
18118W        W34192   2.368  10.135   0.893 -0.2209 -0.2190  0.0776
18119W        W34193   8.858   5.945  11.348 -0.5280  0.3804 -0.0211
18120W        W34194   8.810  11.027   2.757  0.1080 -0.1784 -0.1523
18121W        W34195   9.736  16.800  10.664 -0.4583  0.0492  0.1108
18122W        W34196  16.713   4.740   5.730 -0.1619  0.0393 -0.0435
18123W        W34197   2.736   2.890   2.776 -0.1245 -0.2663  0.1651
18124W        W34198  11.819   7.095  16.012 -0.2118  0.1115 -0.0703
18125W        W34199  11.682  14.204  12.474  0.3683 -0.3424  0.0218
18126W        W34200   2.462   3.782   2.442 -0.1806  0.0069  0.0109
18127W        W34201   5.056  14.176  14.009  0.2656 -0.2490  0.1345
18128W        W34202   2.914  16.591   2.744 -0.0290  0.2624  0.0505
18129W        W34203  17.556   7.619  13.463 -0.1467 -0.0197 -0.0016
18130W        W34204   1.922   4.738  12.519 -0.3387 -0.1438  0.2323
18131W        W34205  10.425  12.903  14.162  0.3696 -0.0809  0.2534
18132W        W34206   7.145   8.254   3.794  0.2891 -0.1126 -0.0000
18133W        W34207  17.721  14.202   5.518  0.2605  0.2192 -0.0847
18134W        W34208   3.446   8.015   3.329 -0.0648 -0.2451  0.1449
18135W        W34209  12.455   5.333   5.171 -0.2398 -0.0020 -0.3639
18136W        W34210  12.385   9.740   2.032  0.0004 -0.0691  0.1611
18137W        W34211  18.471   5.000  13.349  0.0009 -0.4303  0.2386
18138W        W34212  12.281   4.853  15.837  0.1041 -0.1031  0.0112
18139W        W34213   6.395  11.335   4.315  0.0715 -0.1858  0.3620
18140W        W34214  14.947  12.667  11.795  0.1913  0.1863 -0.0590
18141W        W34215   3.146  14.004  15.817  0.2241  0.2144  0.2089
18142W        W34216   6.800   0.099   0.922 -0.0437  0.3533 -0.1879
18143W        W34217   9.136   6.798   5.297  0.2887  0.0973 -0.0940
18144W        W34218  17.907  16.414   3.499 -0.0304  0.0637 -0.0571
18145W        W34219   2.603  15.424   1.404  0.1803  0.1888  0.0095
18146W        W34220   0.229   1.912   2.502  0.2285 -0.0805  0.1019
18147W        W34221  15.752   5.826   4.665  0.1099  0.0164 -0.1809
18148W        W34222   1.520  10.631  15.826 -0.0359 -0.2996  0.1237
18149W        W34223  18.483   0.590   4.349  0.0502 -0.0405  0.0461
18150W        W34224  13.082  13.563  12.044 -0.0662 -0.0846  0.1044
18151W        W34225  18.037   2.977   5.474  0.0140  0.1845 -0.0532
18152W        W34226   0.297  17.782   3.643 -0.0623  0.0175  0.2328
18153W        W34227  11.110   8.825  15.737  0.0135  0.1144 -0.0949
18154W        W34228  15.916  14.528   2.015 -0.4424  0.2622  0.1588
18155W        W34229   1.841   1.348  14.639  0.1051 -0.2063  0.0295
18156W        W34230  10.305   0.357   1.312 -0.0339 -0.3889 -0.0374
18157W        W34231   9.368  12.265   0.179  0.2071  0.2070 -0.0475
18158W        W34232  17.345  14.759   0.658  0.1744 -0.3728 -0.0813
18159W        W34233  12.053  13.258  15.345 -0.3926 -0.0997  0.0712
18160W        W34234   4.259  16.611   2.833 -0.0256 -0.1858 -0.0108
18161W        W34235   3.037   6.973  15.562 -0.0347 -0.0345  0.2165
18162W        W34236  10.370   4.971  14.812 -0.4049 -0.1704 -0.1495
18163W        W34237  12.948  15.038  11.991 -0.0971  0.2650 -0.1063
18164W        W34238   8.840   9.538   4.254 -0.1632  0.0778 -0.0076
18165W        W34239   1.037   8.562  15.720 -0.1479  0.0342 -0.1365
18166W        W34240  10.455   1.115   2.419  0.0020 -0.0731  0.4687
18167W        W34241  16.562  17.276  13.614 -0.0433  0.1304 -0.2262
18168W        W34242   1.802  18.284  14.874  0.1028 -0.2634 -0.1225
18169W        W34243   6.691   2.513  12.344  0.4451 -0.2773 -0.2305
18170W        W34244  15.723  11.829   4.636 -0.0269  0.1157  0.0186
18171W        W34245   5.736   4.653   3.672  0.0063 -0.4062 -0.1913
18172W        W34246  17.518  14.303   1.027  0.2565  0.2979 -0.2746
18173W        W34247   8.146  11.371   1.180 -0.1360 -0.1160  0.1937
18174W        W34248   2.451  15.736   4.759 -0.3510 -0.0248  0.0272
18175W        W34249  11.523   8.194  15.168  0.1796  0.1536  0.0311
18176W        W34250  16.349  13.329  15.201 -0.1730  0.1485  0.0667
18177W        W34251  17.033  10.771   4.260 -0.1116  0.0167 -0.1776
18178W        W34252  15.907  14.026  13.913 -0.1844 -0.1411  0.1329
18179W        W34253   0.147   7.466   4.005 -0.1435  0.0161  0.2049
18180W        W34254  11.523   2.950   0.478  0.5338  0.1708  0.0938
18181W        W34255  17.058  17.000  10.946 -0.0802  0.1254 -0.0825
18182W        W34256  11.084  15.697   3.168  0.1662  0.2333  0.1047
18183W        W34257   6.489   5.994   0.550  0.1450  0.0387  0.3492
18184W        W34258  16.328   2.328   1.293 -0.0037 -0.0566 -0.0354
18185W        W34259   9.853   8.507  15.749 -0.1648 -0.4078  0.0210
18186W        W34260   4.835  13.650  13.229  0.1587  0.1057 -0.0970
18187W        W34261   0.481   8.762   5.324  0.2270 -0.1123 -0.2770
18188W        W34262  10.240  16.448  15.890  0.2841 -0.3492  0.0383
18189W        W34263  15.342   2.895   1.769  0.0341  0.0130 -0.2969
18190W        W34264  15.857  11.083  14.000  0.1233 -0.2236  0.1203
18191W        W34265   8.540  17.808   2.327 -0.0261  0.0301 -0.0105
18192W        W34266  17.757   3.642   0.070  0.2621  0.2928 -0.0596
18193W        W34267   6.411   2.626   2.303  0.1417 -0.2488 -0.0930
18194W        W34268  11.108   2.309   4.140 -0.0623 -0.1817 -0.1163
18195W        W34269   6.787   4.337   3.490  0.0198 -0.2932 -0.3067
18196W        W34270  15.224  15.939   0.343  0.2285 -0.0469 -0.2222
18197W        W34271   7.336   7.839  13.711 -0.1596  0.1876 -0.1643
18198W        W34272   1.906  10.004   2.266 -0.2339 -0.1137 -0.2420
18199W        W34273  10.244   6.697   0.085  0.2257 -0.0061 -0.0277
18200W        W34274   3.366   4.461  14.688 -0.1158 -0.0247 -0.1391
18201W        W34275   4.494  14.132  14.172 -0.1564  0.3338 -0.1943
18202W        W34276   4.037  14.579  11.916 -0.2950 -0.1669 -0.0303
18203W        W34277  12.863  11.672  14.176 -0.0154 -0.1707 -0.1240
18204W        W34278   9.769   0.067  11.422  0.1403 -0.2337 -0.3146
18205W        W34279   3.426   1.822  14.444  0.0565  0.1745 -0.6430
18206W        W34280  11.492  10.855  13.491 -0.0839  0.4049 -0.3983
18207W        W34281   7.366  17.652   5.656  0.1563  0.1006  0.1069
18208W        W34282  14.165  12.707  13.599  0.2112 -0.0680 -0.0326
18209W        W34283   6.058  17.076   0.737  0.0999 -0.0171  0.0726
18210W        W34284  16.897  15.186  15.399  0.2428 -0.1614 -0.0745
18211W        W34285   6.670  13.354   4.823 -0.0552  0.2097 -0.1553
18212W        W34286  15.530   7.489   0.262  0.0325  0.1681  0.0704
18213W        W34287   5.618   5.503   4.350  0.1279 -0.1238 -0.5639
18214W        W34288   3.087   8.279  12.852 -0.0603  0.2607  0.1279
18215W        W34289   9.406  14.734   1.112 -0.1250 -0.2733 -0.0688
18216W        W34290  12.839   5.983  15.940 -0.0058  0.2163  0.1257
18217W        W34291   1.017  17.683  14.986  0.2472  0.1480 -0.0550
18218W        W34292   7.237  13.937  12.770  0.1684 -0.0666  0.0685
18219W        W34293  11.455  14.689   4.999  0.0733 -0.2830 -0.0589
18220W        W34294   5.028   4.732  10.902  0.1545  0.1029 -0.0306
18221W        W34295   0.332  12.735  13.816  0.3484 -0.2137  0.1541
18222W        W34296  11.494   1.272   2.278  0.1530  0.0476 -0.0532
18223W        W34297  17.596   4.652   1.878  0.0212 -0.0481  0.0897
18224W        W34298  11.875  14.557  13.796 -0.1682 -0.0451 -0.0327
18225W        W34299  16.518  12.895   4.798 -0.0932 -0.0383 -0.0791
18226W        W34300   2.717   0.931  13.835 -0.0198  0.0157  0.0485
18227W        W34301  11.909   7.698  12.570 -0.1806 -0.0257  0.0159
18228W        W34302   0.053   7.605   3.551 -0.2361 -0.0328 -0.0967
18229W        W34303   0.649  17.097   0.460  0.2084 -0.0219  0.1165
18230W        W34304  16.726   2.486  13.113 -0.1459 -0.1922 -0.3371
18231W        W34305   5.037  11.091   3.169  0.2893 -0.0497 -0.2614
18232W        W34306  15.957   8.940  10.265 -0.2078  0.4103 -0.2397
18233W        W34307  15.255   4.848  12.982  0.1573  0.1130 -0.1648
18234W        W34308   7.288  17.648  12.273  0.2033  0.0323  0.2552
18235W        W34309  15.877  17.378  15.279 -0.0860 -0.3576 -0.1046
18236W        W34310   4.290   2.636   5.425  0.2082  0.0782 -0.2439
18237W        W34311   8.424   7.515  10.239  0.4022  0.0163 -0.0490
18238W        W34312   2.644  13.076   0.143 -0.1236  0.1760 -0.0095
18239W        W34313  15.445  15.185   1.063  0.2905  0.0225 -0.0507
18240W        W34314  16.902  10.134  15.603 -0.4380  0.0945  0.0339
18241W        W34315  14.353  16.285  13.487  0.0643  0.1186  0.1712
18242W        W34316   3.953   9.995  11.637  0.1708 -0.2068 -0.0376
18243W        W34317   7.755  13.017  14.989 -0.0506 -0.1568 -0.2932
18244W        W34318   2.786   7.943   1.697  0.2379 -0.1975  0.0639
18245W        W34319  16.358  14.430  14.073 -0.1452  0.2345 -0.0315
18246W        W34320  17.597   3.396   0.598  0.0369  0.2016 -0.1393
18247W        W34321   1.785  16.418   0.074 -0.2294 -0.0302 -0.1127
18248W        W34322   5.316  12.045  12.423 -0.1005 -0.0163  0.0276
18249W        W34323   9.604   6.971  11.345 -0.1070 -0.2877 -0.0262
18250W        W34324   4.887   3.236   9.530  0.1668 -0.2680  0.3030
18251W        W34325  13.718  17.442  14.692  0.0193  0.2919  0.2882
18252W        W34326  13.169   7.045  14.282 -0.1489  0.0433 -0.0008
18253W        W34327  14.563   2.701   1.866 -0.0163 -0.2559  0.0125
18254W        W34328   0.182   3.254  11.574 -0.0221  0.3507 -0.0339
18255W        W34329   8.620   1.510  13.338 -0.0555 -0.1852  0.0046
18256W        W34330   3.289   1.316   5.754 -0.0061 -0.0430 -0.1191
18257W        W34331  12.344   2.545  11.348  0.0512 -0.2482  0.1547
18258W        W34332   7.286   8.477   2.473 -0.1159  0.2103  0.3123
18259W        W34333  10.657  11.491  13.251 -0.0942 -0.0268 -0.4605
18260W        W34334   2.255  18.391   2.411 -0.1646 -0.2662  0.1658
18261W        W34335   8.420  18.176   4.216  0.1314  0.3878  0.1571
18262W        W34336  11.189   8.595  15.247 -0.0524  0.1212  0.3700
18263W        W34337   6.739  10.313   1.057 -0.0121  0.0825 -0.5841
18264W        W34338   0.088   2.121   5.100  0.0470  0.1606  0.1922
18265W        W34339  13.375  10.092   0.696 -0.0756  0.4536 -0.3233
18266W        W34340   2.613   5.414   1.727  0.0865  0.0435 -0.0962
18267W        W34341  15.769   2.115  14.693  0.0861  0.0061  0.3256
18268W        W34342  13.833   4.906   3.743 -0.3263 -0.2832  0.1489
18269W        W34343   4.606   8.052  14.834 -0.1902 -0.3453 -0.2343
18270W        W34344   7.658  18.274  10.060  0.1293  0.2115 -0.0399
18271W        W34345  13.946   9.393  14.608 -0.1177 -0.2496 -0.2756
18272W        W34346  10.744   6.958  14.231  0.0929 -0.2176  0.0781
18273W        W34347   4.973   1.343   4.059  0.0446  0.2554  0.3140
18274W        W34348  14.105   6.115   4.473  0.0044  0.2289  0.1865
18275W        W34349  13.771   5.191   1.281  0.2047  0.0842 -0.0287
18276W        W34350  15.039  12.849   4.609 -0.1734  0.2332 -0.1476
18277W        W34351  13.611  13.500   2.025  0.2136  0.2074  0.0222
18278W        W34352  13.758   3.491   3.875 -0.1232  0.0668  0.2397
18279W        W34353  12.637  16.758   1.839 -0.1452  0.0006 -0.1299
18280W        W34354   3.344   9.948   6.046  0.4220 -0.1068  0.1242
18281W        W34355  13.643  17.696   5.779 -0.2280 -0.2853 -0.1283
18282W        W34356   3.608   0.625   0.683 -0.1817 -0.1074  0.4197
18283W        W34357   8.995  16.868  15.632 -0.0180 -0.3277 -0.2094
18284W        W34358  14.598   3.870  13.728  0.2484  0.2427 -0.1624
18285W        W34359   9.317   3.372   1.983 -0.0018 -0.0358 -0.1027
18286W        W34360  17.392  11.185   0.713 -0.0679 -0.3197  0.1980
18287W        W34361  10.619  10.973   2.986 -0.0827 -0.2320 -0.2380
18288W        W34362  10.417  14.156  11.373 -0.0525  0.0722  0.0960
18289W        W34363   6.919  10.638  11.909 -0.1894  0.0242 -0.1012
18290W        W34364   7.899   3.611   4.577 -0.1551 -0.3920 -0.1780
18291W        W34365  16.473   3.722  15.995 -0.5251 -0.1398  0.1045
18292W        W34366  16.767  14.494  15.034  0.0861 -0.4227 -0.1755
18293W        W34367   2.371   8.082  15.437  0.4209 -0.2423  0.1590
18294W        W34368   4.299   7.056   2.417 -0.0873  0.0923 -0.0422
18295W        W34369   0.399   3.201  13.099  0.1386  0.0595 -0.3359
18296W        W34370   4.738   3.877   4.362 -0.2689  0.0474 -0.3409
18297W        W34371  14.680   7.572  15.009 -0.1660 -0.1323  0.2203
18298W        W34372  12.331   1.558   3.872 -0.1264 -0.2392  0.0628
18299W        W34373  14.448   6.221   5.324  0.1577 -0.0172  0.1002
18300W        W34374   7.004  16.935   4.035  0.0792 -0.0944  0.1867
18301W        W34375   5.031  12.947   1.510  0.3635  0.2705  0.2342
18302W        W34376   8.995  17.280   3.838 -0.2185 -0.0996 -0.2225
18303W        W34377   9.197   4.091   2.296  0.1124  0.1592 -0.0702
18304W        W34378   6.348  11.847   4.098 -0.0052  0.1036 -0.0374
18305W        W34379   3.594   0.640  14.813  0.1809 -0.0044  0.2985
18306W        W34380  12.226  13.340   4.725  0.1614 -0.2650 -0.1093
18307W        W34381  13.635   0.174   2.726 -0.0549 -0.0221  0.2120
18308W        W34382  10.667  14.482   0.423 -0.0322 -0.1049 -0.0795
18309W        W34383   3.960  13.810   4.985  0.0483  0.3706 -0.0764
18310W        W34384  15.853   8.586  13.781 -0.1513 -0.0571  0.1051
18311W        W34385   2.384   8.640   4.058 -0.2142  0.0720  0.0309
18312W        W34386  13.605  14.630  12.342  0.0218 -0.4311 -0.1799
18313W        W34387   3.136  10.630  15.545  0.2528  0.2042 -0.2736
18314W        W34388  13.817   4.091   3.094  0.4261  0.0717 -0.0786
18315W        W34389  11.506  17.856   3.042 -0.0337 -0.1361  0.0444
18316W        W34390   0.108   9.889   0.603 -0.0847  0.3166 -0.1392
18317W        W34391  12.969   2.615  15.744 -0.1679 -0.4236  0.4849
18318W        W34392   0.988   2.595  13.395 -0.1202 -0.1382  0.1385
18319W        W34393   5.075  14.158   0.329  0.1364  0.0668 -0.2876
18320W        W34394  15.309   8.797  13.001  0.0018  0.0477 -0.5801
18321W        W34395   3.467  12.801  14.963 -0.0506  0.0116 -0.3108
18322W        W34396   0.093   4.410  13.521  0.0132  0.1694 -0.3147
18323W        W34397  17.431   6.021  15.101  0.2345  0.1200  0.5390
18324W        W34398   7.055  16.555   1.624  0.2291 -0.0767 -0.0043
18325W        W34399  10.169  13.562  12.723  0.0045  0.2304 -0.0039
18326W        W34400  15.085  17.592   0.471 -0.3222  0.5360  0.1649
18327W        W34401   3.879  16.116  14.831  0.0284  0.0392 -0.1868
18328W        W34402  18.449   8.382  13.763  0.0315  0.1670 -0.0146
18329W        W34403   9.990   8.928   4.131 -0.0881  0.2754  0.4247
18330W        W34404   5.633   9.602   5.693 -0.0635  0.1080  0.1017
18331W        W34405   7.391  11.502  13.061  0.2928 -0.1278  0.1032
18332W        W34406  13.256   8.517  10.351  0.1965 -0.1168  0.0503
18333W        W34407   1.588  10.895   1.496  0.0267  0.0942  0.1610
18334W        W34408   3.813   7.235   1.428  0.1118 -0.1754  0.0156
18335W        W34409  10.077   7.184  15.897 -0.3058  0.0971 -0.1245
18336W        W34410  14.033  12.156  13.077 -0.1980 -0.3700 -0.2080
18337W        W34411  11.921  14.090   1.016 -0.1427 -0.1088  0.0948
18338W        W34412   8.828  14.983  11.827  0.1562 -0.1234  0.0804
18339W        W34413   4.932   5.105  11.966  0.0175 -0.0118  0.0185
18340W        W34414  14.171  16.512   1.559 -0.2163  0.0843  0.0726
18341W        W34415  13.935   0.147   4.921  0.1465 -0.2553  0.1474
18342W        W34416   6.606  17.044  11.466  0.0984 -0.0798  0.0015
18343W        W34417  10.600  11.705  12.247 -0.3607 -0.0023  0.0799
18344W        W34418   8.993  17.568  13.940  0.2676  0.0506  0.1018
18345W        W34419  14.745  16.847   1.543 -0.2968  0.2571 -0.2862
18346W        W34420   7.163   8.684  11.300  0.0404 -0.0726 -0.0435
18347W        W34421  12.593   1.549  11.558  0.0012  0.0954  0.2435
18348W        W34422  16.116   6.576   2.528 -0.1560 -0.1978 -0.0952
18349W        W34423   7.559   6.160   0.334 -0.3108 -0.0393  0.1714
18350W        W34424   3.073  12.942   0.746 -0.1167 -0.0858  0.2049
18351W        W34425  16.532  16.483   1.117  0.1975  0.3479 -0.1182
18352W        W34426  15.397   1.100   4.284 -0.2320  0.1380  0.0837
18353W        W34427  12.305   9.514   1.519  0.3099 -0.0144 -0.1232
18354W        W34428   6.326  17.711   0.136 -0.2100  0.0156  0.1058
18355W        W34429  12.962  12.718  11.166  0.0670  0.0727  0.1431
18356W        W34430  17.229  14.396   5.693 -0.3264 -0.3738 -0.0240
18357W        W34431   3.975   9.212   1.587  0.0372  0.1969 -0.4096
18358W        W34432   6.958  15.973   4.097 -0.0087  0.2082  0.2268
18359W        W34433  17.551   6.902  12.256  0.3902 -0.1789  0.4198
18360W        W34434   9.602   6.197  11.818 -0.1779 -0.0648 -0.2581
18361W        W34435   3.108  13.649  11.707  0.1482  0.2136 -0.1721
18362W        W34436  17.951   0.719  13.001  0.1182 -0.3868  0.0657
18363W        W34437   6.596  15.999   5.500  0.2452 -0.4327 -0.0803
18364W        W34438   5.339  13.922   1.410  0.0709 -0.0047  0.0938
18365W        W34439  10.000   0.475  15.931 -0.1256  0.0784 -0.0664
18366W        W34440  18.004  13.348   3.977  0.1027 -0.1740  0.0502
18367W        W34441   4.077  11.507   0.693  0.0333 -0.1523  0.1386
18368W        W34442   2.308   3.547   5.144 -0.2745 -0.0354  0.1117
18369W        W34443   2.481   8.972   5.816 -0.2029 -0.1050 -0.0171
18370W        W34444   1.031   5.462  15.325  0.0247  0.1692 -0.0629
18371W        W34445   7.222  16.883  14.804 -0.0966  0.4805  0.2720
18372W        W34446   1.472  12.016  12.279 -0.3681  0.2650  0.1137
18373W        W34447  16.619  16.927   3.265 -0.2713  0.2071 -0.0000
18374W        W34448  10.005   6.244  14.294  0.0490 -0.0816  0.0756
18375W        W34449   8.236   4.894   4.833  0.1474 -0.2444  0.0085
18376W        W34450   4.130  18.207  15.916  0.0118  0.3145  0.1500
18377W        W34451   2.131  10.296   5.851  0.0680 -0.4402  0.0199
18378W        W34452  12.234  13.878  13.410 -0.0495 -0.2922 -0.3604
18379W        W34453   5.406   3.637   2.627  0.1644  0.0982  0.1199
18380W        W34454   1.898  16.446  13.400  0.3089  0.0920  0.1221
18381W        W34455  10.864  11.412   0.767 -0.3863  0.0256 -0.1845
18382W        W34456  12.579  17.091  14.709 -0.1163 -0.1877  0.1041
18383W        W34457  14.450  15.463  13.026 -0.1625  0.1323  0.1427
18384W        W34458  17.848   2.757  15.659  0.0851  0.1378 -0.1688
18385W        W34459  17.024   9.971   3.856 -0.0822  0.1841  0.0384
18386W        W34460  18.418  18.460  13.106  0.2297 -0.0284 -0.0338
18387W        W34461   1.998   6.599   0.849  0.0343 -0.4953  0.0708
18388W        W34462  17.084   4.942  12.436  0.3130 -0.2786  0.0848
18389W        W34463  15.728  17.246  13.361  0.2333 -0.1943  0.1584
18390W        W34464   5.772   6.083  13.410  0.0544 -0.1754  0.2979
18391W        W34465  13.495  18.247   2.053  0.1102  0.0434 -0.1485
18392W        W34466   4.316   8.309   4.486  0.2468  0.0840 -0.0019
18393W        W34467   4.145   2.688   2.867 -0.0045 -0.3954  0.0714
18394W        W34468   0.176  16.029  15.129  0.0345  0.1271  0.0275
18395W        W34469  15.027  17.754  13.056  0.4084  0.0274  0.0200
18396W        W34470   4.121   2.640   0.684  0.1007  0.1623 -0.1883
18397W        W34471  13.188   8.538  13.280 -0.3801 -0.0757 -0.1911
18398W        W34472  10.409   4.640  13.373  0.0937  0.2210  0.0706
18399W        W34473  16.356   1.890  15.109  0.1196  0.3152  0.1004
18400W        W34474  11.041  10.962   1.960 -0.0378  0.3363 -0.1019
18401W        W34475  11.586   8.162  12.737 -0.3854 -0.0932 -0.1333
18402W        W34476   9.968  10.676   3.491 -0.2697 -0.1729  0.2042
18403W        W34477   8.852  10.712  11.883  0.2678 -0.3274 -0.1836
18404W        W34478  16.940  15.088  15.980 -0.2859 -0.1499 -0.3240
18405W        W34479  17.722  17.617  15.618  0.1122 -0.1906 -0.1503
18406W        W34480  11.766  10.150  13.013  0.1313  0.0939 -0.0818
18407W        W34481   4.837   3.376  12.536  0.1586  0.1966  0.1988
18408W        W34482   9.908   6.437   0.841 -0.1053  0.0440 -0.0985
18409W        W34483  14.199   7.487   1.793  0.0369 -0.2478 -0.1696
18410W        W34484   9.464  12.494   1.622  0.0776 -0.1019 -0.0647
18411W        W34485   4.049  12.455   2.400 -0.3401 -0.0126  0.0107
18412W        W34486   6.029  13.922   2.137 -0.0118  0.1231  0.1247
18413W        W34487   6.472  16.026   4.031 -0.0797 -0.0856  0.1698
18414W        W34488  13.145   3.680   3.662 -0.1300 -0.2901  0.1125
18415W        W34489   3.366   1.671  13.958 -0.0322 -0.1928 -0.3750
18416W        W34490   9.479  15.764  12.819  0.0763  0.1487 -0.3238
18417W        W34491   9.980   8.588  12.043  0.0167 -0.0245  0.3289
18418W        W34492  15.996  10.046   3.401 -0.0729 -0.1129  0.1843
18419W        W34493   7.770   7.757   1.103  0.1823  0.1193  0.1901
18420W        W34494   1.316  18.230   2.084  0.0388 -0.1791 -0.1988
18421W        W34495  16.954   5.492   5.298  0.0634 -0.0068 -0.2309
18422W        W34496   8.435   4.950  14.851 -0.0886 -0.0585  0.1617
18423W        W34497  14.714   7.345   2.799 -0.6166  0.0690 -0.0060
18424W        W34498  13.965  13.460   5.255 -0.1838  0.2407 -0.1797
18425W        W34499   9.049   5.450   3.672  0.2336  0.2563  0.0825
18426W        W34500   8.706   4.149   2.675 -0.1101 -0.1359  0.1534
18427W        W34501   6.850   9.356   2.403 -0.1721 -0.2096 -0.2849
18428W        W34502   9.896  12.288  10.758 -0.1550 -0.0137  0.0800
18429W        W34503   9.181   4.928   3.959 -0.0820  0.2118  0.2351
18430W        W34504   5.249  15.459  13.033 -0.1877 -0.0947 -0.5026
18431W        W34505  13.522  10.406  13.754 -0.1628 -0.1069 -0.0672
18432W        W34506  12.873   6.094  13.836 -0.3420 -0.0742 -0.0992
18433W        W34507   7.170  16.081   1.433  0.0492 -0.1946  0.3521
18434W        W34508  11.974  15.273   1.666 -0.0606  0.1392 -0.0598
18435W        W34509  10.229  10.423  13.621  0.3964  0.2536  0.1363
18436W        W34510  18.238   6.679   3.323 -0.1293 -0.0184  0.0134
18437W        W34511   4.600  16.180  13.127 -0.1546 -0.1385  0.0155
18438W        W34512   9.945   5.246   5.225 -0.0155  0.0215 -0.2440
18439W        W34513  13.027  13.353   0.857 -0.0780  0.0634  0.0556
18440W        W34514   8.324   9.470   1.990  0.2078 -0.2234  0.2782
18441W        W34515  14.116   2.813   0.909 -0.1284  0.0692 -0.0189
18442W        W34516   2.752   0.359  15.567 -0.0037 -0.2305 -0.1450
18443W        W34517  13.201  13.761  13.778  0.1541 -0.3262  0.1551
18444W        W34518  16.160  12.791   1.793 -0.1068 -0.0328  0.2287
18445W        W34519   9.590   4.022  14.644 -0.2337  0.0503 -0.0836
18446W        W34520   3.428   0.161   0.997  0.2503  0.1773 -0.2741
18447W        W34521  11.002  18.360  14.508  0.2593  0.1364 -0.1476
18448W        W34522  16.705  11.577  11.471 -0.3224  0.0587 -0.0764
18449W        W34523  11.501   9.593  14.934 -0.0221 -0.0398  0.2733
18450W        W34524  15.218   8.395   2.477 -0.0073  0.2382  0.1390
18451W        W34525   5.644  17.780  13.880 -0.1570  0.0558 -0.0479
18452W        W34526  18.000  18.134   2.319  0.2406 -0.2657 -0.2743
18453W        W34527   8.471  11.159  15.588  0.2290  0.3303 -0.2404
18454W        W34528  11.820   4.560  15.768 -0.0945 -0.1920 -0.0885
18455W        W34529   7.108   9.200  11.214 -0.0056 -0.3861  0.0476
18456W        W34530  10.119   1.793   4.709 -0.1856 -0.1547 -0.1963
18457W        W34531   8.342  16.822   4.976 -0.2800  0.1205  0.1570
18458W        W34532  14.774  16.821  13.017 -0.2281 -0.0060 -0.3009
18459W        W34533   2.317   2.002  11.562 -0.1955  0.1704  0.0149
18460W        W34534  10.693  16.127   4.438  0.0387 -0.1997 -0.1388
18461W        W34535   7.797  14.216   2.976  0.1153  0.1234  0.3023
18462W        W34536  10.307  12.738   2.917  0.1559  0.0474 -0.0392
18463W        W34537  13.089   2.060  14.904 -0.1684 -0.0510  0.0451
18464W        W34538   0.737   1.437   4.248 -0.1488  0.2176 -0.1163
18465W        W34539  17.561  17.706   4.108 -0.0708  0.1886  0.3227
18466W        W34540  17.661   2.170  11.980 -0.0578 -0.0999  0.1772
18467W        W34541   4.453   5.411  14.851  0.1190  0.3865 -0.1644
18468W        W34542   9.957   6.178  12.265  0.4075  0.2831 -0.3423
18469W        W34543  11.585   9.449  13.976 -0.0268  0.1917  0.1114
18470W        W34544  15.583   5.053  14.171  0.0615 -0.3090 -0.1076
18471W        W34545  10.172   3.355  14.191 -0.1884  0.0225 -0.0881
18472W        W34546  12.949  14.963  15.705 -0.0788  0.0346 -0.1544
18473W        W34547  10.960   4.959  15.668  0.0626  0.0466 -0.0530
18474W        W34548  16.454  12.864  11.384  0.2063  0.0913 -0.0961
18475W        W34549   2.436   8.770  14.671  0.0560 -0.0178  0.2375
18476W        W34550   1.671  12.255  14.339  0.0626  0.2291  0.0926
18477W        W34551  10.482  11.946  15.938  0.3683  0.0256  0.3232
18478W        W34552   1.688   7.542  11.831 -0.0446  0.3188  0.1078
18479W        W34553   6.563  11.993  12.534  0.0284 -0.2640  0.1666
18480W        W34554   9.891  16.733  14.686 -0.1365 -0.1029 -0.1969
18481W        W34555   1.047  17.655   3.203  0.0366  0.2147  0.1280
18482W        W34556  16.811  13.549  12.250 -0.0163  0.1823 -0.2235
18483W        W34557   0.119   7.739   5.983 -0.1463 -0.0738 -0.0551
18484W        W34558   9.598  14.920  14.545 -0.3332 -0.0638  0.2198
18485W        W34559   6.849  16.750  11.803 -0.2963  0.2757  0.2394
18486W        W34560  17.108  14.659   0.200 -0.2130 -0.3074  0.0615
18487W        W34561  17.157   0.289   2.341 -0.1242  0.2904 -0.2181
18488W        W34562  12.921  11.385   4.450  0.1332  0.0108 -0.1708
18489W        W34563   8.439  11.303  15.071 -0.0402 -0.2305 -0.0593
18490W        W34564  15.503  15.960   1.026 -0.0202 -0.0664  0.3037
18491W        W34565  15.325   9.102   3.586  0.1499 -0.0840 -0.0958
18492W        W34566   7.209  15.912   1.895  0.2597 -0.2913 -0.0739
18493W        W34567   3.027  17.918   0.350  0.0683  0.2174 -0.0590
18494W        W34568   7.563  15.051  11.981  0.0790 -0.0682 -0.3043
18495W        W34569  14.649   5.062  14.635  0.1861 -0.0538 -0.0001
18496W        W34570  14.080  17.117  13.753 -0.1240 -0.1520  0.4364
18497W        W34571  12.076  13.087   4.255 -0.0487  0.1335  0.5053
18498W        W34572   3.665   4.041  12.834 -0.2632 -0.1032 -0.3838
18499W        W34573  14.236  11.569   3.289 -0.0744 -0.2724 -0.0760
18500W        W34574  11.129   8.795  11.271  0.2635  0.1299 -0.0543
18501W        W34575   0.391  14.358  15.976 -0.0220 -0.1084 -0.1521
18502W        W34576   0.831  15.194  12.139 -0.1585  0.0342 -0.1838
18503W        W34577  16.130  15.312  15.995  0.3349 -0.0038  0.0578
18504W        W34578   3.800  17.630   3.458 -0.1390  0.2507 -0.3145
18505W        W34579   9.204  12.395  15.760  0.2285 -0.0172  0.3478
18506W        W34580   2.823   2.405  10.705  0.1705  0.0980  0.3209
18507W        W34581   0.792   1.061  13.123 -0.0431  0.3705  0.1437
18508W        W34582   5.410   5.220  12.017 -0.0405 -0.2478  0.1696
18509W        W34583  11.090   7.891  12.120  0.2106  0.1129 -0.0491
18510W        W34584  12.202  17.344   1.567  0.4115 -0.2609 -0.2999
18511W        W34585  14.619   6.856  13.569  0.2463  0.0481  0.2363
18512W        W34586  13.794  14.029  12.436 -0.0747  0.0521  0.0673
18513W        W34587   5.927   6.011  14.907  0.1416  0.2553 -0.2083
18514W        W34588   4.151  10.911  14.513 -0.1064 -0.0638 -0.1433
18515W        W34589  18.410  11.752   3.163 -0.2729  0.1071 -0.1523
18516W        W34590   7.700   3.891   5.852 -0.0232  0.0101 -0.0199
18517W        W34591   1.810  17.682  15.935 -0.0196  0.0852  0.3324
18518W        W34592   6.888   9.217  12.196 -0.0196  0.0928  0.2653
18519W        W34593   7.388  10.971  12.156  0.2065 -0.0669  0.2283
18520W        W34594   6.113  12.719  15.114  0.1148  0.0841  0.4819
18521W        W34595  15.662   9.910  13.165  0.1899 -0.1010 -0.2047
18522W        W34596   4.039   5.990  12.213  0.2055  0.0963  0.0524
18523W        W34597   6.920  15.187   1.591 -0.1773 -0.4025  0.2201
18524W        W34598  16.916   0.110  12.230 -0.2371  0.1146  0.0750
18525W        W34599   9.835  14.972   5.269  0.0516  0.0220 -0.0900
18526W        W34600  15.668   0.389  11.294  0.0416  0.0031  0.2202
18527W        W34601   9.150   0.899   4.355  0.0643 -0.0297 -0.0218
18528W        W34602   9.487   4.120  15.581  0.2504  0.1241 -0.3125
18529W        W34603  12.724  14.076   0.416 -0.0223  0.1999  0.1765
18530W        W34604   5.496   7.587   5.704 -0.0195 -0.0359  0.0827
18531W        W34605   3.283   0.958   0.927  0.1549 -0.0257  0.0693
18532W        W34606   3.707   8.336  11.993  0.0971 -0.0764  0.1008
18533W        W34607  18.478   2.947  13.399  0.1023  0.0955 -0.1739
18534W        W34608  12.138   3.331   3.531  0.3387  0.2959 -0.0266
18535W        W34609  12.871  10.237  10.901 -0.0024 -0.3194  0.4291
18536W        W34610  17.998  13.605  11.123 -0.3400  0.2304  0.1675
18537W        W34611   4.632   5.428  12.275  0.0372  0.2988  0.0867
18538W        W34612   2.141   7.272   1.531 -0.4277 -0.0648  0.0702
18539W        W34613   1.564  12.526  13.857  0.0792 -0.3264 -0.1852
18540W        W34614  12.452   5.401  12.967  0.1250  0.3382 -0.2628
18541W        W34615  18.390  14.842   6.310 -0.1892  0.0663  0.1345
18542W        W34616  13.449  17.763   1.409  0.1267 -0.0203  0.4238
18543W        W34617  14.444  14.449   5.094  0.4532 -0.1765  0.0713
18544W        W34618   3.918   7.829   0.275  0.0739 -0.1992  0.2156
18545W        W34619   5.372   3.210  11.500 -0.0230  0.0935  0.0825
18546W        W34620  11.948   3.437   5.545  0.1598 -0.0020 -0.0043
18547W        W34621   6.167   1.927  13.812 -0.2189  0.1278  0.0252
18548W        W34622   1.653   2.994   1.122  0.0923  0.1005 -0.3224
18549W        W34623  11.623  10.269   4.774 -0.0790 -0.0079  0.0480
18550W        W34624  10.021   4.887  15.651 -0.0387 -0.1458  0.0888
18551W        W34625   4.642  16.522   1.205  0.1788  0.2100  0.0589
18552W        W34626  14.005   6.415   1.214 -0.0816  0.0005  0.1551
18553W        W34627   5.692  14.705  12.861  0.1284 -0.0593 -0.4995
18554W        W34628   3.567   7.537  11.466 -0.1455 -0.0487  0.1484
18555W        W34629   4.505   2.810  14.302  0.1796 -0.0255  0.1972
18556W        W34630  17.622  10.151   0.389  0.1066  0.3058 -0.0890
18557W        W34631  16.823   2.555   0.862 -0.0770 -0.2225 -0.5368
18558W        W34632  13.876  16.096  15.247 -0.4016 -0.1075  0.2474
18559W        W34633  10.260  17.720  15.435  0.1875  0.0528  0.0231
18560W        W34634   9.825  14.435  13.177  0.1857  0.0094 -0.0254
18561W        W34635  13.328   9.267  15.548  0.1290 -0.0195  0.3887
18562W        W34636  11.716  14.076  14.788  0.1227  0.1780  0.0038
18563W        W34637  10.033  14.639  14.451 -0.0995 -0.2111 -0.0447
18564W        W34638  12.789   3.495   4.825  0.3407  0.3066  0.1770
18565W        W34639  17.467  16.277  12.143 -0.1392 -0.5625 -0.3753
18566W        W34640   0.273   8.391  15.133  0.3987 -0.1553 -0.1480
18567W        W34641  13.157  11.392   5.499 -0.2349  0.0666  0.2163
18568W        W34642   8.535   0.204   9.756  0.0590 -0.1622  0.2873
18569W        W34643   5.881  14.046  12.862  0.1742 -0.0822  0.0150
18570W        W34644   5.531  17.619   2.728 -0.2749  0.3212  0.1593
18571W        W34645   4.407   6.365  11.411 -0.0188  0.1147  0.0006
18572W        W34646  12.547   9.017  12.453  0.0794 -0.1280  0.0619
18573W        W34647  14.513   0.781  13.842 -0.2317  0.1054  0.0218
18574W        W34648   2.911   1.943  13.752 -0.1695 -0.2643  0.1049
18575W        W34649  11.305  17.850   1.241 -0.0805 -0.1579  0.3957
18576W        W34650  11.737   2.400  10.660 -0.2363  0.2180  0.2869
18577W        W34651   4.209  16.932  13.113  0.0918 -0.4719  0.2745
18578W        W34652  15.318  17.048  13.529 -0.2119  0.2675  0.0204
18579W        W34653  12.908  12.116   3.944 -0.1389 -0.1108  0.0857
18580W        W34654   2.849  16.717  13.226  0.1193 -0.2965 -0.2520
18581W        W34655   7.415   5.247   1.480  0.0140  0.2493  0.0680
18582W        W34656   0.980  15.631   2.242 -0.1538  0.0985 -0.2110
18583W        W34657  13.537  10.281  11.601 -0.4490  0.0361  0.2496
18584W        W34658   2.844   3.224   2.442  0.0428  0.2122  0.0309
18585W        W34659   0.812  17.940   4.930  0.3098  0.0638  0.2616
18586W        W34660  15.039   5.513  11.174 -0.5114 -0.0289  0.0192
18587W        W34661   2.909   4.995  14.384  0.1652  0.0591 -0.1826
18588W        W34662  12.892  12.966   1.569 -0.0683 -0.2000 -0.0147
18589W        W34663  11.528   8.076   4.802 -0.0591  0.2598 -0.0278
18590W        W34664  17.628   5.160  15.388 -0.0239  0.0892  0.1196
18591W        W34665   1.185  14.626  12.730  0.0520 -0.2042 -0.1740
18592W        W34666   0.783   8.470   5.665 -0.0896 -0.0575 -0.1163
18593W        W34667   9.096   0.563   4.721  0.0320 -0.1589 -0.2483
18594W        W34668  12.397  10.501   3.454  0.2798 -0.1180 -0.3211
18595W        W34669  17.333   7.822   1.547  0.1112 -0.0506  0.4582
18596W        W34670   8.104   2.753   2.998 -0.0640  0.1933  0.1310
18597W        W34671  10.960  12.681   4.870 -0.0136 -0.1647 -0.2043
18598W        W34672   6.310   4.363  12.194  0.2677  0.0477 -0.0564
18599W        W34673  17.706   2.515  11.503  0.1029 -0.3365 -0.0662
18600W        W34674  10.489   6.326  15.128 -0.1096  0.3983  0.0941
18601W        W34675   6.231   3.483  11.111 -0.0557  0.1004  0.0784
18602W        W34676   4.855  11.440   2.647  0.0754  0.2934  0.1701
18603W        W34677  10.311  11.208  12.112  0.0497  0.1489 -0.4143
18604W        W34678   6.206  15.779   3.022 -0.0940 -0.2114 -0.3086
18605W        W34679   9.035   1.104   1.569  0.0021 -0.1822  0.1429
18606W        W34680  15.861   6.526  11.631  0.3367 -0.1209  0.2771
18607W        W34681  14.839   5.556   3.508 -0.0988 -0.0830 -0.1993
18608W        W34682   6.345  13.825   4.768 -0.0963 -0.2729 -0.1583
18609W        W34683   1.252   1.296   4.054  0.2818 -0.0437  0.1293
18610W        W34684  10.498   5.990   2.799 -0.1200  0.2343 -0.1381
18611W        W34685   5.864  14.983   3.918  0.1462  0.1980  0.3614
18612W        W34686  12.916   9.519   5.130  0.2612  0.1719 -0.0085
18613W        W34687  12.429   0.071   2.468  0.1726 -0.0819  0.2687
18614W        W34688  10.812   5.573  11.412  0.0984  0.0439  0.1305
18615W        W34689  17.181  17.784   2.885  0.3261 -0.0148 -0.0579
18616W        W34690  14.327  10.202   0.317 -0.1451  0.0689  0.1410
18617W        W34691   7.263  11.396   0.908 -0.0208  0.0960 -0.1818
18618W        W34692   7.520   0.080  13.930  0.0448 -0.0945 -0.0740
18619W        W34693  10.859   9.713   3.447  0.2113  0.0314 -0.1507
18620W        W34694  16.218   8.687  11.483 -0.1460 -0.5097 -0.1187
18621W        W34695  17.290  13.332  13.587  0.0257  0.3371 -0.0163
18622W        W34696   4.273   7.866   1.739  0.0573  0.0841 -0.0176
18623W        W34697   1.258   8.730   0.120 -0.1644 -0.3041 -0.2289
18624W        W34698   0.557  16.009   3.968  0.0732  0.0396  0.1863
18625W        W34699  11.276  11.697   3.148 -0.0754  0.2383  0.0111
18626W        W34700   4.698  14.284  11.406 -0.0182 -0.0390  0.0027
18627W        W34701  14.216   2.156  11.122 -0.1499  0.3058  0.1383
18628W        W34702   4.647   8.381  14.109  0.2106  0.0621 -0.0557
18629W        W34703  17.877   9.375   5.294  0.0957 -0.2899  0.0965
18630W        W34704  14.261  10.389  14.825 -0.2063 -0.2065  0.0192
18631W        W34705  11.723   7.777   1.290 -0.2273  0.1627  0.2716
18632W        W34706  11.749   0.205  11.147 -0.1966  0.0959 -0.0238
18633W        W34707   5.881   1.890  14.651  0.1272 -0.1347 -0.7769
18634W        W34708   2.551   4.566   5.058  0.4740  0.1162  0.0872
18635W        W34709  12.662   5.766   5.252  0.2172  0.0610  0.2074
18636W        W34710   1.586   7.876  14.747 -0.0052  0.1560  0.2093
18637W        W34711   7.193   2.899  13.615  0.0283 -0.0056 -0.0202
18638W        W34712   6.195   4.413   4.973 -0.1622 -0.1900  0.1701
18639W        W34713   8.039   2.453   0.886 -0.1334  0.1422  0.1677
18640W        W34714   5.988  16.234  11.944  0.2076 -0.0852 -0.1669
18641W        W34715  14.397  12.884   3.176 -0.0718  0.1735 -0.1371
18642W        W34716  13.874  17.223   2.646 -0.1609 -0.0910 -0.1557
18643W        W34717   1.804   8.164   4.392 -0.0457  0.2918 -0.1904
18644W        W34718   5.354  16.696   0.670  0.1590  0.0718  0.1281
18645W        W34719  11.223  16.631  14.452  0.2390 -0.1525 -0.1515
18646W        W34720  12.476  15.062  15.844  0.2282 -0.1968 -0.2176
18647W        W34721   9.645   0.629  11.938 -0.2342  0.2003 -0.2204
18648W        W34722  11.327  13.975   4.754 -0.1819  0.0681  0.0442
18649W        W34723   9.839   2.060  14.963  0.0985  0.0698 -0.4599
18650W        W34724   9.423   3.833   4.404 -0.0204 -0.0275 -0.1464
18651W        W34725   3.538   1.875  11.276 -0.0022  0.2256  0.2170
18652W        W34726   6.891  12.011   4.956  0.1991 -0.0865  0.0440
18653W        W34727  13.152  12.750   1.189  0.1080  0.0799  0.0605
18654W        W34728   0.479   1.137   5.535  0.0498 -0.0891 -0.0287
18655W        W34729  16.784   8.016   1.396  0.1123  0.0704  0.0812
18656W        W34730  10.304  14.838  11.973  0.4893  0.1069  0.1183
18657W        W34731  14.928  11.832   4.735  0.1007 -0.0401  0.0250
18658W        W34732  17.656  14.354   3.714 -0.2863 -0.3128 -0.0860
18659W        W34733  16.819  11.253   4.150  0.2696 -0.0363 -0.5713
18660W        W34734  16.420   2.981   2.874 -0.0261 -0.0614  0.0148
18661W        W34735  16.285  11.382   5.900  0.2773  0.1597  0.3087
18662W        W34736   6.774   3.995  12.847 -0.1700 -0.1581  0.3017
18663W        W34737  11.223  16.205   1.860  0.0537  0.1565 -0.0140
18664W        W34738  18.423   1.632  12.618  0.2398 -0.0721  0.2252
18665W        W34739   6.691   7.668  13.360  0.0628 -0.0820  0.0952
18666W        W34740   2.970  18.472   3.788  0.2864 -0.0741  0.0640
18667W        W34741   9.316   3.766  15.891 -0.2790 -0.1192 -0.2673
18668W        W34742   8.309   7.017   2.913  0.1373  0.2316  0.0624
18669W        W34743   5.815   2.547   1.006 -0.0573  0.2956  0.4310
18670W        W34744  12.638   9.123  14.194 -0.1102 -0.0880  0.2474
18671W        W34745   5.114   7.435  14.068  0.2160 -0.1294  0.2741
18672W        W34746   7.864  14.918  13.552 -0.0187  0.1450 -0.0305
18673W        W34747  16.682   6.530   3.857 -0.0076  0.1171  0.0406
18674W        W34748  11.203   1.620  13.561  0.0474  0.0755 -0.2169
18675W        W34749   8.292   7.803   1.195  0.0643  0.0695  0.1028
18676W        W34750  12.633  11.738  15.222  0.0534  0.2990 -0.0134
18677W        W34751  14.493   0.817   0.289  0.3871 -0.0009 -0.0376
18678W        W34752  15.584  10.579   4.566 -0.0239  0.5317  0.1721
18679W        W34753   8.776   2.115   1.480 -0.2011  0.0855  0.1427
18680W        W34754  16.759  18.498  13.343  0.0109  0.0883 -0.1420
18681W        W34755  12.324  17.187   0.017 -0.0011  0.2487 -0.2106
18682W        W34756   7.407   0.480   5.916 -0.1620  0.1684  0.4411
18683W        W34757   1.981   7.354  13.031  0.0062 -0.0832  0.2053
18684W        W34758   7.622  14.668  10.726 -0.0520 -0.2280 -0.1684
18685W        W34759   3.088  13.199   3.653 -0.1408 -0.0900  0.3726
18686W        W34760  12.905  16.860   3.853  0.1234  0.2855 -0.3061
18687W        W34761  16.108   4.895   0.853 -0.1752 -0.4022  0.0091
18688W        W34762   1.407  15.273  14.826 -0.0489 -0.2365 -0.0349
18689W        W34763   1.067  14.919  14.528  0.2375  0.1962  0.1536
18690W        W34764   7.208  15.167   1.188  0.1902 -0.2984 -0.1902
18691W        W34765  11.770  10.040   0.499 -0.2273 -0.1459  0.0276
18692W        W34766  14.298   5.828  15.726 -0.1511 -0.2787 -0.1856
18693W        W34767   8.610  13.682   4.468  0.1143  0.0808  0.2395
18694W        W34768  15.858   1.048   2.052 -0.0995 -0.3510  0.0245
18695W        W34769  17.589   4.043  12.673 -0.0352 -0.3861 -0.0266
18696W        W34770   0.729   0.383   4.729  0.2348  0.1822 -0.1009
18697W        W34771   3.139   9.516   4.773 -0.1053  0.1034  0.0299
18698W        W34772  17.142  14.944   2.372 -0.1477  0.3300  0.0238
18699W        W34773  11.878   6.942  14.011 -0.1790 -0.1409 -0.2398
18700W        W34774   7.945   4.746  15.274  0.0342  0.0548  0.0783
18701W        W34775   1.052  18.463  15.425  0.0446  0.0263 -0.0114
18702W        W34776   2.804   1.091   1.865 -0.2772 -0.0515  0.0262
18703W        W34777  18.046   2.947   4.390 -0.0080  0.0006 -0.0916
18704W        W34778  12.022   2.081  15.487 -0.1663 -0.2951  0.0300
18705W        W34779  16.820  16.312  12.933  0.1170 -0.0153 -0.2991
18706W        W34780  17.044  10.965   0.401  0.2954 -0.1250 -0.1325
18707W        W34781  10.394   1.091   0.439 -0.0741  0.0099  0.1997
18708W        W34782   4.976   0.840   1.934 -0.0985  0.0221  0.1021
18709W        W34783   4.938   9.189   0.877 -0.0402  0.0905  0.1297
18710W        W34784  17.039   4.291   6.492  0.1511 -0.0648 -0.2619
18711W        W34785   2.775  17.529   2.171 -0.2686  0.1991 -0.1718
18712W        W34786   3.965   2.053  13.851 -0.0540 -0.1131  0.0242
18713W        W34787   5.158   0.417   1.669 -0.2200 -0.0855  0.1750
18714W        W34788  14.527   4.943  13.247  0.0377  0.0811  0.2731
18715W        W34789   6.995   7.100   2.333 -0.1641 -0.1234  0.1523
18716W        W34790   5.186   2.041  15.861  0.2783  0.0099 -0.0381
18717W        W34791  13.029   3.028   2.749 -0.1263 -0.0534  0.1144
18718W        W34792  11.253   9.045  14.000 -0.2454 -0.0689  0.4256
18719W        W34793  16.895   8.607  12.851 -0.1380 -0.3380 -0.1589
18720W        W34794  11.588   0.595  14.851 -0.2483  0.1918 -0.0570
18721W        W34795   0.016   9.379   0.578 -0.0209  0.2445 -0.2151
18722W        W34796  17.906  14.507  12.394  0.2757  0.3686 -0.0312
18723W        W34797  13.172  12.026  11.005 -0.3076  0.0346 -0.2019
18724W        W34798  11.170  12.399   3.318 -0.2980  0.3495  0.1393
18725W        W34799  17.654  16.460   4.456 -0.1630  0.1139  0.1122
18726W        W34800  11.772   7.697  14.259  0.0628 -0.3165  0.1521
18727W        W34801   2.234   8.416  15.014 -0.3459  0.2378 -0.2419
18728W        W34802   5.200  18.026   2.025  0.0533 -0.2967  0.4412
18729W        W34803  14.141   5.499   3.391 -0.0154 -0.0901 -0.0780
18730W        W34804   6.742   0.544  12.971  0.1215  0.1431 -0.3077
18731W        W34805  13.153  16.317   4.221 -0.1729 -0.1831  0.2632
18732W        W34806   8.866  10.100  12.850 -0.2147 -0.0447 -0.3104
18733W        W34807  11.898  12.848   1.973  0.0659 -0.2456 -0.2668
18734W        W34808   1.196  13.204  15.204 -0.1129 -0.0678  0.0441
18735W        W34809  15.310  12.956   0.437  0.3495 -0.0259 -0.0968
18736W        W34810  12.199   2.547   5.816  0.2454 -0.0455  0.2444
18737W        W34811  15.607  10.369  14.104  0.3827 -0.0555 -0.0449
18738W        W34812  15.757   5.096  14.643  0.0854 -0.0536 -0.1046
18739W        W34813  14.691   4.753   4.695 -0.0935 -0.0833 -0.0375
18740W        W34814   9.438  14.863  15.076 -0.0251  0.2905  0.1518
18741W        W34815   8.967   6.496  11.538 -0.0324  0.0944  0.0256
18742W        W34816  14.726   1.650  10.405  0.3399  0.2132 -0.1786
18743W        W34817  16.573  16.845   0.294  0.4273  0.0628  0.0101
18744W        W34818   9.168   9.435  14.821  0.1052 -0.1474  0.0187
18745W        W34819  15.489   6.900  11.883 -0.0969  0.2754 -0.1905
18746W        W34820  15.520   2.958   3.945 -0.2256  0.1202  0.4193
18747W        W34821  13.091   4.941  11.525 -0.0052 -0.0456  0.1460
18748W        W34822   0.412  16.689   3.409  0.0398 -0.0864  0.3060
18749W        W34823   8.623   8.583  12.010 -0.2363  0.2287 -0.1309
18750W        W34824  18.278   3.167  14.156  0.0169  0.1754 -0.3906
18751W        W34825  16.841  12.413   3.241  0.2355  0.0331 -0.0255
18752W        W34826  16.606   3.570   4.751 -0.4172  0.1052  0.0441
18753W        W34827  10.809   8.114  15.012  0.0508  0.1871  0.2585
18754W        W34828  17.869   1.631  11.123 -0.1604 -0.1687 -0.1526
18755W        W34829  14.053   0.099  13.341  0.0804  0.0058 -0.1923
18756W        W34830   3.255  12.719  11.350 -0.2148  0.0604  0.0657
18757W        W34831  18.465   3.578   5.012 -0.2091 -0.0796  0.1507
18758W        W34832   8.766  15.363   0.051  0.2126  0.1687 -0.1489
18759W        W34833   5.528   4.847   1.925 -0.2237  0.2243 -0.0595
18760W        W34834   5.486   1.740   0.076  0.0904  0.1476 -0.0812
18761W        W34835   2.866   8.654  14.924  0.1742 -0.0527 -0.1720
18762W        W34836   1.908   7.672   2.473 -0.2878 -0.0445  0.1261
18763W        W34837   4.818   5.315   3.585 -0.1588  0.1717  0.1786
18764W        W34838  15.094  17.910   5.158 -0.1258  0.0527  0.0958
18765W        W34839  17.031  14.011   1.327 -0.2430 -0.0199 -0.0436
18766W        W34840  12.649  10.028  13.490  0.0776 -0.0067 -0.0168
18767W        W34841   0.119  16.271   4.633 -0.0160 -0.2929  0.1012
18768W        W34842  17.224  14.573  10.966 -0.2747  0.0706 -0.5024
18769W        W34843   3.725  11.960   5.120 -0.2287  0.0327  0.0928
18770W        W34844  15.283   0.323  12.788  0.2309  0.0100  0.1153
18771W        W34845   8.374   5.179   4.115  0.0589 -0.1155 -0.0485
18772W        W34846   0.132  11.112  14.829 -0.0022  0.1781  0.3080
18773W        W34847   6.318   0.474  11.060 -0.3162  0.2497  0.1060
18774W        W34848  11.260   9.012  12.146  0.0354 -0.0230  0.1348
18775W        W34849   6.533   3.704  14.985  0.1799 -0.1533  0.0576
18776W        W34850   0.473  15.622  15.306  0.2270 -0.0321  0.0306
18777W        W34851   1.413  10.661  14.034  0.2958 -0.1870  0.0968
18778W        W34852   7.173  14.883   3.390 -0.2088  0.2049  0.2270
18779W        W34853  14.762  16.740  14.485  0.0503  0.0861  0.2270
18780W        W34854   6.842  11.143  12.043 -0.4741  0.1755 -0.2438
18781W        W34855  14.401   7.772  14.569  0.2389  0.3321  0.0415
18782W        W34856   7.651   7.309  14.506  0.2714  0.2440  0.2113
18783W        W34857  12.931   2.258   1.176  0.3626  0.0252  0.2009
18784W        W34858  13.790  11.541   0.104 -0.2362  0.1682 -0.2488
18785W        W34859  17.975   4.347  14.669 -0.2107 -0.1425  0.4368
18786W        W34860  13.755  16.035  13.094 -0.0667 -0.0080  0.1748
18787W        W34861   1.269   6.682  11.591  0.1104  0.1412 -0.0690
18788W        W34862   4.774  12.511   1.673 -0.0984 -0.2213  0.0691
18789W        W34863  13.362  10.172  14.250 -0.1674 -0.1194 -0.0155
18790W        W34864   9.116   2.313   5.193  0.0278  0.1369 -0.0185
18791W        W34865  12.193   7.631   1.935  0.2159 -0.0630 -0.0004
18792W        W34866   8.759   1.355   5.437  0.0834 -0.1235 -0.0014
18793W        W34867   5.841  13.192  14.046 -0.0882  0.1045 -0.3031
18794W        W34868  10.826  13.344   3.372 -0.1807 -0.2414  0.1337
18795W        W34869   6.420   1.342   4.572 -0.0329  0.1796 -0.1439
18796W        W34870   9.868  17.367  14.566  0.0049 -0.1499  0.1407
18797W        W34871   5.879   2.206   3.888 -0.0283 -0.1863  0.1370
18798W        W34872  10.459  13.149  14.615  0.0731 -0.0604 -0.1166
18799W        W34873  15.656  16.219  12.099 -0.4245 -0.0805  0.0241
18800W        W34874  11.227   5.971  14.626  0.1005 -0.0675 -0.0689
18801W        W34875  16.185   1.521   2.019  0.1128 -0.1840 -0.1802
18802W        W34876  18.564   3.099   1.927  0.1877 -0.0074  0.5058
18803W        W34877   2.387  14.964  14.558  0.0920  0.2362 -0.3729
18804W        W34878   4.052   6.358   1.274  0.1093 -0.1435 -0.0903
18805W        W34879   2.733   0.013  13.615 -0.0707  0.2179  0.2377
18806W        W34880   1.604  13.631  14.747 -0.0666  0.2078 -0.0809
18807W        W34881  13.130  11.971   0.617  0.1335  0.0348  0.2672
18808W        W34882   0.191   2.012   9.976  0.0244 -0.2907 -0.3708
18809W        W34883  17.657   5.541  13.081  0.0705 -0.1214 -0.0227
18810W        W34884  10.561   4.276  15.503 -0.1591 -0.2017 -0.2782
18811W        W34885  13.366  11.625   4.551  0.0422 -0.0013 -0.1772
18812W        W34886  15.339   2.181   3.412 -0.1559 -0.3900  0.1800
18813W        W34887  16.408  14.831   3.537 -0.0665  0.2866 -0.1670
18814W        W34888   4.940  10.547  15.815  0.0346  0.1351  0.0389
18815W        W34889   8.017  14.731  15.210  0.3216 -0.1959  0.1669
18816W        W34890   0.529   4.608  15.393 -0.2183 -0.0562  0.0525
18817W        W34891  16.615   4.102   4.954  0.0882 -0.0504  0.3436
18818W        W34892  16.959  12.398   4.192  0.4976 -0.3104 -0.0448
18819W        W34893   5.477  17.671   3.704 -0.4881  0.0382 -0.5200
18820W        W34894   9.182   4.376  14.551  0.0174  0.3152 -0.1005
18821W        W34895   2.552   8.646   6.578  0.1656 -0.1036  0.1980
18822W        W34896   7.251   2.310  11.022  0.1180 -0.2148 -0.0733
18823W        W34897  10.939  16.255  14.338 -0.2048  0.2691  0.1029
18824W        W34898   4.233   2.238   0.299  0.1193  0.0500 -0.0878
18825W        W34899   6.286   3.389  12.664  0.1385  0.2864 -0.0118
18826W        W34900   9.954   2.211   4.441 -0.2344  0.2440  0.0457
18827W        W34901  15.534   8.197  11.459 -0.0471 -0.0969 -0.1611
18828W        W34902  10.652  15.032   2.142 -0.5639  0.0299 -0.1778
18829W        W34903  10.080  14.286  12.069 -0.0242  0.0002 -0.0073
18830W        W34904   4.713   0.163  13.680 -0.0108  0.1210 -0.0853
18831W        W34905   7.747  16.641   2.825 -0.2688  0.0235 -0.0312
18832W        W34906   2.568  15.259  13.424 -0.0955  0.0175 -0.3109
18833W        W34907  12.837  10.465   2.238  0.0913  0.2002 -0.1000
18834W        W34908   0.334   1.551  11.186  0.2101  0.0510  0.1055
18835W        W34909   8.198  10.480  11.951  0.2973 -0.3454  0.1803
18836W        W34910  10.985  18.540   0.506  0.1170 -0.4741  0.1524
18837W        W34911   2.500   5.541   4.637  0.2209  0.1939 -0.3359
18838W        W34912  13.700  15.817   3.961  0.2333 -0.0325 -0.0316
18839W        W34913   2.337  17.981   0.527  0.0264  0.1301  0.0668
18840W        W34914  13.136   2.086  12.893 -0.1057 -0.1736 -0.0778
18841W        W34915   0.516  13.717   3.111  0.2409 -0.0334 -0.0220
18842W        W34916   9.609   8.784   3.619  0.0327 -0.1333  0.1547
18843W        W34917  15.068   6.608  11.908 -0.3447  0.3016 -0.2292
18844W        W34918   3.852  16.977   0.449 -0.1422  0.0963  0.1783
18845W        W34919  11.828  14.509   0.248  0.1523  0.0694 -0.1525
18846W        W34920   8.288   7.929   0.245 -0.0560  0.2263 -0.1015
18847W        W34921  12.008   1.591   5.744  0.0365 -0.3302 -0.0490
18848W        W34922  15.275  12.447   0.274 -0.0426 -0.0409 -0.0062
18849W        W34923  11.120   2.550  11.269 -0.2172  0.1543 -0.1490
18850W        W34924  11.480   4.894   4.000 -0.0626  0.1087  0.1795
18851W        W34925  15.817  13.615   2.293  0.1311 -0.0530  0.0378
18852W        W34926  11.398  16.963   2.267 -0.0550 -0.2634  0.5584
18853W        W34927   9.849  10.333   2.606 -0.0449  0.0529  0.2971
18854W        W34928  14.422   0.966  14.316 -0.1426 -0.0342  0.0474
18855W        W34929   6.005   7.753   1.013 -0.5570 -0.2988 -0.2331
18856W        W34930  13.275  15.880  15.799  0.2963  0.2493 -0.3245
18857W        W34931  13.636  13.988  15.942  0.1530 -0.0265 -0.0366
18858W        W34932  17.576  10.604  15.155 -0.0993  0.1366  0.3408
18859W        W34933  12.819   9.912   2.172 -0.1409 -0.0880 -0.1266
18860W        W34934   1.772   7.867  12.325  0.1235 -0.1389  0.0749
18861W        W34935   4.190   8.940   2.380 -0.0730 -0.0856  0.0763
18862W        W34936   3.359  15.847  15.708 -0.0877 -0.4614  0.0823
18863W        W34937  15.678  10.953  11.266 -0.3852 -0.1298 -0.1443
18864W        W34938   3.935  11.991   1.364 -0.1093 -0.0119  0.0011
18865W        W34939   5.408   2.489  14.035 -0.0719 -0.0266  0.0772
18866W        W34940   0.259  16.261   2.628  0.0097 -0.0055  0.2442
18867W        W34941  14.446  18.397   5.556  0.5076 -0.4069 -0.0633
18868W        W34942  18.175   2.086  13.851  0.0853 -0.1611  0.0542
18869W        W34943  18.213  17.900   2.731 -0.1323  0.2102 -0.0311
18870W        W34944   9.764   4.056  12.912 -0.0486 -0.1954  0.0286
18871W        W34945   0.523   6.764   3.145  0.0187 -0.0394 -0.0908
18872W        W34946   5.408   0.699   0.794  0.1808  0.2681 -0.0190
18873W        W34947  12.422  15.795  12.285 -0.3795 -0.2224  0.2566
18874W        W34948  12.877  15.101  10.956  0.0176  0.0290  0.2776
18875W        W34949   9.203  17.775   4.813 -0.0823 -0.2573  0.3159
18876W        W34950  13.233   8.555   1.515 -0.3644  0.0135 -0.2878
18877W        W34951   1.438   2.063   3.204 -0.5585  0.2881 -0.2472
18878W        W34952   3.238  12.007   5.216 -0.0628 -0.1484 -0.1347
18879W        W34953   6.580   6.324  11.352 -0.2195  0.2942 -0.2495
18880W        W34954  11.369   7.827  13.158  0.4728 -0.1630 -0.0658
18881W        W34955   4.569   7.438  12.152 -0.0684 -0.0715  0.0588
18882W        W34956  17.320   2.107  14.714  0.0622 -0.0250 -0.0892
18883W        W34957  13.745  12.701  15.564 -0.2102  0.0471 -0.2216
18884W        W34958   5.095   0.100   3.241  0.2797 -0.0126 -0.1682
18885W        W34959   5.475  14.643   2.985 -0.1274 -0.5901 -0.1433
18886W        W34960   6.164  10.996   3.515  0.2999 -0.0725  0.0947
18887W        W34961   9.144  16.711   0.032 -0.1825 -0.0513  0.4782
18888W        W34962  17.600   8.225  13.126  0.0940 -0.1936 -0.2622
18889W        W34963  13.495  13.606   5.401  0.2306  0.1096 -0.1771
18890W        W34964   8.581  17.508  12.568 -0.3008 -0.0454 -0.1283
18891W        W34965  10.600  12.482   4.158  0.1712  0.1093 -0.1434
18892W        W34966   0.694  10.623   6.180 -0.1064 -0.0535  0.2598
18893W        W34967   6.562   3.132   0.629 -0.3679  0.0500 -0.1451
18894W        W34968  13.972   3.372   2.447 -0.0057 -0.0299  0.0217
18895W        W34969   6.762   2.223   1.385  0.1159 -0.0553  0.2703
18896W        W34970  11.090   3.240   2.900 -0.1945  0.0529  0.2249
18897W        W34971  17.078  17.098  13.187 -0.0560  0.0236 -0.0439
18898W        W34972   2.698  16.888  15.114  0.1641 -0.5667  0.1321
18899W        W34973  13.568  14.912   2.914 -0.2388 -0.2132 -0.1317
18900W        W34974   2.729   6.499  15.697  0.4947 -0.1239  0.2554
18901W        W34975  15.200   2.587  11.183  0.2894  0.0965  0.1140
18902W        W34976   6.847  13.695   1.664 -0.0162  0.1023 -0.0358
18903W        W34977  13.358   6.264   6.181  0.1209 -0.0584 -0.0201
18904W        W34978  11.655   3.621  12.378 -0.2015  0.0699  0.0902
18905W        W34979   9.349   1.942   1.707  0.5991  0.2968 -0.3613
18906W        W34980   1.232  10.135  14.957 -0.0435  0.3865  0.3274
18907W        W34981   2.134   6.434   4.878 -0.1651 -0.4978 -0.1101
18908W        W34982   1.371   2.319   1.636 -0.2973  0.2641  0.1412
18909W        W34983  17.209  11.046   5.134  0.0761 -0.0586  0.1853
18910W        W34984  14.534   0.159   5.051  0.3911 -0.2971 -0.0820
18911W        W34985   8.348   7.694   3.582  0.0767 -0.1597 -0.1097
18912W        W34986   5.927   5.647   3.413  0.0306  0.2920  0.1716
18913W        W34987   6.519   9.135  12.542  0.1604 -0.3669  0.0275
18914W        W34988   5.874  18.504   3.618  0.0040 -0.1307  0.2272
18915W        W34989  11.951   7.870  10.653 -0.0240  0.0562  0.3247
18916W        W34990   9.249   0.660   5.232  0.1335 -0.0411  0.1071
18917W        W34991  13.635   1.698   3.652  0.2308 -0.2937 -0.1294
18918W        W34992  12.307   5.012   0.715  0.4606 -0.2581  0.2950
18919W        W34993  17.616   5.655   1.784  0.1847  0.0156  0.0451
18920W        W34994   6.046   6.067   0.404  0.1203 -0.3693  0.1133
18921W        W34995   3.888   8.433   4.235 -0.1784 -0.0778 -0.0982
18922W        W34996  16.113  14.359   3.342  0.2188 -0.0447  0.1167
18923W        W34997  12.538  16.614  14.715 -0.0377 -0.1075  0.2330
18924W        W34998   4.066  14.774   2.843 -0.0585  0.2168  0.1868
18925W        W34999   1.173  13.169  13.923  0.1970 -0.0481  0.2945
18926W        W35000  17.669   0.038  12.015  0.1083 -0.1375  0.0740
18927W        W35001  18.276  15.619  11.929  0.1592  0.2239  0.0517
18928W        W35002  11.512   3.068   2.561  0.0897  0.0374 -0.0793
18929W        W35003  15.490   6.067  14.153  0.3240  0.1226  0.0346
18930W        W35004  12.214   8.866  12.948  0.1656 -0.1665  0.0675
18931W        W35005  14.955   2.781  11.589 -0.1320 -0.2359 -0.1102
18932W        W35006   3.923   2.125  11.497 -0.3331 -0.0973  0.0362
18933W        W35007  10.719  12.193   0.335  0.4307  0.4672  0.2660
18934W        W35008   7.956  11.401   0.682 -0.0416 -0.0465  0.2181
18935W        W35009  16.000  17.178   2.651  0.1783 -0.1903  0.2951
18936W        W35010   1.988  14.357   0.025 -0.0734  0.1592 -0.1771
18937W        W35011   3.496  16.196   5.947  0.0935 -0.2549  0.0025
18938W        W35012   6.264   6.442  15.078  0.1213  0.0340  0.0922
18939W        W35013   4.175  17.366  16.010  0.0241 -0.0134  0.1569
18940W        W35014   3.594  15.123  13.208 -0.2993 -0.1660  0.1805
18941W        W35015   0.620  18.222  15.449  0.2337  0.2017  0.0570
18942W        W35016  11.761  11.962  15.571  0.3712  0.0430  0.0466
18943W        W35017  17.703   8.182   4.273 -0.1458 -0.1737  0.2975
18944W        W35018  14.727   1.263  11.315 -0.2606 -0.1118  0.2685
18945W        W35019  10.334   8.353  14.841 -0.1389 -0.0066 -0.1291
18946W        W35020   9.463   0.998   4.719 -0.2793 -0.1860 -0.3373
18947W        W35021  18.497   9.623   4.001 -0.1567  0.1105 -0.0541
18948W        W35022  13.632   4.041  12.562  0.1116 -0.0926 -0.0655
18949W        W35023  12.313   8.191  15.235 -0.0076  0.1799 -0.1045
18950W        W35024   2.819   0.916  12.095  0.0723  0.1899 -0.1312
18951W        W35025  13.126   1.182   2.881 -0.0810  0.1277  0.0990
18952W        W35026   5.623   9.598   0.595  0.0115 -0.2368  0.1482
18953W        W35027   6.994  18.066  15.565  0.3014 -0.2056  0.0104
18954W        W35028  13.695   8.535   1.053 -0.1149 -0.0799 -0.0092
18955W        W35029  17.183   4.436  16.015 -0.1927 -0.1814  0.2090
18956W        W35030  14.665   2.148   0.144  0.0393  0.1152 -0.1432
18957W        W35031  10.557   4.461   0.856 -0.4618  0.2489  0.0120
18958W        W35032   0.906  16.202  12.166  0.1803  0.0237  0.0017
18959W        W35033   1.657   7.036  15.164  0.0991  0.0827 -0.2937
18960W        W35034   1.328  18.333   5.364 -0.1502  0.2930 -0.3015
18961W        W35035  11.142   3.546  13.946 -0.0585 -0.0500 -0.2061
18962W        W35036  10.162  17.670   0.638 -0.1423  0.0653  0.2481
18963W        W35037  10.929   9.794   1.808  0.1828 -0.2161 -0.1776
18964W        W35038  17.400  10.374  15.613  0.0785  0.2283  0.3575
18965W        W35039   6.817  18.171   1.721 -0.1721 -0.2680  0.2294
18966W        W35040  16.508   1.404   2.869 -0.2773 -0.1247 -0.1126
18967W        W35041   3.363  10.898  14.678 -0.1175  0.0720  0.0755
18968W        W35042   2.686   8.887   0.755 -0.2004 -0.2902  0.2507
18969W        W35043   1.373   3.780   5.038 -0.0514 -0.0650  0.3499
18970W        W35044   1.563   7.555   3.279  0.0816  0.1686  0.2911
18971W        W35045  16.046   0.075  13.789  0.2595 -0.1625  0.0625
18972W        W35046  15.370  11.981   2.208  0.0339 -0.0469 -0.1252
18973W        W35047   1.595   2.802  13.336 -0.0840 -0.2664  0.4036
18974W        W35048   4.521  15.376   2.266  0.1258  0.2563  0.1078
18975W        W35049  14.006   8.598  12.607  0.1593  0.0377  0.3030
18976W        W35050   9.794   8.621  10.167 -0.1538  0.0787 -0.2038
18977W        W35051  17.702  10.549   3.654 -0.0497  0.1516 -0.0406
18978W        W35052  10.482   5.446  12.637  0.0111 -0.1593 -0.0666
18979W        W35053  13.835  17.424   1.559 -0.1782  0.1689  0.1105
18980W        W35054   1.646  15.332   4.855  0.2232 -0.0297  0.3474
18981W        W35055   3.987  14.876   5.609  0.3186 -0.2219  0.2118
18982W        W35056   8.305   1.370  11.942  0.2838 -0.0312  0.1611
18983W        W35057  10.585  13.856   4.198 -0.0196 -0.3035  0.0003
18984W        W35058   7.422  16.704  13.138 -0.0815 -0.3342  0.1925
18985W        W35059  13.430   3.391   2.530  0.3063 -0.0394  0.0158
18986W        W35060   7.016  12.257   1.203  0.1724  0.0366  0.2139
18987W        W35061  13.486   0.544  15.445  0.1851 -0.1805 -0.1163
18988W        W35062  13.069  17.842  12.858 -0.2136 -0.0633 -0.1865
18989W        W35063   3.501  17.817   4.024 -0.1867  0.2329  0.1761
18990W        W35064  10.649   3.266   4.000  0.2307 -0.2315  0.1682
18991W        W35065  16.991  17.283  15.532 -0.0329  0.2026 -0.1116
18992W        W35066  15.963  12.132  13.950  0.0684  0.0830 -0.1550
18993W        W35067  11.876  17.619  15.032  0.0753  0.2465  0.1747
18994W        W35068   4.677   7.507   2.745  0.2938 -0.1434 -0.0502
18995W        W35069   5.898  10.139  12.493 -0.0221 -0.3602  0.0789
18996W        W35070   9.697   2.138   2.061  0.1793  0.1012  0.2007
18997W        W35071   1.424   3.171   3.101 -0.2902 -0.0626 -0.0556
18998W        W35072   0.674   9.786  10.961  0.4489 -0.0614 -0.1656
18999W        W35073  11.928  13.721   4.713  0.1934  0.0409  0.0778
19000W        W35074  11.476   2.724   3.829  0.0729  0.0421 -0.2310
19001W        W35075   2.864  13.229  15.737 -0.4416  0.0449  0.0879
19002W        W35076   6.001   7.037   2.346 -0.1029 -0.0125 -0.2704
19003W        W35077   9.093  11.731   5.249 -0.2625  0.0712  0.3455
19004W        W35078   4.162  12.942  11.698  0.0678 -0.0078 -0.0180
19005W        W35079   3.401  16.659  11.161  0.0301 -0.0547 -0.0286
19006W        W35080   2.848   7.050   1.023 -0.0146 -0.3195 -0.1860
19007W        W35081   9.184   5.804   3.014 -0.1803 -0.1090 -0.2231
19008W        W35082  13.493   5.401  12.852  0.3836  0.2721 -0.0799
19009W        W35083  14.835  17.516  11.021 -0.2519 -0.0012 -0.0000
19010W        W35084  13.482   5.957  14.633  0.2677  0.0401 -0.1350
19011W        W35085  12.994   9.680  12.661  0.1766 -0.0548  0.0502
19012W        W35086  18.220   1.116   2.856  0.4121  0.1102 -0.0279
19013W        W35087   4.319  18.117  12.022  0.3644 -0.4747 -0.0394
19014W        W35088   9.478   6.823   3.927  0.0065  0.0689 -0.2381
19015W        W35089   0.631   5.989   3.813 -0.1501  0.1541  0.1263
19016W        W35090   4.425  15.939   0.669  0.1087  0.2126  0.0418
19017W        W35091  10.462   5.651  11.800 -0.0354  0.2142  0.3744
19018W        W35092  15.648   5.177   0.039  0.5746  0.2625 -0.2608
19019W        W35093   2.302  11.083  12.904 -0.1231 -0.1197  0.1667
19020W        W35094  15.042   2.854  12.733 -0.2414 -0.2094  0.2015
19021W        W35095  16.466  10.430  13.997 -0.1235  0.0754 -0.0320
19022W        W35096   1.426  11.943  15.587  0.0666 -0.0740 -0.1302
19023W        W35097   8.784   3.217  13.271  0.4016  0.1135  0.1728
19024W        W35098   5.891   4.070  14.232 -0.2273  0.0386 -0.1633
19025W        W35099  14.945   3.536   1.176  0.1766 -0.0453 -0.0257
19026W        W35100   1.814   0.093  14.317  0.1261  0.2210 -0.3075
19027W        W35101   2.060   2.767   1.488  0.1241 -0.0814  0.1830
19028W        W35102  11.371  17.630   3.723 -0.0174  0.1642  0.1129
19029W        W35103   0.444   9.234   0.250 -0.3317 -0.2996  0.2188
19030W        W35104   5.095   1.153  15.755 -0.0788 -0.1364 -0.0302
19031W        W35105   7.097  14.312   5.568 -0.0763  0.1487  0.1736
19032W        W35106   5.730  18.153  13.546  0.0214  0.1501  0.0963
19033W        W35107   9.266   1.797   5.197 -0.0228 -0.0855  0.0138
19034W        W35108   7.481  12.545  13.035  0.7081 -0.0562 -0.0490
19035W        W35109  15.651   2.975  15.720  0.2018 -0.1464 -0.1272
19036W        W35110  17.336   3.347  13.715 -0.1950  0.1770  0.0487
19037W        W35111  15.875  14.759   4.577 -0.2234  0.3278 -0.1240
19038W        W35112  14.123   1.393   1.836  0.2363  0.0919 -0.5399
19039W        W35113  11.791   5.696   2.331 -0.0954  0.0223 -0.0692
19040W        W35114   6.101   5.648  15.285  0.1835  0.2693 -0.0828
19041W        W35115   8.268   9.098   2.323 -0.0804  0.1027 -0.2103
19042W        W35116   1.030  15.166  15.903 -0.0272 -0.1072  0.0117
19043W        W35117  13.652   2.164  12.616  0.1852  0.4185  0.0407
19044W        W35118   9.625  10.340   3.461 -0.1069  0.1609 -0.1083
19045W        W35119  17.979  11.922   3.933 -0.1051 -0.1729 -0.0985
19046W        W35120   3.698  16.494  15.223 -0.1774 -0.1140 -0.2328
19047W        W35121  12.928   9.577  14.241 -0.1961 -0.1824 -0.0392
19048W        W35122   7.356   3.385  13.407  0.5516  0.1119  0.0640
19049W        W35123  17.980   3.776   2.837  0.1055  0.1575 -0.0446
19050W        W35124  11.817  13.603  14.988 -0.2365  0.1765  0.2445
19051W        W35125  10.829   2.269  14.833  0.1834 -0.0367  0.1281
19052W        W35126  17.720   9.306  14.925  0.3562  0.2897 -0.3408
19053W        W35127   6.835   4.129   1.876  0.2520 -0.0339  0.2522
19054W        W35128   6.967   5.338  12.214  0.0940 -0.1297  0.1038
19055W        W35129   6.715   0.164   4.058  0.1115 -0.0996 -0.1074
19056W        W35130  13.355  14.349  14.202  0.1811  0.0300  0.2312
19057W        W35131  17.640  11.759   4.779 -0.2741  0.0379  0.0722
19058W        W35132  11.280  17.630  14.890  0.1902 -0.0185  0.0516
19059W        W35133   9.177   7.378   1.911  0.0928  0.2952 -0.3865
19060W        W35134   7.759   4.388  12.736 -0.3592  0.2197  0.1024
19061W        W35135   9.656  10.500  12.201  0.0046  0.0139  0.1936
19062W        W35136  10.775   6.297   4.545 -0.0071 -0.2799  0.0353
19063W        W35137   4.226  10.156   3.876 -0.1564  0.1852 -0.2778
19064W        W35138   2.272  11.552   0.419 -0.0936  0.0492  0.4951
19065W        W35139  16.195  13.879   2.526 -0.0140  0.1819 -0.1346
19066W        W35140  14.992  10.360  15.539 -0.1296 -0.3400 -0.3143
19067W        W35141  14.320   3.763  14.939 -0.1179 -0.1018 -0.0186
19068W        W35142  16.005   9.811   1.347 -0.5464 -0.3290 -0.0229
19069W        W35143   5.785   8.651  11.710 -0.0086  0.1690 -0.0029
19070W        W35144   3.093   0.104  14.013  0.0827 -0.1254  0.0682
19071W        W35145  10.629   5.619   0.818  0.1949  0.5701  0.3028
19072W        W35146  16.842   7.205   2.294  0.0446 -0.0758 -0.0652
19073W        W35147   1.758  16.898  13.767  0.3230  0.0993  0.0200
19074W        W35148   4.322  10.237   4.429 -0.2067 -0.1817  0.0220
19075W        W35149  17.627  11.120  12.997  0.2693  0.1043  0.1300
19076W        W35150   2.277   5.189   2.031  0.1862 -0.2111 -0.1191
19077W        W35151  16.194   8.323   2.020  0.0743 -0.2570 -0.0147
19078W        W35152  15.968   0.878  13.332  0.2587 -0.2321 -0.0460
19079W        W35153  15.254   2.033   1.410  0.2103 -0.2401  0.2040
19080W        W35154  10.648   5.999  12.977  0.3911  0.0558 -0.4098
19081W        W35155   3.483   8.839   2.966 -0.0985  0.0082 -0.2539
19082W        W35156  10.115   3.076   2.933 -0.1061  0.2709  0.0061
19083W        W35157  13.143  17.512   3.339  0.1011  0.1800 -0.0985
19084W        W35158   1.311  16.273   3.317  0.0442  0.3195 -0.2830
19085W        W35159   3.297   1.479  13.275 -0.2885  0.2857 -0.2481
19086W        W35160   0.233  18.178  11.998  0.1587  0.0116  0.1224
19087W        W35161  12.269  11.656   0.758 -0.1618 -0.0809  0.0356
19088W        W35162  10.439  13.318   0.957 -0.0813  0.3081  0.2517
19089W        W35163   7.511  16.398   1.630  0.0616 -0.1358  0.1256
19090W        W35164   4.248   7.930   3.577  0.2880  0.1076  0.0144
19091W        W35165  13.377  15.022   3.663  0.1516  0.2387  0.2085
19092W        W35166   3.399   8.614  12.928 -0.1004 -0.2578  0.1776
19093W        W35167   9.896  16.765   2.885 -0.1697  0.0727 -0.0988
19094W        W35168   8.310  10.585   0.022 -0.4128 -0.1916  0.3532
19095W        W35169   6.483  16.533  12.155  0.0905 -0.3105 -0.0600
19096W        W35170   8.179  17.808  14.053 -0.2581  0.0659 -0.2717
19097W        W35171  13.581   8.272   2.943  0.0667  0.1484 -0.0230
19098W        W35172  16.700  11.874  13.578  0.0220 -0.0798 -0.2500
19099W        W35173  15.820   4.608  14.626  0.0191  0.1340  0.0063
19100W        W35174  10.577   7.138   1.844  0.0419 -0.1939 -0.1472
19101W        W35175   3.037  18.282  13.305  0.0573  0.0565 -0.6438
19102W        W35176   7.816   2.002   4.057 -0.0610 -0.1386 -0.3869
19103W        W35177  17.880   3.927   4.533  0.2406  0.0131 -0.3622
19104W        W35178  13.965   7.978  12.907 -0.2060 -0.1418 -0.2565
19105W        W35179  11.470   5.701   0.443 -0.0397 -0.2300  0.0593
19106W        W35180   3.428   2.609  12.644 -0.1911 -0.0701 -0.3676
19107W        W35181  15.237  10.516   0.540 -0.1361 -0.2174  0.0717
19108W        W35182   5.534  18.260  12.959  0.1061 -0.0543 -0.1527
19109W        W35183   4.506  15.189   0.232  0.1028  0.0574  0.1053
19110W        W35184  14.238  15.293  15.729  0.0828  0.0494 -0.1636
19111W        W35185   9.292   0.144   4.881 -0.0694  0.0546 -0.1807
19112W        W35186  10.845   2.358   3.642 -0.0320 -0.0203  0.0835
19113W        W35187   2.870  12.907   1.209 -0.0379  0.5524 -0.0345
19114W        W35188   4.298  18.480   3.686  0.0600 -0.0645 -0.1039
19115W        W35189   5.094  15.333  13.529 -0.0637 -0.2918 -0.1730
19116W        W35190   3.257  16.456   1.715  0.0879  0.1469 -0.0158
19117W        W35191   4.904  13.054  12.157  0.1066 -0.0982 -0.2623
19118W        W35192   8.252   0.762   3.155 -0.1393  0.2488 -0.0509
19119W        W35193   5.122   5.585  12.203 -0.0536 -0.3759  0.1229
19120W        W35194  15.260   4.861   0.861 -0.1773  0.1049  0.0569
19121W        W35195   2.706  18.318   1.631  0.1666  0.0063  0.0162
19122W        W35196   5.879   5.419  12.504 -0.0534  0.1090 -0.1801
19123W        W35197  12.822  15.555  11.159  0.0527 -0.1829  0.0465
19124W        W35198   6.156  11.813   1.294  0.0649  0.0391  0.0294
19125W        W35199  15.349  11.066  11.751  0.3615  0.3259  0.2163
19126W        W35200   7.427   6.018  11.555  0.1639 -0.0459  0.0251
19127W        W35201   1.029  17.892   2.449  0.1983  0.3070 -0.0312
19128W        W35202  16.799   1.817   0.443  0.8446  0.0476 -0.0805
19129W        W35203  17.853   4.244   2.738  0.1089 -0.0976 -0.0777
19130W        W35204   4.325  11.990   3.810 -0.2246  0.2456  0.1591
19131W        W35205  13.830  11.269   3.359  0.3717  0.1702  0.1565
19132W        W35206   8.559   8.136  14.758  0.3656  0.0526 -0.0135
19133W        W35207  10.557   6.272   5.832  0.2114 -0.2584  0.6910
19134W        W35208  13.159  12.599  14.382 -0.0220 -0.1725 -0.0794
19135W        W35209  15.286   5.242   2.218 -0.1412  0.3106 -0.1840
19136W        W35210  15.711  12.151   4.261  0.3051  0.2872  0.0683
19137W        W35211  17.220  16.651   1.036  0.1258  0.2066 -0.3305
19138W        W35212  17.491   3.462  11.361  0.0017  0.0155 -0.0205
19139W        W35213   5.227   1.790   1.801  0.1089  0.0116  0.0622
19140W        W35214  13.286   7.867   0.766 -0.1714 -0.2424  0.2013
19141W        W35215  16.281   5.218  14.601  0.0463 -0.3795  0.0755
19142W        W35216   0.181   4.446   3.146  0.2429 -0.2385  0.0801
19143W        W35217   0.611   9.188  14.331 -0.0266 -0.3423 -0.2186
19144W        W35218  15.339  17.710   5.845 -0.1245 -0.1574 -0.3264
19145W        W35219   6.865  16.952  15.191 -0.5312 -0.1184  0.0330
19146W        W35220   4.427   9.754  12.347 -0.1235  0.2743 -0.1416
19147W        W35221   5.912  13.469  14.481  0.1389  0.0502 -0.0017
19148W        W35222  14.106  11.174   1.374 -0.2102  0.1411  0.0265
19149W        W35223   7.976   2.157  15.460 -0.1493  0.4456  0.0222
19150W        W35224   9.209   0.020   3.324 -0.0969 -0.1777 -0.2799
19151W        W35225   2.898   3.708  12.276 -0.3719  0.1446  0.1348
19152W        W35226   7.887  14.734   1.846 -0.0530  0.0641  0.0375
19153W        W35227  15.422  16.174  10.961  0.1183 -0.2985 -0.2618
19154W        W35228  14.771  14.810   1.190  0.0433 -0.0248 -0.4136
19155W        W35229  10.673  16.117   3.071 -0.2664 -0.1639 -0.4735
19156W        W35230  18.151  15.908  12.769  0.3018 -0.3262 -0.3696
19157W        W35231  16.247  16.951  13.984  0.2485  0.0857  0.1527
19158W        W35232  16.688  13.696   5.427 -0.0005 -0.0338 -0.1146
19159W        W35233   5.119  12.001   0.402 -0.1241  0.2024  0.2440
19160W        W35234   8.223  13.083   2.432  0.1340 -0.1396 -0.0193
19161W        W35235  10.471  15.737  13.030  0.0684  0.0912 -0.0875
19162W        W35236   7.132  18.107  12.151  0.0626 -0.1959  0.0274
19163W        W35237  16.515  13.961  11.939  0.0965  0.1322  0.0749
19164W        W35238   5.510   4.894  13.349  0.0161  0.1124  0.0678
19165W        W35239   4.517  14.564   3.451 -0.4764 -0.1742 -0.0758
19166W        W35240  17.897  17.229   3.353  0.0188  0.1808  0.1288
19167W        W35241  18.003   2.815  11.919 -0.0598 -0.1088 -0.2246
19168W        W35242   9.782   0.154  15.679  0.0671 -0.2887 -0.0422
19169W        W35243   5.074  11.783  13.150 -0.4014  0.1362  0.0137
19170W        W35244   7.477  14.377   2.644  0.0409 -0.0470 -0.1656
19171W        W35245  11.731  14.500   6.399  0.0058 -0.0638  0.1720
19172W        W35246  16.496   1.048  12.452  0.1713  0.1050  0.0010
19173W        W35247   5.355  15.907   1.762  0.3044  0.0636  0.2302
19174W        W35248  16.666  15.411  11.492 -0.0839 -0.1850 -0.2074
19175W        W35249   7.706   3.825   2.502 -0.0978 -0.0523 -0.0612
19176W        W35250   3.019  15.264   0.583  0.1268 -0.1084  0.2276
19177W        W35251  13.021  17.915  14.848 -0.4665 -0.1431  0.1451
19178W        W35252   0.500   2.863   1.698  0.0672 -0.0796  0.0671
19179W        W35253  13.769  10.796   0.582 -0.2738  0.2455 -0.0596
19180W        W35254   2.301  11.886  15.247  0.0972 -0.0518  0.1036
19181W        W35255  16.701  18.064   2.903  0.0557 -0.0485 -0.1845
19182W        W35256  12.370   0.994  14.862  0.0709  0.2721  0.2112
19183W        W35257   7.281  14.107  16.003 -0.2869  0.0010 -0.1175
19184W        W35258   6.666  15.867  11.451 -0.2839 -0.0209 -0.3430
19185W        W35259   5.955   3.357   2.002 -0.0962  0.3561  0.3394
19186W        W35260   1.808   8.386   5.954  0.1685  0.0507 -0.0598
19187W        W35261  17.293  11.590   5.231  0.0575  0.1518 -0.0020
19188W        W35262  12.591   1.886   2.013  0.1119  0.2117  0.2209
19189W        W35263   1.879   2.735   0.704 -0.1725  0.4168  0.1614
19190W        W35264   4.827  15.331  12.793 -0.1059  0.0055  0.3535
19191W        W35265  11.152  11.167  13.412  0.0520  0.1549 -0.3663
19192W        W35266  17.476   9.392   5.640  0.1127 -0.0403  0.0813
19193W        W35267  13.098  14.003   3.106  0.1849 -0.1685  0.3015
19194W        W35268   7.859  10.886   4.241 -0.0295  0.0575  0.0218
19195W        W35269  11.213  14.368  12.618 -0.1495 -0.3552 -0.1597
19196W        W35270  18.020   4.762  10.210 -0.0693  0.0121  0.0503
19197W        W35271   5.982   2.469   0.081  0.1856 -0.0734  0.0953
19198W        W35272  15.777   2.312   9.704  0.2514 -0.0295 -0.3044
19199W        W35273   2.655   6.712   3.907 -0.0990  0.1535 -0.1705
19200W        W35274  14.663  14.408   0.201  0.0445 -0.0138  0.0417
19201W        W35275   2.085  12.889   2.361  0.0695  0.1738  0.1970
19202W        W35276  14.664   8.256  11.987 -0.1665 -0.2901  0.1691
19203W        W35277   2.816  10.927  15.117  0.1947  0.2448 -0.1492
19204W        W35278   4.931   9.111   0.264 -0.2108  0.3241 -0.1260
19205W        W35279   1.395   0.049   0.708 -0.3650 -0.3331 -0.2213
19206W        W35280  18.177   0.215   4.116  0.1094 -0.0080  0.1384
19207W        W35281  12.219  12.974  14.191  0.1141 -0.2527  0.3485
19208W        W35282   1.285  16.363   0.795  0.0345  0.2651 -0.1081
19209W        W35283  17.821   9.437  14.030 -0.1500  0.1586  0.0759
19210W        W35284   6.472  12.998  12.383 -0.0149 -0.0635  0.1658
19211W        W35285   9.055   0.879  14.055  0.1464 -0.2942 -0.2208
19212W        W35286  17.001   5.854  14.839 -0.0940  0.0340  0.0068
19213W        W35287   6.509   8.883  14.045 -0.2251  0.1051  0.3690
19214W        W35288  13.952  15.335   0.700  0.0854  0.1004  0.2701
19215W        W35289   6.692  14.064   5.531  0.0867 -0.0806 -0.1129
19216W        W35290   1.587   7.337   3.780  0.1524  0.1853 -0.3055
19217W        W35291  18.522   0.607   3.676  0.4111 -0.0939  0.0515
19218W        W35292  16.651   7.748  13.054  0.3029  0.0991 -0.1475
19219W        W35293  14.523   1.957  10.766 -0.2163 -0.2649  0.0295
19220W        W35294   5.083   6.528  12.597 -0.0929  0.1494  0.2074
19221W        W35295  10.773   5.040  15.082 -0.1559 -0.0072  0.1496
19222W        W35296  18.279  11.000   4.807 -0.0461  0.0327  0.1131
19223W        W35297   1.184   1.706   4.270  0.1090  0.0492  0.0533
19224W        W35298   5.637  10.719   4.644 -0.0432 -0.0413  0.1020
19225W        W35299   6.436   4.947  15.930  0.1101 -0.0679  0.1118
19226W        W35300   4.396   1.780  12.240 -0.2777 -0.1665 -0.1821
19227W        W35301  17.580  14.269  12.741  0.0234 -0.0561 -0.0014
19228W        W35302  15.700  15.540   1.283 -0.3741 -0.0898  0.0310
19229W        W35303  11.670  15.405   0.070 -0.2708  0.0000  0.1147
19230W        W35304  15.147   4.323  15.718 -0.0015  0.3490 -0.0759
19231W        W35305   5.786  17.464   2.324 -0.3388 -0.0058  0.1637
19232W        W35306   5.938   2.143   5.667 -0.1204  0.1186  0.1974
19233W        W35307  13.919   9.791   5.056  0.4194 -0.0243 -0.0003
19234W        W35308  14.861   6.000  15.286  0.1450 -0.0664 -0.2674
19235W        W35309  15.886   1.011  10.941 -0.0823  0.0673 -0.1019
19236W        W35310   8.420  10.284   5.631  0.0697  0.1916 -0.0889
19237W        W35311  13.749   5.995   1.284 -0.1625 -0.3414  0.1661
19238W        W35312   5.740   4.776   1.421  0.2670 -0.1293 -0.1140
19239W        W35313   5.169   8.665   1.598  0.0016  0.2594 -0.2730
19240W        W35314   2.646  16.380  15.089  0.2067  0.1269  0.0369
19241W        W35315   3.990   9.337  14.856  0.3267 -0.0675 -0.4823
19242W        W35316  17.054  12.413  14.812 -0.0805 -0.3248 -0.0763
19243W        W35317  11.435  14.428  15.983 -0.1169 -0.2296  0.0336
19244W        W35318  11.112  15.440  15.981  0.2034  0.2788  0.1674
19245W        W35319  15.351  18.100  13.345 -0.1154 -0.0375  0.1578
19246W        W35320  10.588   4.726  12.807  0.0514  0.1412 -0.0788
19247W        W35321   5.117   2.885  14.241  0.3170  0.0870  0.4040
19248W        W35322   7.501  16.145  14.496 -0.1068  0.1564  0.0532
19249W        W35323  17.451  12.553   4.368 -0.2206 -0.2705  0.0337
19250W        W35324   6.153  13.358   4.830 -0.1576 -0.0473 -0.0852
19251W        W35325   5.018   0.298  15.129  0.2144  0.0862  0.0649
19252W        W35326   2.391  10.627   1.303  0.2675  0.0371  0.4042
19253W        W35327  15.263  11.719  14.378  0.0033  0.0435 -0.1752
19254W        W35328   6.951  17.882   2.804 -0.0617 -0.0636  0.1667
19255W        W35329   6.000  14.735  11.962  0.3992 -0.2465  0.1303
19256W        W35330   8.331  18.308   3.715  0.2044  0.2537 -0.0879
19257W        W35331  14.903   9.132   1.730  0.0584  0.0194 -0.0373
19258W        W35332  13.696  12.320  14.412  0.1839  0.2494  0.2084
19259W        W35333   0.752   1.947   4.208 -0.4072  0.1199  0.0898
19260W        W35334   0.795  13.016   4.269  0.0256  0.0000  0.0190
19261W        W35335   8.466   2.265  15.379  0.1633 -0.3583  0.0652
19262W        W35336   9.818   2.022  13.806  0.2436  0.1102  0.0322
19263W        W35337  14.221  17.901   4.849  0.2929 -0.3359 -0.3271
19264W        W35338  16.683   1.551  15.334  0.0907  0.0034  0.0087
19265W        W35339   4.720  18.280   1.051  0.0875  0.0652 -0.1845
19266W        W35340  16.112  16.110   3.274  0.1692  0.1631 -0.0834
19267W        W35341  18.297   3.681  15.042 -0.1072  0.1208 -0.2107
19268W        W35342   7.421   3.378  14.991 -0.0415  0.1082  0.1810
19269W        W35343  10.297   2.593   2.905 -0.2767 -0.0136  0.1082
19270W        W35344  15.016  12.085   5.267  0.2808 -0.3038 -0.2479
19271W        W35345   8.007   2.318   3.252  0.0201 -0.0750  0.0030
19272W        W35346   4.544  15.718  11.303 -0.2119 -0.2792  0.1185
19273W        W35347   8.635   2.801  10.800 -0.2220  0.0949 -0.0285
19274W        W35348   8.399   0.384  15.458  0.3022  0.1214 -0.3244
19275W        W35349  15.457   2.915   5.209 -0.1884  0.0702 -0.1569
19276W        W35350   2.135   4.677  10.195 -0.0617 -0.1026  0.0070
19277W        W35351  12.749  14.449  11.101 -0.0461 -0.0200 -0.1376
19278W        W35352  17.488   6.276  14.693  0.1710 -0.3757  0.4243
19279W        W35353  10.575   2.944  13.354 -0.0438  0.1291  0.0708
19280W        W35354   9.587  12.425   3.289 -0.1361 -0.1202 -0.0673
19281W        W35355  12.588  18.272   2.127  0.1125 -0.2397  0.1273
19282W        W35356   3.758  15.266   1.658  0.3280  0.2689  0.1515
19283W        W35357   1.868  17.612   5.892 -0.0034  0.0511  0.1145
19284W        W35358   2.105   5.199  12.808 -0.0152  0.0329  0.3473
19285W        W35359  14.845  17.747  11.453  0.0065  0.4961 -0.1285
19286W        W35360   8.176  15.576   4.590 -0.0540 -0.1389 -0.2312
19287W        W35361  14.388  14.778   4.010  0.1685 -0.0591 -0.3125
19288W        W35362  14.978   4.346  15.221  0.0534 -0.2354 -0.1231
19289W        W35363   7.912   9.238  11.742  0.0935  0.0468  0.0665
19290W        W35364   0.201   1.029  13.273 -0.0938  0.1183 -0.0556
19291W        W35365   2.414   5.044  12.143  0.1207 -0.1410  0.1079
19292W        W35366  16.741   6.784   1.646  0.1582  0.2167 -0.3955
19293W        W35367  11.430   0.178  12.190 -0.0109  0.0859  0.0826
19294W        W35368  12.418  14.691  12.945 -0.0266 -0.2666  0.1641
19295W        W35369   0.928   2.265   1.991  0.2027  0.1981  0.3045
19296W        W35370  12.237   9.720   4.601 -0.4879  0.0687 -0.0849
19297W        W35371  15.639   1.587   4.164  0.3161 -0.0374  0.1605
19298W        W35372  11.746   4.746   2.016 -0.2242 -0.1500  0.0519
19299W        W35373   7.800   3.500  11.137  0.4695 -0.1885 -0.1292
19300W        W35374  12.450   6.382   1.785 -0.1040 -0.1081  0.2022
19301W        W35375  14.660  12.693  15.297  0.1288 -0.0422 -0.2340
19302W        W35376  14.021   1.577   3.322  0.1332  0.0810 -0.2408
19303W        W35377   4.794   8.282   4.680 -0.1782  0.0911 -0.0266
19304W        W35378   8.310   3.127   2.786  0.1462  0.0258  0.2430
19305W        W35379  15.067  11.813  13.552  0.0630 -0.2081  0.5417
19306W        W35380   9.945  11.982   5.024 -0.1583  0.0955 -0.1734
19307W        W35381  17.517   7.629   4.200  0.1510 -0.0587  0.1800
19308W        W35382   8.702  15.511  12.635 -0.1259 -0.0508  0.0864
19309W        W35383  13.117   8.968   5.378  0.2181  0.1466 -0.0657
19310W        W35384  17.237  13.346  11.734 -0.0334 -0.2902  0.0849
19311W        W35385  12.892  13.190   3.681  0.4888 -0.0344  0.0718
19312W        W35386   3.482  15.451   4.802  0.3514  0.1159  0.2833
19313W        W35387  16.788  17.576   5.927 -0.2856 -0.0330 -0.0377
19314W        W35388  13.176  17.795   4.238 -0.1389  0.1268 -0.1046
19315W        W35389   0.291  12.187   5.152 -0.4598 -0.2370  0.2942
19316W        W35390   1.741  11.681   0.438  0.1907  0.0174  0.1673
19317W        W35391   9.914  10.412   4.050 -0.2189  0.2875  0.4377
19318W        W35392   8.530  14.727   5.782 -0.0011  0.1320 -0.1866
19319W        W35393   1.141  15.458  14.449  0.1774  0.0296  0.0839
19320W        W35394   0.296  17.856   5.142  0.1235  0.1237 -0.1366
19321W        W35395  17.050  16.566   0.302  0.0528 -0.2572 -0.0215
19322W        W35396  10.104   8.437   4.265 -0.1498  0.1083  0.0146
19323W        W35397  16.489   8.270   4.009 -0.1395  0.3327  0.1602
19324W        W35398  13.443  15.606  13.325 -0.1140 -0.1851  0.1082
19325W        W35399  13.892   4.846  11.238 -0.0001  0.0617 -0.0797
19326W        W35400  12.370   6.084  10.908  0.1172 -0.0748  0.1260
19327W        W35401   8.541  10.291  15.180  0.0230  0.1194  0.0384
19328W        W35402  10.673   9.243  14.989  0.1406 -0.0349  0.0828
19329W        W35403  14.793  13.474   4.707 -0.0333 -0.0731 -0.0908
19330W        W35404  10.744  15.843   0.713  0.0896  0.1730  0.0983
19331W        W35405  11.896   2.037  12.963 -0.3991  0.3081 -0.0057
19332W        W35406  13.467   8.942  12.255 -0.0476 -0.0313  0.0722
19333W        W35407   4.495   4.978   4.363 -0.0256 -0.1583 -0.0866
19334W        W35408   9.791   9.230   4.582  0.1483  0.0766 -0.3170
19335W        W35409   5.398   4.333   4.476  0.4368 -0.0561  0.2473
19336W        W35410   8.027   0.065   1.876  0.0247 -0.3675 -0.0554
19337W        W35411   6.332  15.810   0.434  0.1934  0.1734 -0.0498
19338W        W35412  13.606   2.579  12.006  0.3474  0.0007 -0.0618
19339W        W35413  10.288   3.389   1.636 -0.1617  0.1507 -0.2048
19340W        W35414  16.662   8.184   2.229  0.1180 -0.1243 -0.0699
19341W        W35415   0.028  14.134  10.789 -0.1651 -0.0563  0.0059
19342W        W35416  11.119  18.358  15.436  0.2107 -0.1264 -0.2527
19343W        W35417  10.137  15.516   3.313  0.0245  0.0412 -0.2440
19344W        W35418   0.181  13.916   0.046  0.1289  0.2251  0.1210
19345W        W35419   2.550   6.219   3.908 -0.2165 -0.1214 -0.3929
19346W        W35420   1.795  14.847   3.989  0.0204 -0.0614 -0.0312
19347W        W35421   5.618   7.938   0.062 -0.2017 -0.0365  0.4139
19348W        W35422   4.831   5.987  15.699 -0.0068 -0.2190 -0.1900
19349W        W35423  10.010   1.262  15.649 -0.0574 -0.2935 -0.4253
19350W        W35424   6.445  17.806  10.698 -0.2433 -0.2934 -0.1261
19351W        W35425  17.757   3.184   4.042 -0.0488 -0.3134  0.0802
19352W        W35426   9.912   3.929  12.101  0.1439  0.2634  0.1431
19353W        W35427   7.769   4.765  12.261  0.1454  0.0379  0.1016
19354W        W35428  17.385   4.108   5.723 -0.0311  0.1767 -0.0430
19355W        W35429  10.566  11.927  13.622  0.1282  0.1929  0.0769
19356W        W35430  16.467   0.115   4.197 -0.4556  0.0473  0.0709
19357W        W35431   4.419   0.375   0.495 -0.1464  0.0024  0.0165
19358W        W35432   5.223   1.811  15.147  0.2160 -0.5805  0.0614
19359W        W35433   2.768   3.023  13.671 -0.0662 -0.2559 -0.3136
19360W        W35434  13.371   1.811  15.401 -0.0800 -0.0937  0.1217
19361W        W35435   5.614   4.669   4.204 -0.4197  0.0342  0.0717
19362W        W35436   2.153  17.252  14.954 -0.1650 -0.3036  0.2246
19363W        W35437  14.600   8.140  11.140 -0.3035 -0.1485  0.0739
19364W        W35438  16.855   2.168  14.957  0.1972 -0.1015  0.3173
19365W        W35439  14.542   8.643  15.649 -0.0524 -0.1365  0.1962
19366W        W35440   1.448   5.342   4.708 -0.2125 -0.4211 -0.1655
19367W        W35441   1.503  16.340   4.751 -0.4841 -0.0269 -0.5242
19368W        W35442  16.170  11.547   3.296 -0.0028 -0.3405 -0.2777
19369W        W35443  18.218   2.691   3.844 -0.2928  0.1095  0.1792
19370W        W35444   9.768   1.722   5.284  0.0889  0.2198 -0.0683
19371W        W35445  17.736   2.711   3.739 -0.5172 -0.0598 -0.0260
19372W        W35446   6.204   8.485  11.497 -0.0881  0.3142  0.0230
19373W        W35447   0.484  13.541   0.262 -0.4929  0.1787  0.2981
19374W        W35448   5.839   8.446  14.727  0.0938  0.0736  0.1251
19375W        W35449  14.998  10.072  11.992 -0.0850  0.1241 -0.0272
19376W        W35450  18.007   0.457   3.586  0.0664 -0.2292  0.0168
19377W        W35451  16.873   7.047   3.759  0.1080  0.2764  0.0501
19378W        W35452   9.815  15.806   3.592 -0.3924 -0.1061  0.0051
19379W        W35453  15.775   7.467  11.823  0.1681 -0.0081  0.1611
19380W        W35454  16.169  16.472  13.263 -0.0882 -0.1769 -0.0448
19381W        W35455  10.397  17.739   3.228 -0.1177  0.0244  0.2213
19382W        W35456  15.576  10.033  15.953  0.2127  0.2573  0.0164
19383W        W35457  14.629  14.261  12.875 -0.0213 -0.0739  0.0401
19384W        W35458   9.445   4.262  12.098 -0.0660  0.0916 -0.0880
19385W        W35459   9.077   7.711  12.326  0.1644  0.1175  0.0440
19386W        W35460  13.690   2.040   0.806 -0.2079  0.3035 -0.1733
19387W        W35461  13.503   5.497  12.274 -0.1183 -0.1753  0.2300
19388W        W35462  17.040  10.642   4.850  0.4971  0.2637  0.1062
19389W        W35463  16.814  12.133   1.085  0.0425 -0.2602  0.1195
19390W        W35464   6.295   5.751   3.815 -0.0346 -0.2588  0.2442
19391W        W35465  11.086   9.311   6.007 -0.1642 -0.1793 -0.2416
19392W        W35466   7.308   2.806  14.109  0.1071 -0.0682  0.0947
19393W        W35467   9.065  13.684  14.299 -0.1616 -0.0275 -0.1124
19394W        W35468  16.151   3.378   4.551  0.3668  0.4323 -0.0553
19395W        W35469   1.522   1.910  12.589  0.0299 -0.0943  0.2374
19396W        W35470   7.785   2.860   0.623 -0.4793 -0.0506  0.2347
19397W        W35471   5.144   4.827   0.112  0.2817  0.2147  0.0336
19398W        W35472  16.453   5.113   2.859  0.1295  0.2240  0.3193
19399W        W35473   8.816  17.662  14.378  0.0844  0.1366  0.2070
19400W        W35474  16.807   7.629  14.398  0.0572  0.2526 -0.0632
19401W        W35475  10.478  13.586   4.806  0.2898  0.1846  0.1487
19402W        W35476   0.542  13.197   3.307 -0.2179 -0.1204  0.0933
19403W        W35477  17.800  13.455  15.228 -0.1652 -0.1072  0.2090
19404W        W35478   0.789   9.286   4.175  0.0598 -0.0824 -0.0298
19405W        W35479  18.025  10.828  15.275  0.3236 -0.1281  0.2542
19406W        W35480   1.404  18.561   5.767  0.1396  0.2816 -0.2914
19407W        W35481   6.218  11.179   1.000  0.1732 -0.0286 -0.2308
19408W        W35482  12.711   3.078  12.094  0.1072  0.0901 -0.2307
19409W        W35483   4.017   1.306  15.109  0.1623  0.1731  0.0512
19410W        W35484  16.557   1.890   4.124  0.1152  0.3071  0.2201
19411W        W35485  17.001   1.263   5.963 -0.1060  0.0554  0.0938
19412W        W35486   8.002  13.841  13.457 -0.0665  0.1739  0.1610
19413W        W35487  15.483  16.023  15.159 -0.1519  0.0967  0.1766
19414W        W35488   6.364   8.827  13.126 -0.3299 -0.3924 -0.1217
19415W        W35489   7.127   2.087  11.445 -0.0579  0.2315  0.3019
19416W        W35490   4.124  11.624   4.910 -0.0929 -0.1422  0.3276
19417W        W35491   9.350   3.761   4.864 -0.1805 -0.0977 -0.2143
19418W        W35492  16.526   6.551  15.188  0.2173  0.1750 -0.3267
19419W        W35493   2.053  17.004  14.181  0.1729 -0.0564 -0.2060
19420W        W35494   7.411   4.779  14.475  0.0142  0.3775 -0.0993
19421W        W35495   5.567  17.455   4.517 -0.1661 -0.0720 -0.3875
19422W        W35496  17.943  16.215   4.882  0.2596 -0.0702  0.2029
19423W        W35497   8.043   7.432   4.913  0.0019 -0.0489 -0.2516
19424W        W35498   3.304   4.095  12.559 -0.0481 -0.2440 -0.2776
19425W        W35499  18.004  15.677   2.570  0.1484  0.0521  0.0924
19426W        W35500  11.946  16.938   4.131 -0.0510  0.0669 -0.2407
19427W        W35501   1.139   4.994   5.895 -0.0587  0.0796 -0.2895
19428W        W35502  17.146   6.624   1.996  0.3302  0.1842 -0.0343
19429W        W35503   8.722  10.609  12.792  0.2258  0.3657  0.0512
19430W        W35504   6.380   1.322  16.023 -0.1060 -0.1506  0.0696
19431W        W35505   8.507  14.373  15.912  0.2908  0.0614 -0.0006
19432W        W35506  11.279  16.289   0.991  0.1127 -0.0753  0.3408
19433W        W35507  12.462   0.174   1.883  0.1258 -0.2503  0.0751
19434W        W35508  11.527  16.211  14.734 -0.0776 -0.1836 -0.0245
19435W        W35509  15.079  11.514  13.931 -0.0254 -0.1695 -0.3173
19436W        W35510   6.019  11.911   0.587 -0.2594 -0.0392  0.0965
19437W        W35511  16.063   4.292  12.502 -0.1039  0.1465 -0.1517
19438W        W35512  18.177  11.731  13.666 -0.0087  0.3359 -0.1979
19439W        W35513  15.021   6.218   1.100 -0.1953 -0.1411 -0.0709
19440W        W35514   7.902  11.592  13.421  0.1595  0.0718  0.1248
19441W        W35515   6.839   4.727  12.868  0.2557  0.2850  0.2632
19442W        W35516   1.786   7.059   3.407  0.0092 -0.1184  0.1630
19443W        W35517  15.474  17.428   0.081 -0.0420  0.3076 -0.0627
19444W        W35518   5.405  16.498  10.622 -0.2299 -0.3746  0.1808
19445W        W35519   9.387  12.014   3.482 -0.3801  0.0514  0.0717
19446W        W35520  18.218  13.997   2.665  0.1665 -0.1827  0.2591
19447W        W35521  18.158  10.387   0.041  0.0137 -0.1211 -0.0640
19448W        W35522   2.841  10.093   0.234  0.1995 -0.2847  0.0803
19449W        W35523   5.418   4.082   5.669 -0.0313 -0.0581  0.1887
19450W        W35524   2.266  17.608   6.154  0.0634 -0.0374 -0.3312
19451W        W35525  13.103   8.327   2.023 -0.2568 -0.3835  0.0035
19452W        W35526  16.318   9.518  12.361 -0.2963 -0.2170 -0.3036
19453W        W35527  11.123  14.743   2.859  0.0101  0.0914  0.3968
19454W        W35528  13.350   5.048   4.598  0.0056  0.2027 -0.2099
19455W        W35529  15.200  15.425  13.485 -0.0674 -0.1681  0.2266
19456W        W35530  16.490   0.181  11.137  0.1153  0.1040 -0.2583
19457W        W35531   4.607   0.151   4.569 -0.0085 -0.4106 -0.1040
19458W        W35532   1.767   9.065  11.413 -0.3557  0.0647 -0.2634
19459W        W35533  17.491   2.672  11.906  0.0728 -0.0271 -0.0773
19460W        W35534  13.858  11.568  15.033  0.0437  0.1727  0.0521
19461W        W35535   8.740  14.268   3.642 -0.1625 -0.2353  0.0977
19462W        W35536  12.052   5.862   2.764  0.0495 -0.0256  0.0292
19463W        W35537  10.983   8.077   0.396 -0.1478  0.0695 -0.2858
19464W        W35538   5.056  12.256   6.084  0.0319  0.4213  0.2301
19465W        W35539   0.934   8.601   4.137  0.0606 -0.2103 -0.2639
19466W        W35540  18.326  18.062  11.150 -0.2328  0.1162  0.2202
19467W        W35541  17.314   6.430   3.700 -0.0109 -0.1882 -0.2420
19468W        W35542   3.205  11.661   3.324 -0.1500  0.1604 -0.0568
19469W        W35543   0.229   6.244   1.708  0.1928 -0.0453 -0.2960
19470W        W35544   6.495  12.389   0.539  0.1765  0.1054 -0.1240
19471W        W35545   6.898   9.953  12.217 -0.1295  0.0818 -0.1545
19472W        W35546   0.420   5.118   4.423  0.1660 -0.1362  0.2276
19473W        W35547  16.233  16.495  14.237  0.1249  0.3280  0.0787
19474W        W35548  14.538   0.715  15.708 -0.1326 -0.1982  0.0226
19475W        W35549   2.959  12.382   2.797  0.0220  0.0271 -0.2993
19476W        W35550  14.848   6.444  11.494 -0.2317  0.0685  0.1438
19477W        W35551   6.435   9.085   2.035  0.0828  0.0369 -0.0667
19478W        W35552   4.992   4.645   4.635  0.0732  0.1239 -0.3178
19479W        W35553   4.258  16.026  11.683  0.0740  0.1864  0.2944
19480W        W35554   6.754  13.658  11.848 -0.3272 -0.2590 -0.0569
19481W        W35555   0.610  12.584   2.373 -0.0043 -0.3922  0.0095
19482W        W35556   8.536   8.495  14.307 -0.0811 -0.0347 -0.2637
19483W        W35557  17.208   8.427  14.114 -0.0635 -0.0010  0.0102
19484W        W35558  18.149  10.830  13.996 -0.0886 -0.2529 -0.2090
19485W        W35559  18.201   5.286  15.507 -0.2344  0.1712  0.0803
19486W        W35560  15.150  15.406  11.625 -0.1648 -0.2269 -0.2454
19487W        W35561   6.697   8.672  14.814  0.1534 -0.0420  0.1789
19488W        W35562  13.918   0.932  12.822 -0.0490  0.4306  0.2323
19489W        W35563  16.216   0.040   3.285  0.2261  0.2782  0.2420
19490W        W35564   2.927   3.047  12.085  0.2475  0.2896 -0.0205
19491W        W35565   0.159   7.401   5.074  0.2172 -0.0033  0.0523
19492W        W35566   9.801   7.232  12.357  0.0117 -0.0200 -0.1750
19493W        W35567  15.293  12.368   1.895  0.1241  0.0688 -0.0947
19494W        W35568  16.268   2.483   4.962 -0.0022 -0.1025  0.1828
19495W        W35569  14.678  17.469   3.579  0.1358  0.2209  0.1509
19496W        W35570  13.165  14.651   5.406 -0.2354  0.1475 -0.1633
19497W        W35571   0.950   6.992   2.854  0.0713 -0.0202  0.2283
19498W        W35572   4.102   4.457   2.927  0.0924 -0.0052  0.0773
19499W        W35573   9.577  12.382   5.116  0.0230 -0.0443 -0.1924
19500W        W35574   7.543   0.257  11.439 -0.1436 -0.0779 -0.0524
19501W        W35575  12.304  17.228   2.170  0.3035 -0.0539  0.1583
19502W        W35576   2.254  13.960   4.124 -0.1720  0.0632  0.0180
19503W        W35577   2.262  16.466  12.430  0.3298  0.0502  0.0273
19504W        W35578   9.105  11.027   4.439  0.2135 -0.3162 -0.1848
19505W        W35579  16.947  10.565  15.324 -0.1522 -0.1576  0.0790
19506W        W35580  13.881   3.078  12.231 -0.0922 -0.0321  0.2297
19507W        W35581   7.485  11.615   1.315 -0.1169  0.1152 -0.1418
19508W        W35582   2.824  10.523  14.163  0.3909  0.0047 -0.1524
19509W        W35583  15.879  15.904  11.716  0.1277  0.2355  0.1313
19510W        W35584   1.432   8.058   0.756  0.0833 -0.0893  0.0249
19511W        W35585  16.176  15.608   3.000  0.2519  0.0687 -0.1507
19512W        W35586   5.436   6.703   0.775 -0.0141 -0.2177 -0.1025
19513W        W35587  12.510  16.021   2.951 -0.2588 -0.0463 -0.2891
19514W        W35588  12.163  10.518  11.373  0.2629  0.0580 -0.2233
19515W        W35589   6.494  17.203  15.523 -0.1512 -0.1461 -0.2431
19516W        W35590  14.048  17.170  11.460  0.0006  0.3631  0.0254
19517W        W35591   9.838   5.703   5.398  0.0078 -0.1400  0.1823
19518W        W35592   7.720   6.203  15.402  0.2935  0.0945 -0.1093
19519W        W35593  12.870  16.927   2.236 -0.0627 -0.3504  0.2377
19520W        W35594  15.152   1.895   1.895  0.1349  0.2008 -0.2163
19521W        W35595  17.225   0.461   0.860  0.0434 -0.0709 -0.1947
19522W        W35596   9.665  17.087   2.007 -0.1957  0.0866 -0.0686
19523W        W35597   1.803  14.852   4.504 -0.1771 -0.1005 -0.1389
19524W        W35598   3.080   0.375   5.862 -0.0781  0.0470  0.4041
19525W        W35599   4.554   8.261  12.252 -0.2660  0.0177  0.2750
19526W        W35600   9.052  14.602   2.503  0.0730  0.0147 -0.1570
19527W        W35601  12.564  14.224  10.722  0.2879  0.1467  0.1705
19528W        W35602   3.520   6.754  15.354  0.0825 -0.2780  0.0840
19529W        W35603   1.843   9.915  13.924  0.1186  0.4549 -0.2438
19530W        W35604  16.186   2.470  13.867 -0.0571  0.4940  0.1785
19531W        W35605  15.906   9.480   3.144  0.0129  0.1531  0.2817
19532W        W35606   2.838   4.456   0.350 -0.4026  0.0701 -0.1370
19533W        W35607   8.799   6.523   4.443 -0.0081  0.0323 -0.0247
19534W        W35608  13.243   3.069   4.475  0.2130  0.1084 -0.0215
19535W        W35609  10.806   9.717   0.784 -0.4575  0.0917  0.0510
19536W        W35610   9.431   0.330  15.302  0.0577  0.1352  0.0932
19537W        W35611  18.434   9.620   6.419 -0.3794 -0.0588  0.2250
19538W        W35612  10.644   5.713   1.370 -0.2238  0.0384 -0.1044
19539W        W35613  17.018  18.044   3.364 -0.1341 -0.0654 -0.2074
19540W        W35614  11.159  12.581   1.408 -0.0882 -0.0621 -0.1720
19541W        W35615   7.236  10.521  12.765  0.1401  0.1163  0.0599
19542W        W35616   0.526  17.569  14.113  0.4115 -0.1715 -0.0097
19543W        W35617  10.044   9.814   1.492 -0.0797  0.1460  0.3188
19544W        W35618   0.018  11.631   0.860 -0.2129 -0.0543 -0.0878
19545W        W35619   3.791   7.035  12.328 -0.1048 -0.3532  0.0084
19546W        W35620   7.059  16.104   2.775  0.1591  0.0733  0.1505
19547W        W35621   8.455   5.466  11.323  0.1280  0.0297  0.0963
19548W        W35622   9.203   1.954   2.627 -0.2663  0.0727  0.0816
19549W        W35623  15.792  12.366   3.096 -0.0659 -0.2694 -0.0360
19550W        W35624  15.131   7.705   1.680 -0.3396 -0.4589  0.2452
19551W        W35625  17.512  17.148  14.479  0.2050  0.0645 -0.2523
19552W        W35626  17.975  11.416  14.632 -0.2366  0.0653  0.0313
19553W        W35627  10.069   8.003   3.880  0.0041  0.0293  0.3888
19554W        W35628   5.504  13.115   0.663  0.2847  0.2407 -0.2078
19555W        W35629  10.391   0.477   4.914 -0.4143  0.1588 -0.0221
19556W        W35630   3.665  14.640   5.241 -0.0455 -0.1298  0.1360
19557W        W35631   0.774   4.643   3.914  0.0296 -0.1782  0.0968
19558W        W35632   7.017  12.155  12.600  0.0053 -0.2387  0.1105
19559W        W35633  15.780  17.048  13.814 -0.0061  0.0907  0.0604
19560W        W35634   8.611  16.624   5.362 -0.5345  0.0906 -0.0890
19561W        W35635   8.638  10.320   2.450 -0.1875 -0.0328 -0.1517
19562W        W35636  10.594  17.505   4.138  0.1103  0.1054 -0.5167
19563W        W35637   6.937  17.856  11.725 -0.0327  0.0141  0.0099
19564W        W35638   8.423  12.450  14.393  0.0662  0.1953 -0.1279
19565W        W35639   9.577  17.807  12.552 -0.1617 -0.0858 -0.1387
19566W        W35640  16.146  12.314  13.520  0.1035 -0.1376  0.2497
19567W        W35641   0.431   5.008  11.357  0.0674 -0.1757  0.0100
19568W        W35642   3.514  16.001  15.233 -0.2301 -0.2728  0.1683
19569W        W35643   0.936   3.114   1.838  0.3181 -0.1956  0.0060
19570W        W35644   8.005   3.715  14.301  0.2670  0.2945 -0.2209
19571W        W35645   7.098  11.918   4.480 -0.1518 -0.0819  0.1850
19572W        W35646   5.065  10.054   1.325 -0.1424 -0.1273 -0.0994
19573W        W35647   1.975  10.454  13.262 -0.0658  0.2029 -0.1207
19574W        W35648   3.720   9.326  14.169  0.0061 -0.2197  0.0472
19575W        W35649  13.768   4.277  13.485  0.3223  0.1200 -0.1828
19576W        W35650   5.627   1.667  10.558  0.1013  0.0652 -0.1571
19577W        W35651   6.278  18.256   3.434  0.0594 -0.0224 -0.1566
19578W        W35652   6.925  14.279   5.084  0.1463  0.0342 -0.2606
19579W        W35653   0.597   4.033  13.373  0.0595  0.1329  0.0654
19580W        W35654   8.795   1.437   0.171  0.1105 -0.0609  0.3111
19581W        W35655  15.613   7.581  12.719  0.0508  0.1637  0.2149
19582W        W35656   8.635   2.111  11.791 -0.1597 -0.0193 -0.2368
19583W        W35657   2.275  10.509  14.309  0.1051  0.0127  0.0765
19584W        W35658  15.755  11.169   3.301  0.1901 -0.0244  0.1044
19585W        W35659  13.577  14.363  13.594 -0.2871  0.1200 -0.0232
19586W        W35660   8.110  14.555   3.242  0.0875 -0.0608  0.0853
19587W        W35661  16.714   6.362   5.222 -0.1529 -0.0484  0.2505
19588W        W35662   5.815  10.807   0.036 -0.2153  0.1061 -0.2401
19589W        W35663   6.733   8.594  12.879 -0.0549 -0.0330  0.2434
19590W        W35664   0.135  12.885   3.041 -0.2450  0.3071 -0.2961
19591W        W35665   2.232  10.787  12.518  0.1565 -0.1725  0.0769
19592W        W35666  12.843   3.112   1.245 -0.1615 -0.1600 -0.1129
19593W        W35667   5.557   7.176   3.146  0.2546  0.1214 -0.0518
19594W        W35668  14.920   3.227   2.507  0.0319 -0.0993 -0.3249
19595W        W35669   6.291  13.235  14.823  0.2291  0.0328  0.2867
19596W        W35670  14.478  17.016  15.862 -0.0169  0.1397 -0.0002
19597W        W35671   0.703  14.783  16.019 -0.1401 -0.0197 -0.0560
19598W        W35672   3.945   6.191   0.380  0.0201  0.2210 -0.0749
19599W        W35673  10.533  15.516  10.898 -0.1007 -0.1259 -0.3036
19600W        W35674   2.525  14.209   0.806  0.0866  0.3628  0.0260
19601W        W35675   6.300   4.032   2.613  0.0901 -0.0533  0.0829
19602W        W35676  16.657  14.555   4.455  0.0795 -0.1778  0.1385
19603W        W35677  16.400  14.198   1.007  0.0039 -0.3547  0.2289
19604W        W35678  16.185   9.958   5.684 -0.2135  0.0339 -0.0851
19605W        W35679  17.686   5.126   5.601  0.3901 -0.0949  0.2657
19606W        W35680  10.411  16.623   0.798  0.1129 -0.3846  0.0930
19607W        W35681   7.769   5.529   1.088  0.0335 -0.2030 -0.2399
19608W        W35682   1.001  15.070   5.992 -0.2407  0.0466  0.1733
19609W        W35683  10.799  16.438   2.670 -0.1020  0.3322 -0.2152
19610W        W35684  11.461  15.215   2.884  0.0007  0.0848 -0.1863
19611W        W35685  12.007   0.001   4.891  0.1850  0.0649 -0.0435
19612W        W35686   1.334  11.539  13.215  0.0282 -0.0617 -0.0758
19613W        W35687   9.824   2.466   1.698 -0.2508 -0.2110 -0.0540
19614W        W35688   3.125  14.991   3.181  0.0771 -0.1615  0.0292
19615W        W35689  16.981   8.362   0.490 -0.0914 -0.0933  0.2537
19616W        W35690  14.522  12.519  13.081  0.2509 -0.1868 -0.0096
19617W        W35691   0.714   1.587   2.223 -0.1061 -0.0702  0.0572
19618W        W35692   9.277  10.205   0.465  0.3441  0.0089  0.2041
19619W        W35693  12.587  11.934   3.077  0.0661  0.2821 -0.1243
19620W        W35694   5.128  12.309  13.124 -0.0575 -0.1277  0.1576
19621W        W35695   8.428   2.822   1.037 -0.0734 -0.2359 -0.0681
19622W        W35696   7.889   5.988   3.442 -0.0228 -0.1956  0.3882
19623W        W35697   8.731  13.161   4.446 -0.1683  0.2360 -0.2138
19624W        W35698   1.998   4.702  14.039  0.0084 -0.0740 -0.2161
19625W        W35699  12.780   3.603  14.126 -0.0047  0.0417 -0.3622
19626W        W35700   6.283  14.677   1.049  0.0178 -0.2562 -0.0600
19627W        W35701   6.984  17.070   4.486 -0.0422  0.1586  0.0463
19628W        W35702  10.515  11.983   5.755 -0.2990 -0.0001  0.0462
19629W        W35703  15.714  11.030   1.730  0.4367  0.0042  0.3049
19630W        W35704   4.908   0.170  15.636 -0.2491  0.4437  0.2950
19631W        W35705  17.879  18.568   3.325  0.0327 -0.0657  0.5569
19632W        W35706  15.493  17.227   3.951  0.2861  0.0185 -0.0231
19633W        W35707  10.819   0.814   3.233 -0.1246 -0.1073 -0.1002
19634W        W35708   9.180  11.527  14.501 -0.0926 -0.1242  0.0818
19635W        W35709  17.129  11.986   2.458 -0.2583 -0.1148  0.0437
19636W        W35710  17.604  16.872  15.027  0.1928 -0.0968  0.2687
19637W        W35711   5.630   1.155  12.314  0.0626 -0.5190  0.2165
19638W        W35712  11.009   7.604   0.727 -0.0186 -0.1217 -0.2455
19639W        W35713  15.585  12.793  12.386  0.0975  0.0618 -0.0863
19640W        W35714   9.264  16.213   4.278 -0.3009 -0.4598 -0.1668
19641W        W35715   8.998   5.722   1.267  0.0502  0.0016  0.1444
19642W        W35716   1.518  14.998  12.799  0.0706  0.1630 -0.1667
19643W        W35717  18.004   2.235   2.283  0.2242  0.2142  0.0413
19644W        W35718   3.046  10.999  14.242 -0.3802 -0.1862  0.0385
19645W        W35719   4.245   6.448   5.720  0.3022 -0.1704 -0.0270
19646W        W35720  10.504   8.654   1.506 -0.5264  0.0807  0.0397
19647W        W35721   8.703  11.606  15.825 -0.1726 -0.0934 -0.1115
19648W        W35722   3.786   7.503   2.438 -0.1653  0.8555  0.2354
19649W        W35723  17.666  13.095   0.506  0.1194 -0.2173 -0.0250
19650W        W35724   1.317  11.890   4.701  0.0094  0.2914 -0.1771
19651W        W35725  13.273  14.063   2.530  0.0096  0.1725 -0.0139
19652W        W35726   4.774  13.425   1.804 -0.0531 -0.0244 -0.2885
19653W        W35727   6.703   8.457  13.448  0.2937 -0.1029 -0.2138
19654W        W35728   0.639   8.026  15.029  0.1370 -0.0279  0.0514
19655W        W35729   8.753   2.827  12.198  0.0344 -0.0847 -0.0068
19656W        W35730   0.243  17.281   0.264  0.0915  0.0931  0.3687
19657W        W35731  13.644  13.541  12.369  0.1090  0.4374  0.1689
19658W        W35732   6.889   2.421  11.771  0.1510  0.1637 -0.0732
19659W        W35733   8.609   3.883   3.269  0.1510  0.1187 -0.1635
19660W        W35734  17.467   5.870   5.705 -0.2343  0.0758 -0.1847
19661W        W35735   5.360  11.849   0.856  0.1278 -0.0676 -0.0221
19662W        W35736   8.917  18.159   4.195  0.1895  0.2133 -0.2491
19663W        W35737   8.370   9.817   3.700 -0.0248 -0.1764  0.1553
19664W        W35738  15.178   7.648  15.085  0.3542  0.0837 -0.2920
19665W        W35739   9.130  18.489   1.969 -0.2212  0.0788  0.0685
19666W        W35740   3.137  11.377   2.318 -0.0553 -0.1807  0.1641
19667W        W35741  12.691  17.951  11.647 -0.1663  0.0088  0.2936
19668W        W35742   2.917   4.519  14.465 -0.4137 -0.2866  0.0654
19669W        W35743  18.469  16.696  14.911 -0.1107  0.0775  0.0391
19670W        W35744   2.538   9.475   5.579  0.0105 -0.2249  0.0066
19671W        W35745   6.476  14.623   4.157 -0.2515  0.0567 -0.4289
19672W        W35746   6.772  17.758  12.272 -0.0590  0.1643 -0.0687
19673W        W35747  14.309   4.951  13.706 -0.3804 -0.0513 -0.1357
19674W        W35748   7.361   1.524  11.937 -0.0485  0.2189 -0.2591
19675W        W35749  13.486   3.269   5.668  0.1961  0.1412  0.1027
19676W        W35750   8.983  14.637  12.868 -0.0194 -0.2464 -0.1439
19677W        W35751  11.435   6.756  14.114  0.0478  0.3243 -0.1728
19678W        W35752   5.744   1.263   2.371 -0.0196 -0.0604  0.0267
19679W        W35753   0.066  11.039  13.789 -0.0281 -0.0982  0.2255
19680W        W35754   2.324   9.944   0.426  0.0926  0.1157  0.2781
19681W        W35755   9.275   2.494  13.105 -0.0297  0.0304 -0.3519
19682W        W35756   4.900  15.239   2.713 -0.0032  0.6042 -0.1916
19683W        W35757   7.127   1.365   5.659 -0.1526 -0.0633 -0.0273
19684W        W35758  12.176   7.374  15.058  0.1356 -0.0366  0.1606
19685W        W35759  14.180   6.492  14.365 -0.0322  0.4421  0.2683
19686W        W35760   8.837   2.457  11.386  0.0882  0.1375  0.0139
19687W        W35761  15.061   9.954   3.471  0.1658 -0.4332  0.0257
19688W        W35762  10.652  13.360   4.407  0.2418  0.1478  0.0816
19689W        W35763   1.553  17.751  11.314  0.2693 -0.1570 -0.0689
19690W        W35764  15.568   7.681   1.936  0.0756  0.1155 -0.2851
19691W        W35765  10.854  11.387  11.997 -0.1458  0.2907  0.0764
19692W        W35766   0.485   5.213   0.821 -0.1001 -0.0587  0.0943
19693W        W35767  18.392  13.386  11.406 -0.2024 -0.1622 -0.0707
19694W        W35768  10.113   9.871   0.073  0.0655 -0.2326  0.1465
19695W        W35769  15.790   0.095   4.725 -0.0606  0.1238  0.0023
19696W        W35770   1.004  10.229   4.409  0.1443 -0.2510  0.1745
19697W        W35771   9.988   6.976  13.568 -0.0162  0.2089  0.0119
19698W        W35772  12.604  16.523  15.951  0.3414 -0.0384 -0.1551
19699W        W35773   8.447  17.310  10.948 -0.0422 -0.2314  0.3232
19700W        W35774  18.453   6.901  12.129  0.0425  0.2168  0.1824
19701W        W35775  12.476   6.342   1.280 -0.0022 -0.0220  0.0926
19702W        W35776  18.234   9.948   5.709  0.1781  0.2514  0.1138
19703W        W35777   7.030  18.333   5.216 -0.1694 -0.0575  0.0252
19704W        W35778   0.742   8.768  14.625 -0.3371  0.0854  0.0616
19705W        W35779  10.504  17.282   4.868  0.3253  0.1630 -0.0599
19706W        W35780  13.844   2.732  10.750 -0.0494 -0.2569  0.0528
19707W        W35781  11.244  16.361   5.240 -0.0798 -0.0927 -0.0833
19708W        W35782  15.963   1.018   0.553 -0.1169  0.1352  0.0425
19709W        W35783  16.603   3.132   2.215  0.0104  0.0017 -0.2915
19710W        W35784   4.498   0.166   1.123 -0.3025 -0.0939 -0.1937
19711W        W35785  13.788  12.887   4.908 -0.2287 -0.1060 -0.1502
19712W        W35786  13.561   8.062   1.289 -0.2553 -0.0961  0.1102
19713W        W35787   1.206   0.493   0.796 -0.0947 -0.1165  0.1815
19714W        W35788  13.209   3.739  14.842  0.3421  0.0341  0.0134
19715W        W35789   5.559  18.039  11.892 -0.1159  0.0293 -0.0055
19716W        W35790   2.919   4.172  15.916  0.2045 -0.0029 -0.1229
19717W        W35791   8.918   9.590  14.232 -0.0626  0.1911 -0.2276
19718W        W35792   3.030   0.123   4.301  0.0640  0.3035  0.0044
19719W        W35793   0.463   5.397  13.758  0.0365 -0.0181 -0.0931
19720W        W35794  17.365  13.413   4.832  0.0052 -0.1365 -0.0397
19721W        W35795  15.406   9.736   2.577  0.3106 -0.1402 -0.1528
19722W        W35796   3.947   9.236   3.704 -0.2166  0.1229  0.0494
19723W        W35797   0.007  12.356   5.942 -0.0189  0.1772  0.0327
19724W        W35798  10.258  13.765   1.819  0.2301  0.0092 -0.1494
19725W        W35799  16.107   0.454   4.502 -0.0438 -0.0825  0.0657
19726W        W35800   5.073  16.125   2.584  0.1925  0.0331  0.0263
19727W        W35801   3.382   1.703   3.031  0.2539 -0.0901  0.1367
19728W        W35802   4.856   2.967  11.681 -0.1999  0.1769  0.0405
19729W        W35803  17.420   8.625  13.447 -0.0573  0.0431 -0.1055
19730W        W35804  16.122   0.464   2.901 -0.1912  0.0200  0.1089
19731W        W35805   6.691  14.538  10.950 -0.1733  0.3389 -0.0970
19732W        W35806   1.994  17.459  15.395 -0.1484  0.0114 -0.0086
19733W        W35807   4.068  13.041   1.573  0.0657  0.2408  0.0598
19734W        W35808   4.823   8.918   1.317  0.0300  0.3385  0.0374
19735W        W35809  12.599  12.335  14.386 -0.1336 -0.0554 -0.0340
19736W        W35810   8.665   7.414  12.526  0.1294 -0.2017  0.1989
19737W        W35811   5.550   7.578  13.067 -0.1810 -0.1374 -0.1239
19738W        W35812  12.977   0.746  11.054 -0.1718 -0.2483 -0.0722
19739W        W35813  14.896   2.466   0.428 -0.4252  0.3962 -0.1693
19740W        W35814   5.041  13.898   5.839  0.2590 -0.1492 -0.1215
19741W        W35815   1.603   5.718   3.887  0.3633 -0.2930 -0.2279
19742W        W35816   3.120  13.184  12.795  0.0016 -0.1903 -0.1586
19743W        W35817  13.609  13.682   1.368 -0.0132 -0.1720 -0.0551
19744W        W35818   1.907  15.836   1.255  0.0066  0.2684  0.1560
19745W        W35819   5.367  14.154  10.967  0.3136 -0.0458 -0.3396
19746W        W35820   2.743  17.273   1.638 -0.0889 -0.1754 -0.0944
19747W        W35821   9.169   7.532   0.229  0.1230 -0.0724 -0.1066
19748W        W35822  12.206   2.216   4.225  0.2500 -0.0890 -0.1006
19749W        W35823   4.847   7.472  12.645 -0.2274  0.0865 -0.3438
19750W        W35824  16.337   4.502   1.686 -0.1485 -0.2823  0.0037
19751W        W35825   2.406  11.517   4.830  0.2847  0.1895 -0.1026
19752W        W35826   9.665  12.603  13.493  0.3137  0.0110 -0.3046
19753W        W35827  17.305  15.439   5.540  0.1623  0.1049  0.3331
19754W        W35828  10.341   6.080   1.668 -0.0886  0.0140  0.0483
19755W        W35829   8.364   2.514  14.051  0.0434  0.0668  0.0986
19756W        W35830   0.462   2.020   4.642  0.4608  0.0077 -0.1837
19757W        W35831   6.576   5.072  11.900  0.2711 -0.4754  0.1401
19758W        W35832   2.318  14.903  15.628  0.0106  0.0390  0.0053
19759W        W35833   5.535   7.263   2.489 -0.2658  0.0506 -0.0093
19760W        W35834   8.610  13.422   5.300 -0.0186  0.0699  0.0551
19761W        W35835   0.723  18.500  14.273 -0.0226  0.1289  0.1344
19762W        W35836  13.721   8.127   0.682 -0.2275  0.2738  0.0765
19763W        W35837  14.083  15.855   2.297  0.2752  0.1696  0.0957
19764W        W35838  18.345   8.607  11.722 -0.2287 -0.2673  0.0882
19765W        W35839   4.195   2.766  13.273  0.1932  0.0446  0.0297
19766W        W35840  12.454   2.241  15.612  0.1734 -0.1337 -0.1728
19767W        W35841  13.582  12.282   4.560 -0.1627 -0.2244  0.0489
19768W        W35842   9.230  10.551  14.089  0.0289 -0.1144  0.0286
19769W        W35843   1.913  17.680   2.705  0.0211 -0.4678 -0.0632
19770W        W35844  10.680  13.914   0.329 -0.0075  0.2767 -0.2214
19771W        W35845  12.892  11.975   4.449  0.1870 -0.1923  0.0116
19772W        W35846  12.347  11.009  11.075 -0.1336 -0.1412 -0.0461
19773W        W35847   7.054   3.008   0.557 -0.1277  0.0832 -0.1916
19774W        W35848  11.171  14.586   1.514 -0.0357  0.3328 -0.0789
19775W        W35849   0.408  11.756   1.237 -0.1818  0.0285  0.0162
19776W        W35850  15.415  12.282  14.228 -0.4959 -0.0007 -0.0818
19777W        W35851   9.253   7.703   3.527 -0.1583  0.2109  0.0881
19778W        W35852   1.769   7.262   2.898  0.1409 -0.0720  0.1879
19779W        W35853   5.917   8.878   6.050  0.2863 -0.2344  0.2381
19780W        W35854   1.207  12.229  14.062  0.0344  0.2920 -0.2066
19781W        W35855   0.248   7.766  14.250  0.1039 -0.1196  0.1713
19782W        W35856   1.501  15.559   1.521  0.2900 -0.0808  0.0938
19783W        W35857   8.551   4.790   4.431  0.1031  0.0211 -0.0699
19784W        W35858  18.496  15.772  12.381  0.1060  0.1857 -0.1410
19785W        W35859  15.691  16.419   1.565 -0.3754 -0.0042  0.0556
19786W        W35860   8.111  11.546   5.245 -0.0364  0.0928 -0.0424
19787W        W35861   8.549   6.078   2.048  0.0404  0.2278  0.1371
19788W        W35862   7.146  17.164   3.113 -0.0804 -0.1088 -0.1792
19789W        W35863  14.286  16.645  15.501 -0.2069  0.0844 -0.1473
19790W        W35864   6.976  15.382   3.385  0.3558  0.0028  0.0092
19791W        W35865  16.832  16.610   0.727  0.1115  0.1398  0.2011
19792W        W35866   4.284  14.268  15.409 -0.0119 -0.1921 -0.0297
19793W        W35867  13.141   1.187   9.768  0.0394 -0.3530  0.3287
19794W        W35868   7.008   4.500   1.034  0.0647 -0.0262  0.2615
19795W        W35869   4.259  14.110   4.492  0.3563 -0.0832  0.1051
19796W        W35870  12.375  16.456  13.734 -0.5168 -0.1758  0.1501
19797W        W35871  16.427  17.425   4.398 -0.3382  0.1253  0.1877
19798W        W35872   5.967  13.932  14.326  0.2706 -0.1301 -0.0216
19799W        W35873   6.072  11.291   5.319  0.1700  0.1754 -0.1096
19800W        W35874  14.544   2.782  14.758  0.0632 -0.2613  0.1631
19801W        W35875  12.722  12.424  15.858  0.0928 -0.2401  0.1009
19802W        W35876   5.568  13.114   1.625  0.0595  0.1330  0.0864
19803W        W35877  12.112  14.244  11.917 -0.0468 -0.0059  0.1040
19804W        W35878  10.624  10.792   3.509 -0.1628 -0.2408  0.0919
19805W        W35879   7.147  12.305   4.165  0.0657  0.3106  0.0602
19806W        W35880  12.061   5.059  13.623  0.0549 -0.1489 -0.0775
19807W        W35881  14.796   4.684  12.855  0.0276 -0.0178  0.2101
19808W        W35882  10.140  17.690   6.398  0.0367  0.5683 -0.0324
19809W        W35883  18.030  12.529  15.334  0.1993 -0.1782 -0.2640
19810W        W35884  15.650   3.819   4.312  0.0803 -0.0027  0.3225
19811W        W35885  11.638  10.762  12.603  0.3994 -0.3446  0.0479
19812W        W35886  12.726   0.702  13.703 -0.2965 -0.1501  0.0949
19813W        W35887   5.323  13.485   0.330 -0.0400  0.0909 -0.0656
19814W        W35888  15.120  10.713   2.831 -0.0568 -0.0458  0.2736
19815W        W35889   4.171  10.042  13.605 -0.1017 -0.2379 -0.1033
19816W        W35890  12.538  18.022   3.129  0.1890  0.3089  0.2301
19817W        W35891  10.847   2.238  15.838 -0.0382 -0.0680 -0.1608
19818W        W35892   6.482  17.859  11.463 -0.2592  0.1102 -0.1249
19819W        W35893   9.364   7.626   5.589 -0.4809 -0.0758  0.0961
19820W        W35894   7.545   1.154  15.176 -0.0477 -0.0398  0.2391
19821W        W35895  12.769  17.956  15.542 -0.1591  0.0531  0.2425
19822W        W35896  17.309   2.108  15.228 -0.1907 -0.1739 -0.0484
19823W        W35897   8.881   6.851   3.687 -0.0825 -0.0697 -0.2787
19824W        W35898   3.184   9.601   0.057  0.3083  0.0043  0.1194
19825W        W35899   2.709   1.641  13.363  0.1714 -0.3145  0.0150
19826W        W35900   4.182   9.587  13.331  0.1296 -0.1565 -0.2289
19827W        W35901  11.305  17.835   4.800  0.0939  0.0905  0.0225
19828W        W35902  17.804   2.367   5.553  0.1921  0.0548 -0.5146
19829W        W35903   2.155   9.148   5.386 -0.3639  0.2692  0.2275
19830W        W35904   2.667   6.953   3.030 -0.1349  0.0351  0.3296
19831W        W35905   8.864  11.883  12.614  0.1985  0.0451  0.0897
19832W        W35906   7.187  10.645  11.386 -0.0541 -0.0224 -0.0444
19833W        W35907  11.611  18.038  14.130 -0.0366 -0.0420 -0.0908
19834W        W35908   3.194   8.236   1.495  0.1054 -0.0366  0.1258
19835W        W35909   0.190  14.591   1.670  0.1236  0.0447 -0.1559
19836W        W35910  10.587   5.761   4.510 -0.2292 -0.0634  0.1069
19837W        W35911  10.989  11.587  15.360 -0.0056 -0.0881  0.0536
19838W        W35912  17.541   0.753   2.122 -0.1300 -0.0726  0.0774
19839W        W35913  15.158   1.476  13.533 -0.1071  0.4254  0.0595
19840W        W35914  13.742   7.068  15.579  0.0848 -0.0236 -0.0274
19841W        W35915   3.682   1.388  11.104  0.0456 -0.0935 -0.0185
19842W        W35916   0.651   6.984  15.379 -0.2242  0.0895  0.2701
19843W        W35917  12.955  15.470  13.214 -0.1206 -0.3591 -0.0336
19844W        W35918   6.069   6.055  15.890  0.2407 -0.1760  0.1344
19845W        W35919   6.830   0.799   0.042  0.1298  0.0745  0.0420
19846W        W35920  15.173  12.715  15.035 -0.0329  0.2543  0.0784
19847W        W35921   8.134  12.764  14.786  0.1583  0.1458 -0.1774
19848W        W35922   5.328  11.458   3.383  0.0302  0.0083 -0.0634
19849W        W35923  11.735   0.713   1.544 -0.1602 -0.0114  0.2013
19850W        W35924  10.779  10.689   3.974 -0.1060  0.1996 -0.0517
19851W        W35925  11.087  14.862  12.796  0.2391 -0.0714  0.1217
19852W        W35926   6.355  14.001  12.683 -0.1556 -0.1755  0.1399
19853W        W35927   0.212  15.975   1.740  0.0012 -0.2050  0.0419
19854W        W35928   8.216  14.136  12.519 -0.0578  0.2883 -0.1673
19855W        W35929  14.490   1.410   4.769  0.2492 -0.1508  0.0676
19856W        W35930   2.650  16.102   2.913 -0.3210  0.1475 -0.3674
19857W        W35931   8.006   8.584  14.595 -0.7026 -0.2127 -0.2324
19858W        W35932  11.138  12.674   3.801  0.0211  0.2929 -0.1893
19859W        W35933   7.660   4.331  11.472 -0.1580  0.1174 -0.0094
19860W        W35934  13.245   3.274  13.866 -0.1336  0.1688  0.0509
19861W        W35935   4.545   5.632   2.714 -0.0293  0.2842  0.2805
19862W        W35936   3.505  15.036  11.419 -0.1722 -0.0677  0.0345
19863W        W35937   5.359   7.671  12.612  0.2492 -0.1785  0.3171
19864W        W35938   1.188   5.228   2.580  0.1532  0.0829 -0.1480
19865W        W35939   7.416   4.892   5.224  0.1265 -0.2118 -0.3807
19866W        W35940   0.411  16.983  12.369  0.0818 -0.1270 -0.0005
19867W        W35941   9.549   1.662   3.924  0.0379 -0.0512 -0.0487
19868W        W35942   5.134  18.133  11.532  0.1482  0.0082 -0.0623
19869W        W35943   7.088  12.696  11.698  0.2705  0.4451  0.1419
19870W        W35944   7.322  14.854   4.307  0.0011  0.0457  0.0820
19871W        W35945  18.245  15.799  13.624 -0.1112 -0.0782  0.1385
19872W        W35946  15.701   8.279   2.181 -0.2430 -0.1022 -0.0053
19873W        W35947   2.158  12.655   4.885  0.0519 -0.0140  0.1724
19874W        W35948   2.497   4.854   3.388  0.3143  0.2515  0.0185
19875W        W35949   5.754   8.260   5.135 -0.1822 -0.3489 -0.2319
19876W        W35950   4.482  15.026  12.522 -0.0275  0.0115  0.3668
19877W        W35951  14.017   4.573   1.301  0.1346 -0.3013  0.3823
19878W        W35952   8.163  10.806  15.233 -0.2040 -0.2008  0.1774
19879W        W35953  11.723   4.322   2.286  0.1135  0.0953 -0.0727
19880W        W35954   7.912  12.689  12.834 -0.1554  0.4612 -0.0502
19881W        W35955   2.615  17.996   2.575 -0.1597 -0.2032 -0.1403
19882W        W35956  16.042   4.714   1.299 -0.1585  0.1103 -0.0286
19883W        W35957  11.010  14.327  13.649  0.0460  0.2007 -0.1115
19884W        W35958   2.160  17.226  13.486  0.1610  0.0357  0.2975
19885W        W35959   7.139   1.249  11.565 -0.0662 -0.0421  0.1142
19886W        W35960   0.632  15.993  13.556  0.0289 -0.1339 -0.0957
19887W        W35961   3.070  17.511   4.617  0.1216 -0.0092 -0.3377
19888W        W35962  10.486   9.881   0.362  0.0038 -0.3153 -0.1395
19889W        W35963   5.114  13.046   1.997  0.1594 -0.1245 -0.0579
19890W        W35964   4.017  13.390   2.469 -0.0137 -0.0683 -0.3010
19891W        W35965   5.390  16.754  15.664 -0.1274  0.1080  0.1431
19892W        W35966  14.731   9.876  13.593 -0.1977 -0.2553 -0.1003
19893W        W35967  12.644   9.826   4.924  0.0555  0.2170  0.0077
19894W        W35968   4.934   4.740   3.410 -0.3062 -0.0165  0.0713
19895W        W35969   8.241  13.523  13.911  0.0306  0.0520  0.1117
19896W        W35970   2.156  13.331   2.556 -0.0265 -0.0401  0.1822
19897W        W35971   8.044   9.856  15.745  0.0798 -0.2476  0.2672
19898W        W35972  10.823  13.205  15.773  0.1612  0.2276 -0.2454
19899W        W35973  11.620   4.965  13.875 -0.0070  0.1555 -0.0034
19900W        W35974  11.914  12.074   4.207 -0.0658 -0.0231  0.0586
19901W        W35975  11.459   6.859   2.400  0.0773  0.0478  0.1448
19902W        W35976   7.543  11.065   5.371  0.0294 -0.1662 -0.1993
19903W        W35977   1.245  12.991   2.158  0.1662 -0.0489  0.0558
19904W        W35978  14.669   2.985  15.263  0.3046  0.3143  0.3069
19905W        W35979   2.050   4.015   2.191 -0.1382 -0.1397  0.1439
19906W        W35980  16.272   5.806  11.152  0.0859 -0.3304  0.5099
19907W        W35981  15.310  14.508   0.237 -0.1422 -0.1951  0.1312
19908W        W35982   0.880   8.186   0.793 -0.0188 -0.2481 -0.0400
19909W        W35983   9.105  15.563  13.552  0.1118 -0.1116  0.2701
19910W        W35984  17.511  15.968   4.928 -0.0888  0.2541  0.3281
19911W        W35985   2.023   1.646  15.462  0.0404 -0.1307  0.2418
19912W        W35986   6.938  10.799  12.390  0.1341 -0.1213 -0.3273
19913W        W35987   0.539  13.400  13.325  0.0469 -0.4275 -0.2343
19914W        W35988  15.664   5.822   5.253  0.1635  0.2152 -0.0113
19915W        W35989   5.261  17.860  15.890  0.0457  0.3714  0.2903
19916W        W35990   2.232   5.044   4.759 -0.0148  0.0608  0.0002
19917W        W35991   2.803  10.405  15.042  0.0146  0.1933  0.1152
19918W        W35992   7.050   4.856   3.182  0.3340  0.3636  0.5328
19919W        W35993  12.301   6.634  13.176  0.2078 -0.0536 -0.5178
19920W        W35994  11.448   2.034  12.716 -0.0865 -0.2233 -0.1648
19921W        W35995  11.026  17.607  13.774 -0.2063  0.2066 -0.2791
19922W        W35996   0.503   9.124  11.881 -0.2712 -0.0029 -0.2922
19923W        W35997  13.650   8.372  13.058  0.1074  0.3420  0.0274
19924W        W35998   2.855  17.371  15.997 -0.1926 -0.4085 -0.2094
19925W        W35999  13.812   0.329  15.029 -0.2746  0.3426  0.2695
19926W        W36000  15.111  13.581  13.510  0.0002 -0.0639 -0.3284
19927W        W36001  17.637   2.937  15.193  0.1032 -0.0199  0.3875
19928W        W36002  15.641  13.796   4.750  0.0758  0.1048  0.1531
19929W        W36003   6.897  10.928   6.147 -0.0438  0.0123  0.1789
19930W        W36004   4.422   1.133  14.779 -0.0168 -0.0548  0.3012
19931W        W36005   7.384   7.252   3.806 -0.3217  0.2730  0.1333
19932W        W36006   7.345   3.795   0.534  0.4922 -0.0307  0.0151
19933W        W36007  17.998  16.003  10.727  0.2398 -0.0503 -0.0411
19934W        W36008  12.469   4.006   0.017 -0.0979  0.0340 -0.1013
19935W        W36009   7.527  15.335  12.466  0.1244  0.4114 -0.3578
19936W        W36010  12.915  10.544  14.844 -0.0081 -0.0832 -0.0751
19937W        W36011  11.912   9.201   3.417  0.1327 -0.0790 -0.3719
19938W        W36012  18.310   5.596   2.776 -0.0558  0.1658 -0.0709
19939W        W36013   1.074  15.829   1.682 -0.0524  0.5537 -0.2630
19940W        W36014   1.834   2.305   3.096  0.1546 -0.0762 -0.2281
19941W        W36015  11.873  10.269   3.724 -0.0507 -0.0002  0.1534
19942W        W36016  15.558   0.449   1.669 -0.0678  0.1656 -0.0576
19943W        W36017   4.416   1.375   3.539  0.1659  0.1845  0.1698
19944W        W36018  18.132  15.500   1.724 -0.1247 -0.1884  0.2951
19945W        W36019   8.598  16.862  14.210 -0.1600 -0.0237 -0.3143
19946W        W36020   6.202  15.555  14.226 -0.1599  0.0171  0.0942
19947W        W36021  18.263   8.565  14.312 -0.1639 -0.2203 -0.0597
19948W        W36022  16.133   1.402   4.035 -0.4512 -0.0494 -0.0202
19949W        W36023  10.985  16.078   1.429  0.0924 -0.0556 -0.2272
19950W        W36024   0.255   2.533  15.920 -0.3594  0.1635 -0.0910
19951W        W36025  14.122  10.507   4.518 -0.1460  0.3280 -0.1186
19952W        W36026   6.675  12.593   0.988  0.2046  0.3161  0.4244
19953W        W36027   0.158   0.679   3.245 -0.1628 -0.1049 -0.1427
19954W        W36028  12.946   5.175  12.874 -0.0441  0.0956  0.2849
19955W        W36029   1.282  17.356   1.021 -0.2266  0.0017 -0.0901
19956W        W36030   2.174  15.275  11.689 -0.0081 -0.1284  0.0881
19957W        W36031  13.664  13.299  11.886  0.1923 -0.3700 -0.2852
19958W        W36032  15.105   1.594  11.403 -0.2278 -0.0071  0.2313
19959W        W36033   7.879   2.536  13.020 -0.0474  0.1256  0.0502
19960W        W36034  16.712  14.971  12.872 -0.4172  0.0428 -0.3279
19961W        W36035  16.266   6.764  12.906  0.1497  0.2420  0.1854
19962W        W36036  14.782  10.329   0.121 -0.1008 -0.2889  0.2749
19963W        W36037   7.793   4.384   3.410  0.1294  0.0292  0.2395
19964W        W36038  16.260  12.674  13.888 -0.0394 -0.0890 -0.1158
19965W        W36039  12.461   1.811  14.187 -0.1145 -0.0933 -0.0414
19966W        W36040   3.960  15.351  12.853  0.1905 -0.0608  0.0222
19967W        W36041  10.912  13.981  11.123 -0.0500  0.0910 -0.0405
19968W        W36042  12.064  15.087   3.466  0.3671  0.2082 -0.0050
19969W        W36043  16.865  15.811  13.243 -0.1729 -0.1650  0.0853
19970W        W36044  17.422   7.082   3.548 -0.2007  0.1885  0.1685
19971W        W36045   0.546   7.830   1.057  0.3640  0.1053 -0.0264
19972W        W36046   6.209   4.546   2.562  0.1400 -0.2521 -0.0693
19973W        W36047   0.964   8.368  12.197  0.0161 -0.0858 -0.1051
19974W        W36048   2.797   6.227   6.254  0.0164  0.0868  0.2130
19975W        W36049  11.783   9.247   3.957 -0.2655 -0.3582  0.0514
19976W        W36050  10.105  16.615   4.830 -0.1093  0.2436  0.0148
19977W        W36051   9.701   9.759  11.548  0.1251  0.1268 -0.0213
19978W        W36052  16.811   2.258  11.611 -0.2721  0.2592  0.0377
19979W        W36053  12.119  14.443  14.808 -0.1699  0.0028  0.1501
19980W        W36054  16.992  10.205   5.204 -0.2061 -0.2855 -0.1073
19981W        W36055  15.375   3.847  15.083  0.0663  0.3263  0.0433
19982W        W36056  17.921  14.506  14.825  0.2578 -0.2231 -0.2021
19983W        W36057  17.570  10.073   3.937  0.0647  0.0882 -0.2719
19984W        W36058   1.030   5.369   3.025  0.0989 -0.0350 -0.2843
19985W        W36059  18.345   4.198   5.764 -0.0952  0.2175  0.1816
19986W        W36060  16.291  13.293   2.386  0.1668 -0.2264 -0.2908
19987W        W36061   2.488  15.139   0.620 -0.0772 -0.2638  0.0819
19988W        W36062  16.882   7.181   1.119 -0.0767 -0.3794  0.0735
19989W        W36063   1.788   9.492   4.441 -0.2141 -0.2137  0.0438
19990W        W36064   4.043   0.599  15.894  0.0327 -0.1877  0.1199
19991W        W36065   9.436  17.943   2.833 -0.4164 -0.1590 -0.0738
19992W        W36066  14.095   7.504   5.543  0.1517  0.0494  0.0610
19993W        W36067  12.208  10.755  14.085  0.0080 -0.0215  0.0196
19994W        W36068   0.469  17.880  12.429 -0.3122 -0.1158  0.1089
19995W        W36069  18.528   3.016  12.261  0.1209  0.1982 -0.0136
19996W        W36070  17.649   8.975  13.784  0.1237  0.2234 -0.0474
19997W        W36071   5.354   6.308  13.527  0.0874  0.0412 -0.1751
19998W        W36072   8.878  14.159   4.670  0.0914 -0.1570  0.0964
19999W        W36073  17.315   2.807  12.472  0.1715  0.1645 -0.0953
20000W        W36074  10.956   8.516  12.212  0.2100  0.0006  0.1343
20001W        W36075  15.629   6.383  15.717 -0.3310  0.0418 -0.0383
20002W        W36076   0.141   5.055   2.779  0.1877 -0.1175  0.4523
20003W        W36077  14.521  12.152   4.815 -0.2736  0.1471  0.2427
20004W        W36078  12.007   0.673   1.064 -0.1079  0.1875  0.0590
20005W        W36079   6.439   2.167  11.602 -0.1608 -0.0762  0.1952
20006W        W36080   2.636  11.299   0.103 -0.0038 -0.6147  0.1829
20007W        W36081  12.142  11.850  14.977 -0.0816 -0.0077  0.1458
20008W        W36082  13.049   1.329  14.066  0.0691 -0.0523 -0.1432
20009W        W36083   2.772  16.397  12.495  0.0879 -0.1899  0.0431
20010W        W36084   9.156   4.217  11.705  0.0641  0.1079 -0.0921
20011W        W36085  13.110   0.504  13.534 -0.0273 -0.0115  0.2137
20012W        W36086   0.258   9.205  11.444 -0.2502 -0.1246  0.1283
20013W        W36087  14.139   0.379   0.156  0.3063  0.0048 -0.0910
20014W        W36088  13.762   5.465   2.122 -0.0350 -0.1640 -0.0507
20015W        W36089  16.266   9.219  11.671  0.0438  0.0159  0.2733
20016W        W36090   5.618   3.637   2.181 -0.1238  0.1461 -0.4138
20017W        W36091   5.375  14.875   2.038  0.1401  0.1268 -0.4085
20018W        W36092  17.747   4.363  13.610 -0.2683  0.1485 -0.0484
20019W        W36093  16.270   4.472  14.447 -0.2644  0.1199 -0.3687
20020W        W36094  14.870  10.676  15.110  0.1047 -0.1222  0.2235
20021W        W36095   2.270  10.639   2.249  0.3232 -0.3863  0.1153
20022W        W36096   0.434  17.655  11.933 -0.0622  0.6170  0.0911
20023W        W36097   2.966   7.207   2.362 -0.2184  0.2197  0.1875
20024W        W36098   5.704  14.546   3.456 -0.1833 -0.1663 -0.0575
20025W        W36099   8.352  10.823   4.058  0.1790  0.1190  0.1876
20026W        W36100   1.023   0.270  14.140 -0.1781  0.0545  0.2043
20027W        W36101  10.171   3.549   2.631  0.1966 -0.1829  0.1210
20028W        W36102   5.131  18.006  12.929  0.0198  0.1539  0.2081
20029W        W36103  18.343  13.835  12.839 -0.1571  0.0712  0.3663
20030W        W36104  14.974  16.370   3.485  0.1130  0.1003  0.3350
20031W        W36105  10.954  10.754  11.509 -0.4367 -0.0495 -0.1942
20032W        W36106   9.851   6.734  12.308 -0.1157 -0.1324  0.0478
20033W        W36107  15.094   1.517  15.761 -0.1627  0.0418 -0.0255
20034W        W36108  10.820  10.405  14.503  0.1198 -0.0349  0.1398
20035W        W36109   9.943  15.896  11.413  0.0195  0.0533  0.1739
20036W        W36110   8.445  16.328  12.442 -0.1000 -0.1046  0.1674
20037W        W36111   5.581   3.761  11.424  0.0135 -0.1147 -0.0685
20038W        W36112  15.417  11.984  12.712  0.1729  0.0257  0.0376
20039W        W36113  13.592  12.772   0.807  0.3189 -0.0042 -0.3884
20040W        W36114  15.361   0.487  11.770  0.1963 -0.1726 -0.1472
20041W        W36115   6.971   4.521  14.611  0.2217  0.1427 -0.0628
20042W        W36116   3.432   1.156   4.930 -0.0020  0.1901  0.1816
20043W        W36117   3.404  14.245   0.317  0.2824 -0.2834  0.2706
20044W        W36118   4.229  12.212   4.256 -0.0641  0.0901  0.2612
20045W        W36119   2.189  15.161   2.808 -0.1603  0.2122 -0.2333
20046W        W36120   4.403   9.085  10.696  0.2282 -0.1112  0.1745
20047W        W36121  17.849   8.756  13.285  0.0171 -0.1278 -0.1975
20048W        W36122   6.497   2.482  15.949  0.0035 -0.2243  0.1506
20049W        W36123  18.166   8.953  15.760 -0.0189 -0.2084  0.1261
20050W        W36124   6.001  14.854  13.224  0.0554 -0.3746 -0.0615
20051W        W36125   5.455   9.107  13.399 -0.0427  0.0462 -0.0036
20052W        W36126   4.904   5.270   1.438  0.1406 -0.3195  0.1556
20053W        W36127   5.871  18.085  12.626 -0.1447 -0.1883  0.3965
20054W        W36128   2.691  15.522   3.311  0.1908 -0.0462 -0.2284
20055W        W36129   5.639   9.949   5.240  0.0369  0.0670  0.0052
20056W        W36130  18.175  14.656  13.956 -0.1914 -0.0785 -0.0472
20057W        W36131   5.860   2.354  12.258  0.2118 -0.1944 -0.0192
20058W        W36132   3.179  13.558  13.958 -0.2732  0.1613  0.1910
20059W        W36133   1.992   6.450  13.262 -0.0724 -0.1098  0.1329
20060W        W36134  13.238  18.073   0.013 -0.0248  0.0721 -0.0165
20061W        W36135   9.871  11.633  13.739  0.0957 -0.1756 -0.0427
20062W        W36136   6.239   6.836  11.449  0.5647  0.5877 -0.0329
20063W        W36137   5.033   4.791   2.856  0.0372  0.0115 -0.2218
20064W        W36138  11.485   0.163   1.553 -0.2119  0.1709  0.1576
20065W        W36139  18.213   9.953  11.785 -0.1418  0.3062 -0.1565
20066W        W36140   5.176   6.288  15.917  0.0031 -0.1873  0.0071
20067W        W36141   0.738  14.157   3.351  0.4193  0.3459  0.1536
20068W        W36142  11.431   9.142  15.171  0.1341  0.0730 -0.3521
20069W        W36143   0.375   7.940  11.509 -0.2775 -0.2499 -0.2237
20070W        W36144  11.078  18.148  12.380 -0.1862 -0.2633 -0.3982
20071W        W36145   3.091   7.403   4.616  0.0232  0.0978  0.2090
20072W        W36146   6.283   6.814   3.316 -0.3739 -0.2057  0.0431
20073W        W36147   6.367   6.095   5.950  0.1349  0.2158 -0.0766
20074W        W36148   6.750  10.140  15.389  0.0963  0.0038  0.0550
20075W        W36149  17.196   1.009  11.394  0.0254  0.1045  0.4587
20076W        W36150  12.389   3.057   0.279  0.1704 -0.0452  0.0678
20077W        W36151  14.885   3.264  12.439  0.0884  0.0152 -0.0618
20078W        W36152   1.259  13.028   3.690  0.1087 -0.0165 -0.1347
20079W        W36153  18.310   3.819  11.032  0.0135 -0.6178 -0.1160
20080W        W36154  14.969  14.425   5.106  0.1632  0.4112 -0.4294
20081W        W36155   8.270  17.736  12.147 -0.1504  0.0280  0.0459
20082W        W36156   0.640   6.531   1.490 -0.0991 -0.1923  0.0222
20083W        W36157   3.244  14.908   5.271  0.1464 -0.0302 -0.1783
20084W        W36158  14.327  17.342   1.706 -0.1618  0.2472  0.0881
20085W        W36159   7.942   0.089   4.330  0.1332 -0.2912  0.1049
20086W        W36160  10.291   6.635   2.950 -0.0511  0.0592 -0.1740
20087W        W36161  11.653  14.998  15.327  0.0606  0.1073 -0.1078
20088W        W36162   5.414  17.009   5.014 -0.1631 -0.0870 -0.3044
20089W        W36163  16.049  13.599   4.952  0.1840  0.1234 -0.0525
20090W        W36164   5.769   2.582  13.129 -0.1070  0.1900 -0.0619
20091W        W36165   2.325  12.379   1.615 -0.0021 -0.1502 -0.1452
20092W        W36166  18.281   9.501  13.240 -0.5258  0.3307  0.1226
20093W        W36167  11.365  12.150  14.119  0.1254 -0.1481 -0.1545
20094W        W36168   8.305   5.373   0.053  0.2470 -0.3098 -0.2053
20095W        W36169   3.273   3.479   2.384 -0.0080 -0.2499  0.1743
20096W        W36170  13.694   1.579   1.613 -0.2920  0.0959 -0.0120
20097W        W36171   0.623   7.746  14.598 -0.3215 -0.0831  0.2112
20098W        W36172  11.061  12.548   4.395 -0.3381  0.0668 -0.0932
20099W        W36173  11.831   1.242  15.766 -0.0817  0.0782 -0.1720
20100W        W36174   6.405  11.467   3.256  0.1666 -0.1345  0.0832
20101W        W36175   9.858  13.830  12.083  0.0742 -0.1800 -0.0705
20102W        W36176  11.222   5.349  14.456 -0.0089 -0.1809  0.2427
20103W        W36177   2.983   4.269   5.000 -0.2394 -0.0396 -0.0242
20104W        W36178  10.807  10.523   1.924  0.1988  0.2421  0.0377
20105W        W36179   3.224  11.896   0.046 -0.3317  0.3425  0.0040
20106W        W36180  11.175   6.572   1.290 -0.1680 -0.3119  0.0515
20107W        W36181   9.201  15.594  11.033 -0.0394  0.1455 -0.3311
20108W        W36182   4.070  12.138   4.803  0.0865 -0.0496 -0.3462
20109W        W36183   6.250  15.654  11.592  0.2198  0.1858 -0.0621
20110W        W36184  13.698   8.164   0.045  0.1472  0.1672  0.3609
20111W        W36185   5.950   5.775   2.903  0.2458 -0.2294 -0.0670
20112W        W36186  15.983   5.995  13.024 -0.1650  0.1152 -0.1166
20113W        W36187  15.945  17.051  11.067 -0.0535  0.0298 -0.0520
20114W        W36188   3.323   3.708  12.778  0.1296  0.2407 -0.0238
20115W        W36189   6.692   3.454   3.205 -0.0058 -0.2707  0.1436
20116W        W36190  10.970   7.060   2.781  0.1008 -0.1378 -0.0891
20117W        W36191   3.631  13.790   4.015  0.0229  0.1495  0.0677
20118W        W36192   8.302  15.316   3.784  0.1315  0.1187 -0.1335
20119W        W36193   1.849   7.852   0.144  0.0652 -0.0773  0.2127
20120W        W36194   1.892   5.527  11.960 -0.2474 -0.3234 -0.0654
20121W        W36195  12.885   1.129   0.930 -0.0213  0.3611  0.3388
20122W        W36196   4.862   1.204   3.426 -0.1209  0.0613  0.0252
20123W        W36197   0.098  11.261   1.177 -0.1141  0.2080 -0.0474
20124W        W36198   6.520  16.875   4.706  0.1918  0.0754  0.1529
20125W        W36199  13.840   7.785  14.026  0.2085 -0.0779 -0.2135
20126W        W36200  15.978  13.397   4.523 -0.2702  0.0673 -0.2349
20127W        W36201   9.130   7.681  13.998  0.2248  0.1040 -0.0252
20128W        W36202  14.647  15.339  16.009  0.0137  0.0800  0.1286
20129W        W36203   6.134   6.559   3.784 -0.4787 -0.1001 -0.0815
20130W        W36204  15.394   6.804   4.034  0.2793  0.0742 -0.0190
20131W        W36205   5.305   5.289  14.913  0.1206  0.2031 -0.1226
20132W        W36206  15.974   1.220  11.428  0.0358 -0.2029  0.0963
20133W        W36207  16.359   8.031   0.714  0.0711 -0.2443  0.1119
20134W        W36208  15.750  16.722  12.098 -0.0529 -0.3157 -0.0069
20135W        W36209   8.167   8.377   0.511  0.1087  0.3061 -0.0409
20136W        W36210  13.406  11.579   2.837  0.1340 -0.0484 -0.0981
20137W        W36211  16.597   1.565  12.580  0.4400  0.2380  0.2071
20138W        W36212  13.948   2.664  15.924  0.1562  0.0943  0.1061
20139W        W36213   0.934  12.415   0.310  0.1951 -0.1536  0.1695
20140W        W36214  16.838   5.169   1.405  0.0211 -0.2490 -0.0368
20141W        W36215  10.156  12.482   1.102  0.0700  0.1653 -0.1515
20142W        W36216   5.344  10.570   4.227 -0.1373  0.1263  0.1927
20143W        W36217  14.758  15.028  11.718  0.0106  0.2508  0.2133
20144W        W36218  18.073  16.422  14.186  0.0092  0.0015 -0.0421
20145W        W36219   3.614  10.828   4.085  0.2444 -0.2735 -0.4031
20146W        W36220  14.275   3.838   3.143 -0.0308 -0.1007  0.0928
20147W        W36221  17.918   5.053  10.659 -0.0427 -0.2122 -0.4349
20148W        W36222   8.863   2.436   3.355 -0.2604 -0.0494 -0.0827
20149W        W36223   0.562  12.720  12.853  0.3441 -0.0484  0.1152
20150W        W36224  17.727   8.125   1.455  0.1294 -0.1802  0.0914
20151W        W36225   4.369   7.818  15.943  0.0822  0.2114  0.1590
20152W        W36226   3.040  11.376  15.410 -0.3357  0.0959 -0.0134
20153W        W36227   1.026   4.576   0.964  0.1496  0.2474  0.2048
20154W        W36228   7.889  12.677   1.444  0.4051  0.3900  0.0640
20155W        W36229  12.107  13.839  14.648 -0.4097  0.0414 -0.0436
20156W        W36230  15.819   2.874   1.613  0.1383 -0.3771  0.1701
20157W        W36231   2.494   0.159   1.420 -0.1771 -0.1091 -0.0352
20158W        W36232   8.488   9.521   0.253 -0.1349 -0.1624 -0.0650
20159W        W36233   7.685   0.329   2.222 -0.0943  0.0743  0.1231
20160W        W36234  13.672   7.214  11.230 -0.1980 -0.0958 -0.4792
20161W        W36235  17.439   0.658   2.862 -0.0048  0.1140  0.1157
20162W        W36236  13.674   4.390   4.002  0.1065 -0.1379  0.2324
20163W        W36237   3.148  16.991   3.001 -0.2173  0.1191 -0.5565
20164W        W36238   2.088   9.406   5.796 -0.1212  0.1072  0.1101
20165W        W36239  18.046   5.093  11.269  0.1047  0.2703 -0.2098
20166W        W36240  16.303   7.195   2.280  0.0083  0.2581  0.3314
20167W        W36241   7.616   2.501   2.997 -0.2833  0.0799  0.1421
20168W        W36242   0.188   1.968   0.681 -0.0362 -0.2639 -0.1812
20169W        W36243   3.744   6.626  13.944 -0.1949  0.1729 -0.3234
20170W        W36244   4.779  16.857   2.998  0.0435 -0.0326  0.3620
20171W        W36245   2.664   3.923  15.147  0.0893  0.0069 -0.3215
20172W        W36246  18.527  10.161  13.419  0.2874 -0.1308  0.0428
20173W        W36247  15.170  15.215   4.858  0.0450  0.2169 -0.0259
20174W        W36248   2.231  18.492   0.832 -0.2964 -0.2454 -0.1661
20175W        W36249   9.050   6.448   3.953 -0.2960 -0.1640 -0.1559
20176W        W36250   5.749  16.045  15.880  0.2530  0.0202  0.3786
20177W        W36251   2.017  14.297   2.937  0.1819 -0.0061 -0.2195
20178W        W36252   5.091  12.115  11.383  0.0544  0.1486 -0.1338
20179W        W36253  18.316  15.575   0.919 -0.2596 -0.2281 -0.1826
20180W        W36254   8.543   3.835  14.152  0.1971  0.0699  0.0513
20181W        W36255   9.388   3.591  14.651 -0.2197  0.0060  0.0594
20182W        W36256  12.483   9.522  13.869 -0.2219 -0.3622  0.1724
20183W        W36257  18.098   0.936  15.081 -0.1161  0.2246 -0.0311
20184W        W36258  15.825  13.446  15.367  0.2013 -0.0121 -0.3109
20185W        W36259   1.430  10.618   1.884  0.0147  0.2212  0.2693
20186W        W36260   0.527  18.555  11.697  0.1367  0.1277  0.1686
20187W        W36261  15.911   0.972   4.068  0.3613 -0.3104 -0.1649
20188W        W36262   2.730   5.669  15.604  0.0877 -0.1783  0.1250
20189W        W36263  15.620   8.499  13.257 -0.0886 -0.2510  0.2733
20190W        W36264  12.062   8.948   0.793 -0.4971 -0.0884 -0.2477
20191W        W36265   0.823   5.968  12.752 -0.1148  0.1627 -0.2249
20192W        W36266   1.248   9.740  12.409 -0.2208 -0.4601  0.0847
20193W        W36267   9.602   3.363   4.637  0.1114 -0.0920  0.1769
20194W        W36268  16.300   8.246  13.716  0.0566  0.3374  0.0484
20195W        W36269   8.153  16.865   1.199 -0.0223 -0.1145  0.0097
20196W        W36270   1.098   4.341  14.120 -0.0027 -0.1375  0.1355
20197W        W36271   6.542  18.013  15.833  0.2551  0.1292 -0.1317
20198W        W36272   8.784   2.979   5.709  0.0347 -0.0640 -0.0007
20199W        W36273  11.971  10.874  15.087  0.1762 -0.3274 -0.3343
20200W        W36274  18.522   5.818  14.032 -0.0246  0.1275  0.0396
20201W        W36275  17.789  14.899   0.457 -0.3181  0.1416 -0.1028
20202W        W36276  16.844  15.513   5.486  0.1521 -0.2602  0.1942
20203W        W36277  11.769  11.560  14.711 -0.0506 -0.0062 -0.2341
20204W        W36278   1.124  13.108   4.685  0.0495  0.0692  0.1097
20205W        W36279   3.038   5.249  15.548  0.0858  0.0407  0.1331
20206W        W36280  15.986  16.525  11.092 -0.1256 -0.1533 -0.3299
20207W        W36281   7.228  16.903  13.689  0.1955 -0.4701  0.1851
20208W        W36282  12.562  10.417  13.878  0.0997  0.0072  0.0680
20209W        W36283   2.091  16.061   0.864  0.1437 -0.3353 -0.0119
20210W        W36284  11.029  13.415   5.591  0.1036  0.1952  0.0076
20211W        W36285  14.764  17.293  12.816 -0.1338 -0.0427  0.0262
20212W        W36286  15.376   9.256  11.266 -0.0496 -0.0119 -0.2711
20213W        W36287  15.625  15.373   0.603 -0.0110  0.1561  0.3584
20214W        W36288   2.554   2.904   5.048 -0.0781 -0.2204  0.1981
20215W        W36289   7.407  13.361   5.290 -0.1955 -0.3143 -0.2956
20216W        W36290  12.011  16.107  13.487  0.0408  0.2170  0.0192
20217W        W36291  13.615   6.816   5.628 -0.0562  0.2440 -0.0891
20218W        W36292  12.182  18.344   1.629 -0.1243 -0.2771  0.2279
20219W        W36293   7.328   4.233   2.536  0.1615 -0.2185 -0.1723
20220W        W36294   8.582   6.542   2.804  0.0758  0.1690  0.0608
20221W        W36295   8.987   5.086   1.713  0.1509  0.1209 -0.1628
20222W        W36296   1.070  16.438   2.778 -0.1814 -0.0602  0.0213
20223W        W36297   2.500  17.449  15.724  0.2271  0.0643  0.2364
20224W        W36298   7.623  12.547  14.158  0.1272  0.4806  0.0742
20225W        W36299  13.138   7.849   3.007 -0.4220 -0.2532  0.2628
20226W        W36300   5.987   7.638  15.925 -0.0498 -0.1855 -0.1330
20227W        W36301   1.513   9.467   1.439  0.0251 -0.3213  0.0259
20228W        W36302   5.994   7.567  12.178  0.1734 -0.0974 -0.1610
20229W        W36303   3.991   5.044  15.692 -0.3724  0.3414  0.2161
20230W        W36304  12.220  12.659   2.470  0.2778  0.0096  0.3217
20231W        W36305  15.436   1.148  14.374  0.2760 -0.2377  0.1254
20232W        W36306   5.494   2.849   1.346  0.0780 -0.0783 -0.0356
20233W        W36307  12.592  15.334   1.953  0.0154  0.2550 -0.1112
20234W        W36308  16.334   3.493   3.631 -0.1573 -0.2811 -0.3847
20235W        W36309   8.061  12.757  14.264  0.1994 -0.0812  0.2746
20236W        W36310  10.703   7.121   5.791  0.0280 -0.1724  0.3812
20237W        W36311  10.857   7.978   2.601  0.0136 -0.2359  0.0509
20238W        W36312   3.752   3.518   5.179 -0.0729 -0.0796 -0.0116
20239W        W36313  17.654   4.978   2.342  0.0480 -0.1560 -0.2422
20240W        W36314  17.106  10.625   1.521  0.0221  0.0526  0.0295
20241W        W36315  13.290  12.624  12.537  0.0838 -0.2441  0.0029
20242W        W36316  11.464  15.479  15.182 -0.2093 -0.0581  0.0326
20243W        W36317   4.669  10.033   4.077  0.2846  0.0757 -0.2006
20244W        W36318   6.974   1.508   0.729 -0.1950 -0.0780 -0.0440
20245W        W36319   4.727   6.914   0.306  0.0259  0.1428 -0.0764
20246W        W36320  16.493  12.648  11.824  0.2517  0.1645 -0.1530
20247W        W36321  18.072  12.224   6.270 -0.0851  0.1088 -0.0488
20248W        W36322  17.454   4.279   0.543  0.2171 -0.2591  0.3040
20249W        W36323  16.290   4.889  13.740  0.0558  0.2037 -0.1858
20250W        W36324  17.295   1.131   2.540  0.2052  0.5186 -0.0966
20251W        W36325   6.991   9.613  15.010  0.0288  0.1942 -0.1009
20252W        W36326  16.158   7.771  12.103  0.4643 -0.1391  0.2785
20253W        W36327  13.801   7.530   1.342  0.0463  0.0825  0.1706
20254W        W36328  10.288  15.509   0.754 -0.0610 -0.1366  0.3606
20255W        W36329   3.134   1.572  15.733  0.0755  0.1187 -0.1266
20256W        W36330   9.155  17.616  11.175  0.3913 -0.0599  0.0908
20257W        W36331  12.275   9.969   0.722  0.1520  0.1030  0.0988
20258W        W36332   6.342   5.521   1.146  0.4420 -0.0324 -0.0592
20259W        W36333   3.800   3.473   2.311 -0.0409 -0.1100  0.2683
20260W        W36334  17.088  17.452   1.756 -0.0869 -0.0050 -0.0131
20261W        W36335  12.019  13.441  12.650 -0.0393 -0.3528  0.2022
20262W        W36336  10.468  18.137  15.606 -0.1552  0.4568 -0.0315
20263W        W36337   5.079   2.059   4.962  0.2066 -0.1554  0.0902
20264W        W36338  15.041   7.638   5.263 -0.0940  0.1161 -0.0862
20265W        W36339   1.588   6.422   4.902  0.3385 -0.0292 -0.0448
20266W        W36340  17.051   9.800   3.308  0.0997  0.1154 -0.1088
20267W        W36341  15.446  15.315  11.155  0.1786  0.0648  0.0228
20268W        W36342   4.242  14.388   3.861 -0.1835  0.1368 -0.0514
20269W        W36343  13.586  10.389   2.051  0.1883 -0.2371 -0.2029
20270W        W36344   9.394   4.238  13.844 -0.1342  0.0154 -0.3884
20271W        W36345  11.110  18.054  15.016  0.2145 -0.1355 -0.2157
20272W        W36346  16.488  15.006  15.796 -0.0068 -0.0184  0.2103
20273W        W36347   2.968   0.432  13.535  0.2416  0.1723 -0.0430
20274W        W36348  10.717  13.733   3.596 -0.1147  0.0373 -0.1577
20275W        W36349   7.168  10.157   3.951  0.2100  0.2277  0.0986
20276W        W36350   4.032  17.180   2.614 -0.3939  0.0410  0.0472
20277W        W36351   2.069   9.062  14.407  0.0695 -0.0131 -0.1090
20278W        W36352  17.448  16.653   4.891 -0.0036 -0.0722 -0.4552
20279W        W36353   2.176   1.003   4.282  0.2968  0.2865  0.1259
20280W        W36354   6.946  14.529   4.497 -0.0534  0.0060  0.2012
20281W        W36355   2.210   6.934   5.269 -0.1220  0.0729 -0.0067
20282W        W36356   2.142   0.530   4.641  0.0172  0.0597  0.2992
20283W        W36357  17.033  15.732   5.010  0.1063  0.1564 -0.0496
20284W        W36358   1.558   0.786  13.294 -0.0194 -0.0383 -0.1402
20285W        W36359  14.512  11.411   1.601 -0.3382  0.1756 -0.0759
20286W        W36360  10.845   3.022  12.382  0.1381  0.0823  0.2031
20287W        W36361   1.505   9.261   4.786 -0.1323 -0.0624 -0.2035
20288W        W36362   3.498  16.633  14.384 -0.0289 -0.2145  0.1723
20289W        W36363   6.205   2.838  12.559  0.1818  0.0586  0.1527
20290W        W36364  10.824   6.457   2.766  0.0750 -0.0917  0.2067
20291W        W36365  12.270   7.445  15.924  0.1057  0.1607 -0.5328
20292W        W36366   6.543   0.937   2.059  0.0450  0.2065 -0.1080
20293W        W36367  17.505   2.328  13.841 -0.0346 -0.0609  0.1245
20294W        W36368   0.311  12.357  14.928  0.2593  0.0433  0.0007
20295W        W36369   2.186  11.400   4.159 -0.0691  0.3538  0.0194
20296W        W36370   5.981   9.789   1.510 -0.1624 -0.1555 -0.0786
20297W        W36371   2.957   8.893  15.549  0.0219  0.0763  0.0086
20298W        W36372   6.015   7.689   3.784 -0.0586  0.1960  0.1969
20299W        W36373  11.265   7.686  14.105  0.0230 -0.1906  0.1731
20300W        W36374  14.494  16.744  11.378 -0.1430  0.1278 -0.0867
20301W        W36375   8.967   0.097  12.123  0.0500 -0.1627 -0.0745
20302W        W36376  10.607   0.390   1.760  0.0532  0.2753  0.1341
20303W        W36377  10.132  12.005  13.928 -0.3633  0.0684  0.0612
20304W        W36378  12.064   2.088   1.976  0.1551 -0.1069  0.1564
20305W        W36379  13.957  18.215   1.572 -0.4391  0.0795  0.1255
20306W        W36380   1.934  17.474  12.582 -0.2287 -0.0396 -0.0675
20307W        W36381  14.472  10.361   1.140 -0.2428 -0.0819  0.0668
20308W        W36382   8.952   9.943  12.356  0.1834  0.0568 -0.1418
20309W        W36383   5.469  14.455  13.232  0.1817  0.1057  0.0016
20310W        W36384  14.456   9.397   4.845  0.1618 -0.2337 -0.0058
20311W        W36385   0.621   0.340  15.432 -0.0126 -0.1954  0.1517
20312W        W36386  12.521   8.647  15.380 -0.2668  0.0342 -0.0418
20313W        W36387  13.498  10.566  15.523 -0.0914  0.0835 -0.2080
20314W        W36388   5.867  10.955  12.241  0.0934 -0.0412 -0.1736
20315W        W36389  16.117   9.328   4.024  0.2216  0.0502  0.0742
20316W        W36390   9.943  10.199  10.213 -0.0338  0.0331 -0.0891
20317W        W36391  10.578  15.540  15.783  0.0278  0.4283 -0.1341
20318W        W36392   7.581  13.838  11.792  0.2158 -0.2273 -0.4589
20319W        W36393   8.818  11.591  15.121  0.1643  0.0712  0.0269
20320W        W36394   1.731   6.079  15.519 -0.2299  0.1024 -0.2079
20321W        W36395   0.364   3.755   4.914  0.0081 -0.0657 -0.0083
20322W        W36396   8.142  15.218   0.967 -0.1384  0.2796 -0.0213
20323W        W36397   3.252  15.242  14.291 -0.1094  0.2745 -0.1181
20324W        W36398   3.444  15.935  12.032  0.0263  0.1064  0.0381
20325W        W36399   3.298  11.080  12.536  0.0666  0.1886 -0.2139
20326W        W36400   7.430  13.390   2.888 -0.0263 -0.0402  0.3355
20327W        W36401   1.668   5.741   4.381  0.0048 -0.1718 -0.1233
20328W        W36402   4.810   8.877  12.731  0.0242  0.0739  0.2585
20329W        W36403   5.623  13.821   0.046  0.1489 -0.1746 -0.4253
20330W        W36404   4.613  16.987  11.475 -0.1630 -0.0459  0.1386
20331W        W36405   7.003  14.821  12.189  0.0385 -0.3010  0.0986
20332W        W36406   5.968  13.069   0.852  0.2581  0.3253  0.1348
20333W        W36407  13.262   8.357   0.936 -0.2942  0.2901  0.0621
20334W        W36408   5.831   6.976   2.800  0.3287  0.1441  0.3533
20335W        W36409  11.298  14.840   2.400 -0.2600  0.0941  0.1752
20336W        W36410   3.910   7.569   4.792  0.2231 -0.0231 -0.2518
20337W        W36411   2.083  10.249   5.201 -0.1385 -0.2413 -0.0338
20338W        W36412   8.614   1.385  15.700 -0.0150 -0.0894 -0.1079
20339W        W36413   6.676  11.185  12.933 -0.0372 -0.0500 -0.3954
20340W        W36414   7.061   9.914   2.426  0.1217  0.1022  0.1371
20341W        W36415  17.104   1.061   0.492 -0.0536 -0.1979  0.3721
20342W        W36416  15.661   5.028  11.500 -0.2394  0.0733  0.0289
20343W        W36417  17.029   7.625  13.351  0.0157 -0.2510 -0.2599
20344W        W36418   4.216  14.934   3.272 -0.3141 -0.0845 -0.1013
20345W        W36419   2.440   8.273  14.603  0.0058 -0.2816 -0.3486
20346W        W36420   7.553   8.896   5.183 -0.1479 -0.0867 -0.1253
20347W        W36421  14.777  12.891  14.694 -0.0215 -0.2057  0.0350
20348W        W36422   3.703   1.733   5.172 -0.0161  0.0129  0.1219
20349W        W36423   5.642  14.234   0.366 -0.2453  0.1601 -0.1458
20350W        W36424   1.103  17.075  14.360 -0.3983 -0.1707 -0.1321
20351W        W36425  10.785   8.660  14.887  0.2777  0.2578 -0.0259
20352W        W36426   0.427   5.147   3.571  0.2664 -0.3304 -0.3814
20353W        W36427   0.027   5.116  13.922 -0.1945  0.1204  0.0655
20354W        W36428  13.896   8.391  13.969 -0.0578  0.5634  0.0588
20355W        W36429  14.335   5.770   3.062 -0.2869  0.0359  0.1449
20356W        W36430  15.582   2.379   4.061 -0.2832  0.0450 -0.0558
20357W        W36431  18.425  17.362   1.756  0.0283 -0.3356  0.0945
20358W        W36432  12.893  11.587  12.669  0.0746  0.0219 -0.0180
20359W        W36433  13.266   0.104   0.186  0.1400  0.0979 -0.0359
20360W        W36434  15.022  13.465   0.270 -0.0516 -0.1415  0.1636
20361W        W36435   7.870  18.037   2.560  0.2846  0.1087 -0.5382
20362W        W36436   0.508   2.242   2.224 -0.1577 -0.0757 -0.1955
20363W        W36437   5.316   0.207   4.565 -0.0230  0.2218  0.0651
20364W        W36438  12.072   1.845  10.681  0.1350  0.0187 -0.2248
20365W        W36439  10.476  13.490  16.006 -0.1785 -0.2102  0.0008
20366W        W36440   5.388  18.562  15.311  0.2270  0.0330  0.1794
20367W        W36441   3.757  11.760  14.633  0.2863  0.0148  0.0191
20368W        W36442  17.876  11.740   1.701  0.3598 -0.0568  0.0975
20369W        W36443  11.110  16.583  13.492  0.1948 -0.0708  0.3877
20370W        W36444  12.707   2.304  11.618 -0.1847 -0.2721 -0.0031
20371W        W36445  16.857   7.450   4.082 -0.0632 -0.0876 -0.2858
20372W        W36446   4.259   2.207  12.465  0.0268 -0.2841  0.1339
20373W        W36447   1.055  18.399  13.836  0.0071 -0.0044 -0.0124
20374W        W36448   2.668   3.831   5.442  0.2069 -0.1106 -0.0352
20375W        W36449   2.083  12.464   0.049 -0.2089  0.1799  0.2021
20376W        W36450   2.662   1.799  14.741 -0.0771 -0.2650  0.0062
20377W        W36451   3.598  12.414   2.780 -0.1038  0.0119  0.0967
20378W        W36452   5.860  11.483  12.430  0.2973  0.0862  0.0946
20379W        W36453   1.569  15.107  15.594 -0.0118  0.1245  0.1788
20380W        W36454  11.172   6.353  15.920  0.2835 -0.1955  0.0125
20381W        W36455   7.775  17.050  14.151 -0.0514  0.1138  0.1460
20382W        W36456   4.218  14.984   1.448 -0.2645 -0.1045  0.0485
20383W        W36457   1.224   1.253   1.350  0.1785  0.2265  0.0070
20384W        W36458  17.158   8.656  15.737 -0.0658 -0.0719  0.3087
20385W        W36459  16.989   1.800  12.398 -0.1810  0.0773 -0.1410
20386W        W36460  10.606   6.662   1.047  0.1215 -0.0703  0.0758
20387W        W36461   2.249   3.054   1.037 -0.0779 -0.0989 -0.0574
20388W        W36462  18.152  11.733  14.209  0.2114  0.1115 -0.0641
20389W        W36463   8.483  17.214  12.045 -0.5058 -0.1091  0.0151
20390W        W36464   6.671   6.865  15.076  0.1389 -0.1640  0.0363
20391W        W36465   3.369   1.107   1.979  0.0444 -0.2061  0.2695
20392W        W36466   9.437   7.901   3.142 -0.2466  0.1184 -0.0111
20393W        W36467   0.193   7.994  14.765  0.0440  0.2153 -0.3539
20394W        W36468   5.992  17.522   0.970  0.0121 -0.0795  0.0309
20395W        W36469   8.498   6.153  12.847  0.1192 -0.2056  0.2683
20396W        W36470  12.445  11.233   1.997 -0.1292  0.1677 -0.3485
20397W        W36471  18.334   6.490  15.592  0.3044 -0.1776 -0.2779
20398W        W36472   8.316  11.692   0.433  0.0116 -0.1011  0.1390
20399W        W36473  13.295  10.619   2.879 -0.3952  0.1703  0.1290
20400W        W36474   4.126   4.640   4.509  0.1887  0.2045 -0.0909
20401W        W36475  13.009   3.524   2.266  0.2328  0.2318  0.2119
20402W        W36476   9.159  11.296  14.915  0.0629  0.1336 -0.1787
20403W        W36477  16.515  16.425   3.101 -0.0690 -0.5249  0.2061
20404W        W36478  14.717   3.695   4.774 -0.0692  0.0483 -0.3620
20405W        W36479  17.408  17.078  11.432 -0.2088  0.0666 -0.0411
20406W        W36480   3.384   8.755   5.015  0.3364  0.1436 -0.0361
20407W        W36481   0.207   9.453  14.094  0.2144  0.1693 -0.0786
20408W        W36482  13.670   0.432  14.580  0.2915  0.0254  0.4417
20409W        W36483   7.481  18.404  15.424 -0.3005  0.2547 -0.1214
20410W        W36484   6.268  16.055  14.006  0.1692  0.0668 -0.2263
20411W        W36485   6.321   7.318   5.238 -0.0435  0.0985 -0.3237
20412W        W36486   9.012  15.789  15.442  0.0616 -0.2493 -0.1202
20413W        W36487  10.931   8.084   2.001  0.0452 -0.2627 -0.0659
20414W        W36488  14.576   9.301   1.424 -0.0502  0.4581  0.0858
20415W        W36489  10.902   3.809   4.713 -0.0650  0.1358  0.2206
20416W        W36490   0.267  13.334  12.078 -0.0482  0.2495  0.2553
20417W        W36491  17.900   7.102   3.197  0.2581 -0.0733  0.4147
20418W        W36492   8.435  17.506  13.015  0.0480  0.3212 -0.1462
20419W        W36493   9.353   8.440  12.102  0.2053  0.0897  0.1737
20420W        W36494   9.086  12.991  11.522  0.1233  0.0800 -0.0469
20421W        W36495   8.513   2.394  12.228  0.0487 -0.0278  0.0737
20422W        W36496  17.312  11.035  13.711  0.0546 -0.0803 -0.3347
20423W        W36497  12.773   5.644   0.352  0.0854 -0.1913  0.2168
20424W        W36498  11.675   6.512  11.514 -0.1292  0.1154 -0.0171
20425W        W36499  12.409  11.773   0.220 -0.3126  0.1526 -0.1171
20426W        W36500   1.724   0.884   0.453 -0.2171 -0.3033 -0.1660
20427W        W36501   0.614  13.575   4.717  0.3018  0.3099 -0.1057
20428W        W36502   3.110   3.823   9.704  0.3328  0.0296 -0.3563
20429W        W36503   7.594   1.400  13.911 -0.3526 -0.0496  0.0787
20430W        W36504  10.209   3.249   0.279 -0.1147 -0.0170 -0.0732
20431W        W36505   8.969  13.104   5.498  0.0546  0.4811  0.2093
20432W        W36506   8.953   6.335  15.901  0.2459  0.2065  0.0814
20433W        W36507   0.072  16.658   2.905  0.1318 -0.4267  0.1924
20434W        W36508  13.432   9.476  12.515  0.2499  0.0615  0.0588
20435W        W36509  11.865  14.216   2.835 -0.0403 -0.2164 -0.1787
20436W        W36510  17.750  15.167   5.577  0.2017  0.0292  0.3174
20437W        W36511   7.090   9.679  13.630  0.0845  0.0774 -0.1337
20438W        W36512  10.034  15.206  15.284 -0.4297  0.1136  0.2036
20439W        W36513  15.553  15.108  15.808  0.1727 -0.2844  0.0275
20440W        W36514   1.741   4.636   3.003 -0.4975 -0.1781 -0.3327
20441W        W36515   3.718  10.563  14.707  0.2649 -0.1947 -0.0655
20442W        W36516  16.276   1.851   0.607  0.1934 -0.1145  0.0756
20443W        W36517  17.335   6.391  12.457 -0.0358  0.2400  0.0282
20444W        W36518   5.880  12.695  11.266 -0.1812  0.0653 -0.2730
20445W        W36519  17.534   8.833  14.848 -0.1740 -0.0094  0.3106
20446W        W36520   6.771   9.658   2.820 -0.2300 -0.1720  0.0812
20447W        W36521  16.418   7.785   6.060 -0.0335  0.3561 -0.2562
20448W        W36522   7.549  17.936   2.199 -0.2808  0.0773 -0.0997
20449W        W36523   0.840  12.958   0.668  0.0193  0.3662  0.0580
20450W        W36524   5.934   9.622  14.144  0.1157 -0.0895  0.3226
20451W        W36525  12.706   2.408  15.239 -0.3732  0.2832  0.0191
20452W        W36526   2.230  10.218   1.529 -0.2133  0.0547 -0.2246
20453W        W36527   8.485  11.668  12.855  0.1956  0.3220 -0.0736
20454W        W36528  17.527   3.197   1.405  0.1826 -0.1275  0.0081
20455W        W36529  18.293   1.036  14.621  0.2849  0.0229 -0.1138
20456W        W36530   4.508   9.282   1.472  0.2884  0.1597  0.3165
20457W        W36531   6.614  12.615  15.026 -0.1518 -0.0897  0.0783
20458W        W36532   5.162  16.567   2.946  0.2127 -0.0643 -0.2164
20459W        W36533   2.208   7.768   5.087  0.1331 -0.3630 -0.0306
20460W        W36534   9.204  15.499   1.591  0.0401 -0.0640  0.2513
20461W        W36535   0.449  16.012  12.214  0.0505  0.1217  0.0783
20462W        W36536   2.148  18.421  13.515 -0.0946 -0.1648  0.0694
20463W        W36537  18.110  14.140  14.469  0.2324  0.3816 -0.2786
20464W        W36538  10.373   5.540   1.705  0.1658 -0.3929  0.1706
20465W        W36539   7.029   7.905   4.147  0.0373 -0.0735 -0.2023
20466W        W36540  15.301   0.731   5.723 -0.0047 -0.2003  0.0254
20467W        W36541   3.487  17.606  13.406  0.2992  0.0978  0.1363
20468W        W36542   4.915   6.397  13.293 -0.2021  0.0824  0.1728
20469W        W36543   3.731   4.355   6.035 -0.0082  0.2242  0.2734
20470W        W36544   1.353  13.266   5.116 -0.0731  0.4468 -0.0770
20471W        W36545  17.374  13.502  12.223  0.0326 -0.0188 -0.3118
20472W        W36546  13.268  10.972   1.301 -0.4294 -0.0045  0.0321
20473W        W36547  15.143   4.339  12.557  0.1724 -0.1907 -0.0551
20474W        W36548   1.712  17.576   3.200 -0.1913 -0.1573  0.0154
20475W        W36549  17.128   1.201  14.529  0.1342 -0.0509 -0.1802
20476W        W36550   0.132  13.599   0.660 -0.1131 -0.0572 -0.0829
20477W        W36551  16.341  16.032  13.029  0.0814  0.1111 -0.0457
20478W        W36552   8.299   0.782  13.061 -0.1880  0.0979  0.1269
20479W        W36553  16.121   5.159  15.796  0.4010  0.0770 -0.0292
20480W        W36554  15.483   6.376  15.135 -0.0388  0.0052  0.0196
20481W        W36555   7.291  17.937  15.152  0.0011 -0.0691  0.1268
20482W        W36556   5.569   2.967  14.071  0.2964 -0.1787  0.0213
20483W        W36557  13.473   3.939  14.501 -0.1205  0.3313 -0.0324
20484W        W36558   6.772  10.666  15.355  0.2586 -0.0991 -0.1261
20485W        W36559   4.916   8.360   5.681 -0.1895 -0.1864  0.3564
20486W        W36560  13.613   6.722  15.058  0.3181 -0.2892 -0.0353
20487W        W36561  11.527  11.381   0.142 -0.0420 -0.2999  0.1156
20488W        W36562  16.575   2.461   3.932 -0.0863 -0.1896 -0.2353
20489W        W36563  15.564  11.447   2.917 -0.0562 -0.0254  0.1692
20490W        W36564   0.083   1.894   5.505  0.1663 -0.2382  0.0219
20491W        W36565  18.371   2.869   0.154 -0.4004  0.2078 -0.1788
20492W        W36566   3.666  17.095   2.336  0.0978  0.1235 -0.0146
20493W        W36567  16.546   3.390  14.086 -0.1098 -0.0046 -0.2175
20494W        W36568   4.414   3.510   5.249 -0.1623  0.2990  0.0011
20495W        W36569  13.256   1.524  10.183  0.0681  0.3146 -0.1558
20496W        W36570  16.102  11.067   4.153  0.0524 -0.2558  0.0978
20497W        W36571  12.089   4.997   4.977  0.1614 -0.2010  0.2064
20498W        W36572   0.453  13.650  14.724 -0.0815 -0.0461 -0.2149
20499W        W36573  17.206   8.406   4.465  0.0366  0.0059  0.2595
20500W        W36574  16.399   9.965  13.862  0.3964 -0.0429 -0.0062
20501W        W36575  16.009  14.977   5.175 -0.2262  0.0771  0.3905
20502W        W36576   7.855  16.941   0.791  0.0155  0.0308 -0.1219
20503W        W36577  10.166   5.893   0.682 -0.1112 -0.0431 -0.0036
20504W        W36578  12.294   5.292   2.681  0.1648  0.0937 -0.0263
20505W        W36579   0.232   3.927  14.399  0.4340 -0.2611  0.2091
20506W        W36580  11.884  15.790   1.819  0.3201 -0.0528 -0.1414
20507W        W36581   9.172  16.628   3.448  0.1758  0.0434 -0.1144
20508W        W36582   1.605  14.137   5.407 -0.1057  0.0987  0.1152
20509W        W36583  10.371  13.914  14.354 -0.0010  0.3818  0.2042
20510W        W36584  18.495  17.872   4.320 -0.4582 -0.5051 -0.3537
20511W        W36585   7.145  13.396   0.571 -0.1079 -0.2286  0.1256
20512W        W36586  14.153   3.085  15.076  0.2045  0.2447 -0.1976
20513W        W36587  16.325   0.713   3.397  0.0057  0.0892  0.0929
20514W        W36588   9.984  18.416  11.838 -0.1202  0.2198 -0.2484
20515W        W36589  11.390   2.282  12.225 -0.1460  0.0201 -0.1088
20516W        W36590   0.358  12.810   2.039  0.3144 -0.0342 -0.0212
20517W        W36591  18.122   5.612  14.584  0.0853  0.1057 -0.4467
20518W        W36592   5.750   7.460   4.179  0.1424 -0.1789  0.1680
20519W        W36593   0.052   4.694   1.765  0.0268 -0.1436 -0.1905
20520W        W36594   6.658   3.079  13.335  0.3159 -0.2389  0.3036
20521W        W36595   4.785   6.843  14.919  0.0076 -0.1519 -0.1506
20522W        W36596   8.428  17.957   2.844  0.4126 -0.0570  0.2111
20523W        W36597  14.144   4.334   3.805 -0.0695 -0.0456  0.0072
20524W        W36598   6.262  11.978   3.609 -0.1366  0.2953 -0.0359
20525W        W36599   4.740   2.248   1.677 -0.4302 -0.2734 -0.0913
20526W        W36600   3.653  12.502   6.166  0.2969 -0.0573  0.2313
20527W        W36601   6.900   0.199   5.001 -0.2848 -0.0808  0.1439
20528W        W36602   7.093   1.745   1.672 -0.0301 -0.0484  0.0005
20529W        W36603  15.165   7.285   3.971  0.0402 -0.0253  0.0949
20530W        W36604  15.468   5.924  13.128 -0.1426  0.0229 -0.0802
20531W        W36605   1.167  11.719  15.935  0.1175 -0.1598 -0.0497
20532W        W36606   0.731  15.491   1.840 -0.1354  0.2307  0.1652
20533W        W36607  11.918   0.180   1.824 -0.4256 -0.1315  0.1508
20534W        W36608   9.850  14.306   3.899 -0.0489  0.0944  0.1014
20535W        W36609   0.709   2.522   4.896  0.0774  0.3266  0.1826
20536W        W36610   6.558   4.201  11.387 -0.1884  0.0264 -0.5318
20537W        W36611   1.791   6.549   3.456  0.1986  0.2916 -0.0782
20538W        W36612  10.954  16.882   0.022  0.1458  0.0317 -0.2748
20539W        W36613   6.290  14.072  13.277 -0.2690  0.0477 -0.0352
20540W        W36614  14.296  14.025   0.460 -0.0858 -0.2617 -0.2007
20541W        W36615  16.327   1.126   1.680  0.0026 -0.1270 -0.3064
20542W        W36616  15.013  11.145   4.226 -0.1929  0.0466  0.0727
20543W        W36617   5.001   9.759   3.812  0.3605 -0.2518 -0.3240
20544W        W36618   6.578  12.212   0.049 -0.0696 -0.0625  0.1366
20545W        W36619   6.583   0.593  14.658 -0.1652 -0.0336 -0.1170
20546W        W36620  12.675   0.329   3.342 -0.1014 -0.0691  0.0515
20547W        W36621  11.377   0.583   2.790 -0.0151 -0.1703  0.0816
20548W        W36622  12.155  14.059  12.385  0.0930 -0.0973  0.0420
20549W        W36623   7.997   5.328   4.972 -0.0831 -0.0959 -0.1949
20550W        W36624  12.125   7.535   2.422 -0.0714 -0.0811  0.0542
20551W        W36625  16.453   1.329  11.703 -0.2709  0.1208  0.1116
20552W        W36626  12.623  11.290  15.492  0.3815 -0.0630 -0.2274
20553W        W36627   8.839   4.037  12.952 -0.2072  0.0277 -0.0488
20554W        W36628   8.845   5.229   4.244  0.0431  0.0054 -0.1924
20555W        W36629  12.354   9.577  15.487 -0.0910 -0.0096 -0.1059
20556W        W36630  16.122  13.033   5.410 -0.3257 -0.2210  0.0184
20557W        W36631  11.290  14.981  15.722  0.1746 -0.2037 -0.0633
20558W        W36632   9.176  13.383   3.464  0.1635  0.0025  0.3795
20559W        W36633   0.684  16.651   0.171  0.1214  0.2906 -0.1976
20560W        W36634   7.919  12.350  14.548 -0.0917 -0.0964  0.2665
20561W        W36635   4.911  15.430   3.786 -0.3634 -0.2869  0.3830
20562W        W36636  12.185   0.467   3.754 -0.1247  0.0571 -0.2178
20563W        W36637   9.192   5.257   1.304 -0.1111  0.1065 -0.1509
20564W        W36638   1.388  15.262  11.301  0.0565 -0.0332 -0.1899
20565W        W36639  10.529  14.618   4.693 -0.1499  0.0544  0.1380
20566W        W36640   8.618   5.653   3.848 -0.0661  0.1243  0.1821
20567W        W36641  14.254   8.425   5.093  0.0339 -0.0050  0.2321
20568W        W36642  16.599  10.061   4.839 -0.3866  0.0423  0.1234
20569W        W36643  17.753   3.297  14.205  0.0724  0.1401  0.3200
20570W        W36644  15.133  18.124   4.689  0.1652  0.0622  0.0447
20571W        W36645  12.117   1.240   2.621  0.0249 -0.3688  0.1721
20572W        W36646  14.067   9.437  15.478  0.0884  0.0064  0.1790
20573W        W36647   7.258   4.255  12.730  0.0138  0.2467 -0.0863
20574W        W36648   6.137  11.333  15.090 -0.0024  0.2952 -0.0675
20575W        W36649  13.881   9.060   3.104 -0.0491  0.1470 -0.2720
20576W        W36650   1.795  11.616  12.227 -0.2427 -0.0281  0.1463
20577W        W36651   1.659  16.870   0.344 -0.1950  0.1783  0.1652
20578W        W36652  13.790   2.633  12.493  0.1321 -0.2381  0.1114
20579W        W36653  13.218  15.768  14.253  0.6587 -0.2198  0.0070
20580W        W36654  14.426  16.211  10.690  0.2112 -0.3228  0.0766
20581W        W36655  16.991  12.617   1.020 -0.2928  0.1096  0.0378
20582W        W36656   0.618   4.208  14.518 -0.0820  0.0613 -0.0872
20583W        W36657  15.917   9.477  13.819 -0.0226 -0.2043  0.0579
20584W        W36658  14.517  10.186  12.153  0.3149 -0.0785  0.0621
20585W        W36659   2.514   8.955  12.521  0.0201  0.2234  0.0380
20586W        W36660  17.397   1.864  11.073  0.2750 -0.0822  0.1390
20587W        W36661   9.499   3.372   5.873 -0.1892  0.1985 -0.1371
20588W        W36662  10.748   8.504   5.101  0.0311  0.0119  0.0193
20589W        W36663  11.394   2.922  15.330 -0.1906 -0.0654 -0.1848
20590W        W36664   1.666   7.031   4.697 -0.0323 -0.2722  0.3698
20591W        W36665   7.866   7.398  15.499 -0.1003 -0.1219  0.0482
20592W        W36666  13.102  10.149  11.351 -0.1415 -0.3316 -0.0557
20593W        W36667   6.872   3.938  15.833  0.1951 -0.2620 -0.1594
20594W        W36668  10.430  12.920   2.480  0.0399 -0.1243  0.3806
20595W        W36669   6.710  14.118  14.922  0.0643  0.0086  0.0980
20596W        W36670  15.768   6.535   0.576  0.0986  0.0748 -0.1701
20597W        W36671   8.626  16.979  10.606  0.0827  0.0427 -0.3292
20598W        W36672  16.457  14.907  15.285  0.3066  0.1811  0.0812
20599W        W36673  14.310  11.298  14.165 -0.2403  0.0525  0.1817
20600W        W36674   4.543   8.936  12.196  0.2296  0.0653 -0.1224
20601W        W36675  10.206   4.238   1.145 -0.0619  0.5276  0.0225
20602W        W36676  16.295   9.355   1.347  0.2452  0.2948  0.0061
20603W        W36677  11.589  11.756   5.303  0.3842 -0.1010  0.0339
20604W        W36678   4.644  18.239  14.873 -0.0461 -0.2275 -0.0952
20605W        W36679   3.121   3.265   2.832 -0.1070 -0.2325  0.0084
20606W        W36680   2.498   9.228  14.590 -0.3907  0.0796  0.1251
20607W        W36681  10.472  15.519  12.496  0.4139  0.0738  0.0329
20608W        W36682  15.201   3.946   3.591 -0.0182 -0.1378 -0.1568
20609W        W36683  11.828  18.297   1.290  0.0041 -0.1705  0.0307
20610W        W36684   1.247  13.906  11.343 -0.1293 -0.2870 -0.0268
20611W        W36685  11.389  11.375   1.088 -0.3023  0.0805 -0.1260
20612W        W36686   4.189   9.604   5.586 -0.3029  0.0314  0.4285
20613W        W36687   1.366  10.076  12.076  0.0047 -0.0373  0.0734
20614W        W36688   4.801   3.899   3.887  0.0778  0.0060  0.3036
20615W        W36689   4.346   7.014  16.031  0.2564  0.1182 -0.1231
20616W        W36690  13.116  15.324   4.333 -0.0148  0.2175  0.1228
20617W        W36691  12.997   1.984  11.159 -0.3674  0.1645 -0.2216
20618W        W36692   6.591  10.559   3.879 -0.1145  0.1026 -0.2179
20619W        W36693   1.308  18.047  14.103  0.1378  0.2907  0.1356
20620W        W36694   0.159   4.344   0.643 -0.3300  0.2123  0.0447
20621W        W36695   7.316  13.456  12.834  0.1803 -0.0311  0.2993
20622W        W36696  15.805  11.521   4.235 -0.2832 -0.1414 -0.2068
20623W        W36697   1.045  17.936  15.409 -0.2080  0.2076 -0.1057
20624W        W36698  15.540   1.053   2.585 -0.0156 -0.1429  0.0527
20625W        W36699   6.921  17.005   4.973 -0.2424 -0.4392  0.1100
20626W        W36700  11.297  10.644   1.534  0.2629  0.2562 -0.0621
20627W        W36701   0.974  13.497  14.710 -0.0329  0.1282 -0.1469
20628W        W36702   2.120   6.634  16.014 -0.2275  0.2782  0.2561
20629W        W36703  14.787   7.671  15.889 -0.0881 -0.2017 -0.3756
20630W        W36704   8.406  16.317  14.985 -0.0633  0.2358  0.0136
20631W        W36705  13.691   3.099  14.201  0.0699 -0.1385 -0.1193
20632W        W36706   6.384   9.914  12.378 -0.0295  0.0199 -0.0831
20633W        W36707  17.741  17.353  14.909  0.0948  0.1932 -0.0802
20634W        W36708  10.112  17.614  12.566  0.1148 -0.2258  0.0925
20635W        W36709   9.175   4.676   3.115 -0.2328  0.0208 -0.0928
20636W        W36710   7.944  15.879  12.162 -0.1234 -0.1651 -0.2568
20637W        W36711  18.287  16.990   5.097  0.0788 -0.1724  0.1873
20638W        W36712  12.500   1.176  13.271 -0.2602  0.0851  0.1281
20639W        W36713  13.708  12.870   5.811 -0.0569  0.0262  0.0479
20640W        W36714   1.077   8.991  13.381 -0.0168 -0.1046  0.0437
20641W        W36715   9.520   0.288   3.683  0.2525 -0.1854 -0.0218
20642W        W36716  17.601  17.321  12.025  0.0067 -0.0077 -0.0495
20643W        W36717  12.834  10.546   1.503  0.0879 -0.3169  0.2028
20644W        W36718   3.611   6.237  12.027  0.0185 -0.0171  0.0838
20645W        W36719   5.750  10.605  13.448  0.0669 -0.1255  0.1771
20646W        W36720  15.299   1.554  14.136  0.1513  0.0727 -0.1254
20647W        W36721   5.393  14.134   3.193  0.0072  0.0744 -0.3781
20648W        W36722   0.091   0.820   2.664 -0.4156  0.0617 -0.1186
20649W        W36723   7.607  10.959   0.497 -0.1846 -0.0107 -0.0146
20650W        W36724  15.879  16.917  11.600 -0.1762  0.0410  0.3229
20651W        W36725  12.687   8.588  11.098  0.4800 -0.2104 -0.3033
20652W        W36726   0.239   6.889  14.698 -0.3181  0.1150 -0.2192
20653W        W36727  14.717  17.211  13.440 -0.1661 -0.0036  0.0832
20654W        W36728  18.144   2.326  11.616 -0.2763 -0.1178  0.2369
20655W        W36729   9.403   2.997  13.835 -0.1293 -0.1469 -0.1831
20656W        W36730  10.569   8.264   4.253 -0.0364  0.0123  0.2753
20657W        W36731  13.812  15.345   3.743  0.3384 -0.3590  0.2831
20658W        W36732  11.894  16.450   0.091  0.4902 -0.0454  0.0014
20659W        W36733   6.884   5.619  12.687 -0.0412 -0.0269 -0.0319
20660W        W36734   3.928   1.777   9.834  0.1683  0.0000  0.1957
20661W        W36735   9.618   0.570  12.970 -0.2779  0.0084 -0.0555
20662W        W36736  11.411  16.117   3.935 -0.2508 -0.0115 -0.1095
20663W        W36737   0.732  16.739  14.175 -0.1101 -0.1057  0.0511
20664W        W36738  17.507  11.454   3.339 -0.2288  0.1581  0.2235
20665W        W36739   6.510   6.105  11.967  0.0304 -0.3143  0.4565
20666W        W36740   6.800   5.322   1.069 -0.0842 -0.0311  0.2832
20667W        W36741   9.314  13.857   1.451  0.2854  0.3695  0.0259
20668W        W36742   5.419  12.688  14.120  0.1112  0.2390  0.1361
20669W        W36743   0.666   4.303   6.407  0.1198 -0.0854  0.0093
20670W        W36744   2.456  15.341   1.962  0.1682  0.0799 -0.3151
20671W        W36745   2.143  11.251  12.200  0.3441 -0.1259 -0.1056
20672W        W36746  14.253   4.783   4.439 -0.0587  0.0469 -0.3246
20673W        W36747   0.593   5.632   3.010 -0.0046 -0.1317 -0.2325
20674W        W36748   1.933  10.339   1.060 -0.0526 -0.0039  0.3152
20675W        W36749  18.072   9.342   0.567 -0.1488 -0.0342  0.0219
20676W        W36750   2.494  13.442  15.436 -0.0532 -0.1495  0.2516
20677W        W36751   9.780   7.882  11.723  0.0006  0.0618  0.3195
20678W        W36752  13.723   8.545   2.187 -0.1903 -0.0536 -0.0074
20679W        W36753  17.661  13.874   3.935 -0.0890 -0.1682  0.0964
20680W        W36754   8.425   8.398  12.449  0.1438 -0.0890 -0.1351
20681W        W36755   4.552  18.498   4.153 -0.1298 -0.1248  0.1432
20682W        W36756   1.272  13.694   3.812 -0.3199 -0.1844 -0.1857
20683W        W36757  17.375  18.505  14.048 -0.1646 -0.0511 -0.2100
20684W        W36758   8.803  13.169   1.370 -0.0903 -0.0642 -0.2212
20685W        W36759   9.660   3.245   3.212  0.0118 -0.4689 -0.0568
20686W        W36760   9.799  12.462   2.772 -0.2669  0.2993  0.2474
20687W        W36761   1.108   8.701   5.459  0.0937 -0.0815 -0.1727
20688W        W36762   6.738   8.445   3.493 -0.0221 -0.1801  0.4588
20689W        W36763   2.133  17.986   1.753 -0.2538 -0.1645 -0.1025
20690W        W36764  15.314   6.777   0.612 -0.2424  0.0756 -0.0020
20691W        W36765   4.170   2.539  11.395 -0.2545  0.0321  0.0117
20692W        W36766   3.838   7.307  14.015 -0.1799  0.0666 -0.3699
20693W        W36767  13.516  15.918  12.663  0.0453 -0.0050  0.2063
20694W        W36768   4.523   3.036  12.878  0.0974  0.0503  0.0156
20695W        W36769   4.204  10.530  12.298 -0.0048  0.2628  0.0651
20696W        W36770  10.968   6.090   1.201  0.1653 -0.3848  0.0368
20697W        W36771  11.226   0.672   3.979  0.2873  0.0821 -0.0198
20698W        W36772   5.408   5.523  12.621 -0.2828 -0.3260  0.0461
20699W        W36773  16.988   6.810   5.173  0.0641  0.0194 -0.0478
20700W        W36774  15.922  11.519   3.733  0.2150  0.0374 -0.2815
20701W        W36775   3.576  15.068  15.261  0.0514 -0.1994  0.0368
20702W        W36776   9.914   4.097   1.817 -0.3615  0.2794  0.3305
20703W        W36777  11.444  17.254  11.712 -0.1376 -0.3786  0.1424
20704W        W36778   8.770   7.732  15.225 -0.1152  0.0274  0.2834
20705W        W36779  16.784   3.165   4.487 -0.2500 -0.0561  0.1154
20706W        W36780  15.847   4.259   4.226  0.1184  0.1184 -0.2299
20707W        W36781  16.302   2.673  10.371 -0.4171 -0.0236 -0.0530
20708W        W36782  12.358  10.222   2.156  0.2172  0.0670  0.1849
20709W        W36783   6.330  10.922   0.430  0.1874 -0.2118  0.1960
20710W        W36784   3.494   7.959  14.278 -0.0279 -0.1647 -0.1544
20711W        W36785   6.070  17.204  10.987 -0.1267  0.1797 -0.1037
20712W        W36786  14.517   8.153  15.620 -0.2352  0.0719  0.4002
20713W        W36787  10.379   0.781   1.617  0.3586 -0.2675 -0.0121
20714W        W36788   0.003  10.610  13.112 -0.3478  0.1246  0.0377
20715W        W36789   4.609   5.713   5.310 -0.1542 -0.1324  0.0798
20716W        W36790  10.925   2.943   1.200 -0.1686  0.0448  0.1863
20717W        W36791  12.615   5.598   6.024  0.0274 -0.2287 -0.0837
20718W        W36792  18.044   0.591   5.364 -0.1269  0.1733  0.0952
20719W        W36793  18.188   5.997   0.543  0.0815 -0.0176  0.5012
20720W        W36794  14.811   9.153  12.320  0.0122 -0.1594 -0.0674
20721W        W36795   3.914  11.081   6.084 -0.3569 -0.1096 -0.0270
20722W        W36796  16.512   7.538   0.249 -0.3486  0.2542 -0.3575
20723W        W36797   7.307   1.274  12.493 -0.2258  0.0549  0.3905
20724W        W36798   0.561   0.710  14.829 -0.3837 -0.0778 -0.1509
20725W        W36799  14.632   4.335   2.030 -0.1505  0.5895  0.0015
20726W        W36800  16.208  18.150   5.913 -0.0967 -0.0536 -0.3792
20727W        W36801   5.209  13.742  13.637  0.1533 -0.2454  0.0839
20728W        W36802   2.968   2.633  11.167 -0.0077 -0.2791  0.0331
20729W        W36803   9.463   5.930  10.556  0.3041 -0.4123 -0.0427
20730W        W36804  12.114  14.913   0.156  0.1492  0.0228  0.0123
20731W        W36805   0.467  14.285  14.137  0.1631 -0.1360 -0.2454
20732W        W36806  10.757   4.045   0.312  0.1239  0.0251 -0.0410
20733W        W36807  18.456   7.208   1.633  0.0134  0.2014 -0.1970
20734W        W36808  14.934  17.054  15.607 -0.1819 -0.2286 -0.0073
20735W        W36809  10.656  12.515   3.512  0.1889  0.2176 -0.1154
20736W        W36810   2.366  12.062   2.152  0.1309 -0.2080 -0.0619
20737W        W36811  17.839   2.830  14.242 -0.2100 -0.0045  0.0797
20738W        W36812   7.522  14.576  15.827 -0.0363  0.0530 -0.1377
20739W        W36813  13.456  18.199  14.640 -0.0410 -0.2377 -0.1747
20740W        W36814  11.441   8.320   1.202  0.0870 -0.2547 -0.0964
20741W        W36815   1.601   6.053   3.506 -0.0752 -0.2439  0.0972
20742W        W36816  11.533  10.299   0.919 -0.1334 -0.2191  0.1824
20743W        W36817  10.106  16.914   0.012 -0.0847  0.3040  0.0005
20744W        W36818   7.890  16.038   0.392 -0.3135 -0.0895 -0.1162
20745W        W36819  11.113   9.742   4.984  0.2047  0.1523  0.3757
20746W        W36820   6.447   7.358  12.105 -0.1657 -0.2091 -0.2220
20747W        W36821   0.392  15.511  12.463  0.0103 -0.1254  0.1162
20748W        W36822  18.392  10.452  15.540 -0.1110 -0.0112  0.0928
20749W        W36823  11.737  14.502   1.287  0.1638  0.5758 -0.0765
20750W        W36824   5.071   4.125  15.228  0.1960 -0.0882  0.0227
20751W        W36825  13.383   0.104  14.746 -0.0306 -0.2868 -0.2564
20752W        W36826   0.237  16.714   1.028  0.3604 -0.1686  0.0596
20753W        W36827  14.296   6.634   3.289 -0.0055  0.0012  0.0716
20754W        W36828   7.830   1.887   4.960  0.0531 -0.0073  0.1640
20755W        W36829   1.275  16.597   0.058  0.2046 -0.0618  0.0059
20756W        W36830   6.534  15.136  14.320 -0.0660  0.0599  0.1198
20757W        W36831  17.261  17.526  14.690 -0.0265  0.3311 -0.3044
20758W        W36832   6.728  11.667   3.674 -0.0340  0.0889 -0.1739
20759W        W36833  18.079   5.656  12.800 -0.1946  0.1748  0.0533
20760W        W36834   1.001   9.900  15.640  0.2367  0.2958  0.0984
20761W        W36835  16.068   6.150  11.931  0.2458 -0.4089 -0.2366
20762W        W36836   6.631  15.541  13.342  0.4303 -0.1003  0.1996
20763W        W36837  12.051   1.275  13.579  0.2338 -0.4276  0.0168
20764W        W36838   3.880   3.740  11.826  0.0935 -0.0910 -0.1506
20765W        W36839   8.438  13.634  15.221 -0.0185  0.0647  0.1345
20766W        W36840   4.994  14.954  12.369 -0.0193  0.0494  0.0060
20767W        W36841  11.198   2.101  13.513  0.1707 -0.1287 -0.4616
20768W        W36842  12.595   7.900  15.953  0.4899  0.1401  0.0557
20769W        W36843   3.849   7.985  15.781 -0.2662  0.2288 -0.0693
20770W        W36844   3.673   4.709   0.450  0.1304  0.2833  0.1271
20771W        W36845  18.362  16.078   0.514  0.0180  0.2261  0.1283
20772W        W36846  17.242  11.735  14.328  0.1351 -0.0670 -0.2176
20773W        W36847   4.053  13.158   1.088 -0.2249  0.3306  0.0257
20774W        W36848  16.956  13.775  15.934 -0.3020 -0.2155  0.1951
20775W        W36849   2.002  14.069   4.956  0.3447 -0.1992  0.0661
20776W        W36850  15.165   1.019   1.371 -0.0326  0.0487 -0.2794
20777W        W36851  17.682   2.780   3.094 -0.1173  0.2408  0.1166
20778W        W36852   2.005   3.414  12.616 -0.0349 -0.2072  0.1992
20779W        W36853   5.539   1.287  12.813 -0.1301 -0.2656 -0.5116
20780W        W36854   7.066  18.534  14.094  0.0700 -0.0759 -0.0685
20781W        W36855   3.815   5.620   3.216  0.0188 -0.0713 -0.0668
20782W        W36856  16.909  13.249   4.883  0.2536  0.3356  0.0821
20783W        W36857   4.573   7.938   2.141 -0.2422 -0.1920  0.3447
20784W        W36858   9.264  18.366  12.317  0.0884  0.0878  0.2638
20785W        W36859   8.596   6.627  14.706  0.1334  0.2460  0.2192
20786W        W36860  16.179   7.133   0.500  0.3896  0.0842 -0.0518
20787W        W36861  17.032  17.851   2.331 -0.2656 -0.0369  0.0895
20788W        W36862  13.558  15.307   3.281 -0.1875 -0.1563  0.1260
20789W        W36863   3.084  13.155  11.502 -0.0123  0.1241 -0.1745
20790W        W36864  14.817   0.321   0.959 -0.0044  0.2861 -0.4521
20791W        W36865   1.432   4.786   2.458 -0.2622  0.2855  0.0518
20792W        W36866  14.954  11.786   1.810 -0.1973  0.2472 -0.3133
20793W        W36867  13.901   0.972  14.262 -0.1162  0.2469  0.1582
20794W        W36868   4.271  15.642  15.730 -0.1881  0.1619  0.1331
20795W        W36869  14.922   8.558   2.100  0.0873  0.2100 -0.0315
20796W        W36870  17.335  11.129   1.601  0.1004 -0.2084  0.1275
20797W        W36871   5.490  12.465  14.571  0.3150  0.2428 -0.1566
20798W        W36872   1.211  13.443  10.801  0.1499  0.1285  0.0703
20799W        W36873   6.519   6.423   2.080  0.4018  0.2609  0.1947
20800W        W36874   9.624  14.175   4.922 -0.2073  0.0734  0.2559
20801W        W36875  12.264   1.165  11.519 -0.2814 -0.2890 -0.2158
20802W        W36876   2.413   4.913   2.407  0.3254 -0.1115  0.2823
20803W        W36877   8.842   1.874   3.038 -0.3318 -0.1641  0.0456
20804W        W36878   9.342   7.482   2.364 -0.0557 -0.0789  0.1322
20805W        W36879   8.828  13.252  12.518 -0.1586  0.5119 -0.0717
20806W        W36880   0.916   0.235   0.478 -0.1392  0.1231 -0.3767
20807W        W36881   9.040   3.760   2.612  0.3580 -0.5253  0.0953
20808W        W36882  12.475  11.817  13.367  0.0479 -0.0860  0.0186
20809W        W36883   0.435   8.704   1.421  0.1853 -0.2683  0.2058
20810W        W36884   7.128   6.865  15.813 -0.0793  0.0376 -0.4361
20811W        W36885  10.370  12.488  12.517 -0.0873  0.2274 -0.0237
20812W        W36886   1.003   1.624  14.353 -0.0697  0.1442 -0.3209
20813W        W36887  11.245   0.690   1.379  0.0452  0.1349  0.0253
20814W        W36888  13.410   6.122  15.182  0.1851 -0.0087 -0.0684
20815W        W36889   1.621  10.774  14.512 -0.0520 -0.2131  0.0493
20816W        W36890   2.156  11.999  13.120 -0.1565  0.1644  0.0918
20817W        W36891   7.597   0.990  13.526  0.3948  0.0299 -0.1017
20818W        W36892  17.959  15.867  15.522 -0.1124  0.0281 -0.1501
20819W        W36893  14.879   4.570   3.773  0.0102 -0.1710 -0.0632
20820W        W36894   2.562   2.296   3.652  0.2650 -0.0121 -0.3054
20821W        W36895  14.020   4.472  13.895 -0.0555 -0.3079 -0.0521
20822W        W36896  13.234   7.385  11.712  0.0389  0.3568 -0.0828
20823W        W36897   6.746  14.535  10.166 -0.1949 -0.0783  0.2260
20824W        W36898  16.739  11.803   4.038 -0.2264  0.1854  0.0599
20825W        W36899  17.436   0.723  15.624  0.0919 -0.2274 -0.2621
20826W        W36900  10.116  11.997  15.607 -0.0263  0.0186 -0.1865
20827W        W36901   1.728  10.162  15.054  0.3837  0.0985 -0.1031
20828W        W36902  10.922  14.412  14.159 -0.0462  0.2107  0.0270
20829W        W36903  15.506  13.283  13.556 -0.0007 -0.1866  0.0777
20830W        W36904   0.361  13.148   0.614  0.2869  0.4335  0.1801
20831W        W36905  16.017   3.274  13.972  0.3512 -0.4076  0.3456
20832W        W36906  15.298   6.276   0.545  0.0984 -0.1002  0.0162
20833W        W36907  13.631  10.382  12.456 -0.0153 -0.0695 -0.0805
20834W        W36908   2.786   1.933   5.483 -0.0537 -0.1782 -0.0050
20835W        W36909  13.424  17.093  14.423  0.1299 -0.0523 -0.0628
20836W        W36910  13.235   7.876   1.810  0.1770 -0.1101  0.1218
20837W        W36911  16.378   0.976  11.056 -0.1365 -0.1562  0.0228
20838W        W36912  11.724  11.886   4.851  0.3151 -0.1086 -0.1723
20839W        W36913  16.428  16.803   1.619  0.0094  0.1902 -0.0730
20840W        W36914   6.804   3.926  10.576  0.1433  0.1788  0.0623
20841W        W36915  10.148  11.635   1.245  0.0590  0.0231  0.3342
20842W        W36916   9.960  15.355   1.166  0.1141  0.0425 -0.0591
20843W        W36917   1.834   0.437  12.477 -0.4839 -0.0503  0.1715
20844W        W36918   3.508   0.721   5.292  0.0734 -0.3456  0.0817
20845W        W36919   8.616  12.223   4.478 -0.0491  0.2152  0.3886
20846W        W36920  17.513   5.512   5.351  0.2276 -0.1929  0.0904
20847W        W36921   7.096   9.522   4.879 -0.0403 -0.1573 -0.1411
20848W        W36922  17.053  12.799   5.049  0.2578 -0.0252 -0.2841
20849W        W36923  11.409   9.018   3.591  0.1459 -0.0107 -0.2405
20850W        W36924  16.905  10.037  11.207  0.0239 -0.1293  0.0816
20851W        W36925   7.626   1.198   1.940 -0.4718 -0.0128 -0.0827
20852W        W36926   3.921  18.015   5.060  0.1582  0.3325  0.1922
20853W        W36927   7.249   1.077  12.014 -0.5124 -0.2302 -0.1206
20854W        W36928  14.134   6.744  14.809 -0.1979  0.0088  0.1588
20855W        W36929  18.038   6.320  13.411  0.1442 -0.3537  0.1491
20856W        W36930   6.845  10.570  13.650 -0.0701  0.1750  0.1881
20857W        W36931   8.850  18.139  14.489  0.0823  0.1980 -0.2635
20858W        W36932   5.914   5.629   2.072 -0.0310 -0.0548  0.2402
20859W        W36933  15.593  10.809  14.382  0.3696  0.0307  0.0053
20860W        W36934   2.558  12.341  11.365 -0.2014 -0.1726  0.1256
20861W        W36935   0.532   1.543   4.705 -0.0697 -0.0106 -0.0069
20862W        W36936  10.218  14.775  13.902 -0.2340 -0.0132  0.0162
20863W        W36937  11.707   9.650  11.171 -0.2612 -0.1734  0.0440
20864W        W36938  12.885  16.325  15.616  0.1938  0.3291 -0.1426
20865W        W36939  18.292  11.408  12.449  0.0396  0.0433 -0.0634
20866W        W36940  17.155   3.750   2.266  0.2010 -0.0849  0.0367
20867W        W36941   2.864   3.794   0.799 -0.0993  0.2962 -0.1089
20868W        W36942  10.174  10.431   0.046  0.0011 -0.0805 -0.0311
20869W        W36943  11.076  17.358  15.239  0.0010 -0.2720 -0.0688
20870W        W36944  10.918  10.300   5.658 -0.0519  0.0759 -0.1571
20871W        W36945  16.009  14.096   4.928  0.1154 -0.2481  0.5141
20872W        W36946  14.635   1.050  12.068  0.1081 -0.5107 -0.1372
20873W        W36947   9.897  11.354   3.879  0.3540 -0.0825 -0.0109
20874W        W36948  11.582   3.831   2.415 -0.1141 -0.3966  0.3625
20875W        W36949   2.413  10.345  12.506 -0.2649 -0.0379  0.1871
20876W        W36950  13.195  15.433   2.919  0.0744 -0.2299 -0.1439
20877W        W36951   5.834  11.789   3.898 -0.3098  0.2650  0.2433
20878W        W36952  10.683   1.281  12.720  0.1123  0.0124 -0.0492
20879W        W36953  13.651  12.385  16.022  0.0199  0.0652  0.2827
20880W        W36954  10.703  11.857   1.757 -0.2659 -0.2749 -0.0220
20881W        W36955  12.252  13.787  11.517  0.0991  0.0823  0.1762
20882W        W36956   2.198  10.279  13.876 -0.1522 -0.0514 -0.1912
20883W        W36957   8.629   7.550   0.103 -0.0020 -0.3682  0.1968
20884W        W36958  10.577   2.478   4.128  0.0993 -0.0372 -0.0769
20885W        W36959  11.622  17.382  14.566 -0.3311 -0.4248  0.0332
20886W        W36960  13.058  17.188  15.357  0.1751  0.2605 -0.0899
20887W        W36961  16.754  16.571   2.045  0.1578 -0.1860  0.1535
20888W        W36962  16.196  18.354  15.404 -0.1692  0.0362  0.0127
20889W        W36963   6.585   0.383  15.939 -0.0802 -0.2173  0.5657
20890W        W36964  15.004   7.455  13.547 -0.0318 -0.4376  0.2298
20891W        W36965  15.388   1.242  11.057 -0.0255  0.1430  0.1500
20892W        W36966  16.642  10.934   4.590  0.4962 -0.0174 -0.1086
20893W        W36967  11.355   7.445   5.250  0.0366 -0.0285 -0.1050
20894W        W36968   3.403   1.407  11.546 -0.0547 -0.2788 -0.1338
20895W        W36969  12.260   3.139  13.634  0.0907 -0.3859  0.0405
20896W        W36970  10.489  12.133   0.870 -0.1804 -0.4488 -0.0362
20897W        W36971   9.358   3.944  14.229 -0.0579 -0.0171 -0.4137
20898W        W36972   1.640   8.794   1.008  0.0158  0.2675  0.1424
20899W        W36973  10.611   4.655  11.305 -0.1470  0.0822  0.1987
20900W        W36974   3.135  10.707   3.294  0.1223  0.2669 -0.1622
20901W        W36975  11.316  11.886  12.725  0.1856 -0.4681  0.1743
20902W        W36976   9.033  13.926   0.725 -0.0558  0.1455  0.1856
20903W        W36977   5.467  17.420   5.831 -0.2531 -0.0775 -0.4645
20904W        W36978  12.006   2.559  11.926 -0.1030 -0.1685  0.1096
20905W        W36979  17.522   2.230   4.109 -0.1526  0.0855 -0.1248
20906W        W36980  11.004   2.798   4.013 -0.1092  0.0427  0.1172
20907W        W36981  11.425   0.894   5.063 -0.2518  0.0781 -0.2049
20908W        W36982   8.306   1.671   5.124  0.3921  0.1007 -0.0921
20909W        W36983  15.378  17.402   2.174  0.1453  0.2221  0.2512
20910W        W36984  12.924  18.204  12.490 -0.2758  0.3891  0.0917
20911W        W36985   9.983   4.421  14.711 -0.1494 -0.1935 -0.2826
20912W        W36986  12.087  13.269  11.533 -0.1406 -0.2205 -0.0692
20913W        W36987   7.833   7.029   2.283 -0.1846 -0.3674 -0.0781
20914W        W36988  11.368  14.320   3.064 -0.4293 -0.3429  0.0054
20915W        W36989   9.010   2.442  11.954  0.0163  0.1377 -0.0142
20916W        W36990  14.878   1.341  14.302 -0.1260 -0.1022 -0.3598
20917W        W36991   4.178  10.904  13.238 -0.1553 -0.3262 -0.2928
20918W        W36992  17.859   1.483   5.130  0.2125  0.2830  0.2118
20919W        W36993   2.950  13.807  13.216 -0.0082  0.0539  0.0680
20920W        W36994   5.753  16.724   4.121  0.0835  0.0556  0.1779
20921W        W36995   3.477  15.264  13.684 -0.0296  0.2482  0.1576
20922W        W36996  14.869   2.227  13.072  0.2400  0.0275  0.3480
20923W        W36997  14.410  11.164  11.761  0.4095 -0.0944  0.0297
20924W        W36998  15.599   1.116   3.286 -0.1165 -0.0494 -0.1698
20925W        W36999   8.210   1.882   0.811 -0.0734 -0.0925 -0.2192
20926W        W37000  13.929  10.932  13.651  0.1820  0.3175 -0.0591
20927W        W37001  15.018  17.341  11.717  0.4362 -0.2308  0.0366
20928W        W37002  16.704   3.212   5.607 -0.2021  0.2703  0.0230
20929W        W37003   9.501   2.930  13.060 -0.0574 -0.3263 -0.1423
20930W        W37004   3.738  12.836   2.530 -0.1570  0.0880  0.0196
20931W        W37005  12.346   8.964  13.656  0.1385 -0.0994 -0.0642
20932W        W37006   6.448   6.510   1.602  0.2754 -0.0573  0.2307
20933W        W37007  13.639  18.041   4.335  0.1469 -0.0488 -0.1027
20934W        W37008   1.915   7.137  14.143 -0.1337  0.1041  0.3906
20935W        W37009   5.857  11.428   2.564  0.1433  0.0518  0.2280
20936W        W37010   1.456   7.408   0.025 -0.0813 -0.2058  0.0333
20937W        W37011   4.289  10.279   0.417 -0.2442  0.1806  0.3885
20938W        W37012  16.181   2.094  11.968 -0.1433  0.1453 -0.2658
20939W        W37013  12.599   2.008   3.895  0.3119 -0.1017  0.1115
20940W        W37014  16.064  16.738   0.366  0.0480 -0.1783 -0.1971
20941W        W37015   3.964  14.860  12.936 -0.0153  0.1843 -0.1984
20942W        W37016   8.576  14.657   2.352 -0.3109  0.0690  0.1342
20943W        W37017   0.434   1.462   3.430 -0.4185 -0.0632 -0.2559
20944W        W37018   7.199   8.819  12.433  0.2019  0.1065 -0.2586
20945W        W37019  16.688  11.775   2.361  0.0264  0.0870  0.1117
20946W        W37020  12.365  18.143   0.451 -0.3321 -0.1719  0.2302
20947W        W37021   5.613  13.362  11.625  0.1490  0.2759  0.1942
20948W        W37022  10.581   6.288   3.285 -0.2746 -0.1384  0.2692
20949W        W37023  18.033   2.480   3.413  0.3619 -0.2308 -0.3542
20950W        W37024  18.526   5.073  11.532  0.1509 -0.1283 -0.1752
20951W        W37025  11.865  15.091  12.193 -0.1394  0.0994 -0.1129
20952W        W37026   1.822   3.425   0.906 -0.4520  0.0843 -0.1342
20953W        W37027   0.159  10.776   1.020 -0.1063 -0.0149 -0.1132
20954W        W37028   6.414  13.238   2.617  0.1882  0.0891 -0.0567
20955W        W37029   1.114   0.558  12.074 -0.2718 -0.0942  0.2643
20956W        W37030   0.493   3.891  15.932  0.0060  0.1487  0.1278
20957W        W37031   7.378   1.769   0.800  0.5580 -0.0044 -0.2074
20958W        W37032   1.457   3.875   3.564 -0.1384 -0.0839  0.0474
20959W        W37033  16.096  13.662  12.947 -0.1910  0.0946 -0.3123
20960W        W37034   2.340  15.825   2.125  0.1250 -0.2793 -0.0976
20961W        W37035  16.138  18.308   0.696 -0.0504  0.2465  0.1308
20962W        W37036   6.708  11.555  13.314 -0.0136  0.0303  0.0463
20963W        W37037   3.173  13.177  14.269  0.1229 -0.0844  0.1541
20964W        W37038  10.579   3.256   0.694 -0.1463  0.0380 -0.3151
20965W        W37039  15.986   9.466   1.708  0.2077  0.1283 -0.0695
20966W        W37040   5.945  16.493  13.308  0.1125  0.0122  0.3085
20967W        W37041  13.154   7.797   2.510  0.1011  0.1662 -0.0598
20968W        W37042  10.645   1.122   2.947  0.0182  0.1878  0.0272
20969W        W37043   6.445  18.484   0.618  0.4012  0.1021 -0.2819
20970W        W37044  17.937   5.603   5.616  0.0860 -0.2763 -0.0998
20971W        W37045  11.984   3.122   0.586 -0.1972  0.3118 -0.1390
20972W        W37046  16.123   2.606  14.486 -0.1387  0.2259 -0.0524
20973W        W37047   6.659   3.605  11.978 -0.0850  0.0974 -0.0117
20974W        W37048  18.229  17.721   1.434 -0.1976 -0.1349 -0.2233
20975W        W37049   8.392   6.421   2.346 -0.2578  0.0755  0.0050
20976W        W37050   8.058   0.153   0.637  0.1181  0.0602  0.1094
20977W        W37051   8.938   5.662  14.573  0.1720 -0.0231  0.0340
20978W        W37052   3.484  13.743  14.395  0.4473 -0.0308  0.1116
20979W        W37053   0.279  13.301   2.272 -0.0283  0.2345  0.3464
20980W        W37054  10.608  16.011  11.195 -0.1480 -0.2140 -0.1006
20981W        W37055  17.232  15.856   0.581  0.0777 -0.1025  0.1657
20982W        W37056  13.507  10.919   3.216 -0.3275 -0.0146 -0.3000
20983W        W37057   4.874   1.708  15.578  0.0563  0.2296 -0.0230
20984W        W37058   4.995   2.328  12.554 -0.0540  0.1627 -0.1212
20985W        W37059  17.136   0.293  14.641 -0.2752 -0.1673 -0.2474
20986W        W37060  16.823   6.375  15.562  0.1073  0.0032 -0.2598
20987W        W37061   1.270  11.317  14.149 -0.1056 -0.1255 -0.0400
20988W        W37062   0.728   9.085   5.620 -0.3238  0.1325  0.0692
20989W        W37063   0.335   0.656  13.602 -0.0424 -0.1537 -0.1091
20990W        W37064   7.939   9.281   5.263  0.4605 -0.1379 -0.0403
20991W        W37065  13.389  12.279   1.014 -0.0266  0.1240 -0.0107
20992W        W37066  12.913  16.160   4.940 -0.4658 -0.3134  0.3432
20993W        W37067  13.426  13.832   4.727 -0.1121 -0.1128  0.0062
20994W        W37068   5.986  15.931   4.214 -0.0211  0.0177  0.1029
20995W        W37069   7.774   7.839  14.439 -0.0956 -0.1802 -0.0561
20996W        W37070  12.203   2.863  12.273  0.0610 -0.0557 -0.2707
20997W        W37071   6.330   6.646  14.653 -0.0454 -0.1409  0.0088
20998W        W37072   7.998  18.117  12.393 -0.1698  0.1990 -0.0560
20999W        W37073  13.123  11.775   2.293  0.1127  0.0626  0.0636
21000W        W37074  10.020  17.449  11.671 -0.0921  0.0881 -0.4102
21001W        W37075   3.903  16.088   0.546 -0.0717 -0.0916 -0.3312
21002W        W37076  13.953   6.077   2.722 -0.5171 -0.2501 -0.1602
21003W        W37077   8.493   0.479   2.772 -0.3914  0.2978 -0.1972
21004W        W37078  15.761   4.870  15.598 -0.1927 -0.3215  0.2576
21005W        W37079  13.105   8.022  11.260  0.1449 -0.1119  0.2954
21006W        W37080  13.257  16.738  15.461  0.3395  0.1815 -0.0208
21007W        W37081   1.941  14.992  15.256 -0.0065 -0.0000  0.0816
21008W        W37082   5.309   8.252   0.624  0.0028  0.1887  0.0836
21009W        W37083  13.405   1.806   5.113  0.0197 -0.2606 -0.0326
21010W        W37084  10.285  16.136  15.505  0.2804 -0.0197  0.0735
21011W        W37085  11.807  18.329   3.027  0.0852  0.1544  0.2568
21012W        W37086  11.704  10.324   1.721  0.3969  0.2232 -0.1508
21013W        W37087   9.172   6.024  14.956 -0.2084  0.1639 -0.3875
21014W        W37088  18.057  13.526   4.447 -0.0724  0.0105 -0.1558
21015W        W37089  14.146   2.801   2.760 -0.2299  0.1456 -0.0360
21016W        W37090  18.316  16.792   0.637  0.0749  0.0566  0.0788
21017W        W37091  13.067   8.508   5.615 -0.3478 -0.0715  0.2253
21018W        W37092   9.345  14.205  11.298  0.1619 -0.5002 -0.1043
21019W        W37093  13.759   9.283   3.507  0.2982 -0.0092 -0.3440
21020W        W37094   0.570  18.515   4.478 -0.0438 -0.0993 -0.1512
21021W        W37095  13.490   5.014  13.078 -0.2249 -0.2879 -0.1853
21022W        W37096   4.209   1.851  11.790  0.1906 -0.2779 -0.1287
21023W        W37097  17.234   3.359   1.927 -0.0569 -0.0416 -0.0987
21024W        W37098   4.671  18.450  11.259  0.2333  0.0928 -0.0305
21025W        W37099  10.141  15.124  14.287  0.2442  0.1669 -0.0027
21026W        W37100   7.913   3.631   5.485  0.1713  0.0232  0.0249
21027W        W37101   2.035  16.316   4.839  0.1772  0.3289  0.0147
21028W        W37102  14.455  13.536  13.704 -0.0228 -0.0499 -0.0035
21029W        W37103   3.426  18.294  12.237 -0.0992 -0.2014  0.0405
21030W        W37104  16.448   5.255   0.715  0.1552 -0.2808  0.1900
21031W        W37105   9.189  12.220   3.079  0.1081  0.1607  0.0893
21032W        W37106  11.892   3.968  11.722 -0.0353  0.0482 -0.2381
21033W        W37107   7.035  16.256  11.956  0.1145  0.1180  0.3615
21034W        W37108  10.077  12.160   5.496  0.1796 -0.0498 -0.0173
21035W        W37109   9.313  10.726   3.545  0.0055 -0.1194 -0.0688
21036W        W37110   1.385   0.835   4.471  0.1239 -0.1595 -0.1929
21037W        W37111   8.379  16.555  14.552 -0.0699  0.0322 -0.0922
21038W        W37112  14.871  14.744  12.936  0.0372  0.0236  0.2400
21039W        W37113   3.057  13.062  15.357  0.1087 -0.3217  0.2767
21040W        W37114  10.750   8.456  10.357  0.4737 -0.2077  0.2032
21041W        W37115  17.242   3.176   3.324 -0.0031 -0.2771 -0.1254
21042W        W37116  17.748  10.013   1.486 -0.0827 -0.2347  0.3694
21043W        W37117   2.230   2.594   5.366 -0.0640  0.0633  0.2675
21044W        W37118  10.548  12.825  12.933  0.1326  0.1146  0.0171
21045W        W37119   2.601   5.270  14.743 -0.0296  0.2067  0.2748
21046W        W37120   3.259  11.941   0.981  0.1885  0.1626 -0.1537
21047W        W37121  10.216   3.283   3.532 -0.3526  0.3097  0.1310
21048W        W37122   4.904  14.038  14.611  0.1528  0.3628  0.0940
21049W        W37123  17.954   1.440   1.639 -0.0204  0.0540  0.1562
21050W        W37124   5.564   0.369  11.785  0.1950 -0.1447 -0.1671
21051W        W37125  15.704   1.453   2.265 -0.4581  0.0605 -0.0913
21052W        W37126   6.102  18.273   2.265 -0.2724  0.0917 -0.0552
21053W        W37127   8.072  12.405  15.720  0.0694 -0.1462  0.0343
21054W        W37128   4.620   2.547  11.592 -0.2887 -0.0206  0.2180
21055W        W37129   6.475   3.611   2.774  0.1369  0.2987 -0.0466
21056W        W37130   6.803   3.043   2.593 -0.0226 -0.0747  0.2192
21057W        W37131  13.268  14.191  11.501  0.2603  0.3771  0.0719
21058W        W37132  12.753   2.038   3.343  0.1530 -0.1158 -0.1079
21059W        W37133   3.203   2.618  14.309 -0.0456 -0.1734 -0.2524
21060W        W37134  15.694  12.956  13.853 -0.4351  0.1878 -0.1853
21061W        W37135   4.740   5.560   1.026 -0.0012 -0.4077 -0.1479
21062W        W37136   9.887  17.178  12.752 -0.2501 -0.0512  0.5433
21063W        W37137  13.970   2.232   2.228 -0.0368 -0.0246 -0.2478
21064W        W37138   1.216   6.819  15.674 -0.0274  0.0510 -0.1745
21065W        W37139  13.628  15.610   0.116 -0.1489 -0.1268  0.1980
21066W        W37140  13.087   9.975   0.192  0.0547  0.2067  0.4626
21067W        W37141  15.241   2.771   4.708  0.1201  0.2814 -0.1231
21068W        W37142  14.501   7.410   1.424 -0.2427  0.0924  0.3602
21069W        W37143   8.994  12.744   1.677  0.0194 -0.0524 -0.1471
21070W        W37144  14.384  17.192  14.355 -0.1870  0.0087 -0.0043
21071W        W37145   9.277   1.312  14.090  0.1282  0.0798 -0.4348
21072W        W37146   8.534   7.233   3.454 -0.0345  0.1963 -0.1900
21073W        W37147   7.674   5.318   5.391  0.0748  0.4158  0.2471
21074W        W37148   5.725   9.386   4.352  0.1162 -0.2106 -0.2790
21075W        W37149  14.316  10.271   5.187  0.0847  0.0464 -0.0184
21076W        W37150  16.235  15.215  14.555 -0.1145  0.1532  0.0739
21077W        W37151   3.891   8.972  15.864  0.1684 -0.0632 -0.0043
21078W        W37152   9.954  12.645  13.986 -0.1057  0.0749  0.0102
21079W        W37153  12.559  16.671  11.350  0.0969  0.0746 -0.0137
21080W        W37154   3.721  17.221   0.051 -0.0749 -0.3831 -0.0590
21081W        W37155   7.903   3.689   1.680 -0.2059 -0.4106  0.3403
21082W        W37156   6.251   2.692  12.086 -0.0174 -0.1560  0.0054
21083W        W37157   0.547   8.043  12.511  0.2423 -0.0246 -0.2996
21084W        W37158  18.006   4.059   1.917  0.0657  0.1100  0.0290
21085W        W37159  11.313  17.199  12.179 -0.0370 -0.1952  0.3506
21086W        W37160   8.705   4.297   0.809  0.0347 -0.1695  0.1689
21087W        W37161   6.944   8.943   3.369 -0.0324 -0.1526 -0.0039
21088W        W37162   5.060   1.917   0.337 -0.0415 -0.1592  0.1296
21089W        W37163  13.679  16.525   0.270  0.1531  0.0253 -0.0905
21090W        W37164  16.780   4.650   4.713  0.0366  0.4177  0.1722
21091W        W37165   1.780   0.239  13.566 -0.3408  0.1174 -0.0281
21092W        W37166  15.253   7.314   5.589 -0.0454 -0.2078 -0.0524
21093W        W37167   0.456   5.528   1.425  0.0893 -0.1965  0.0273
21094W        W37168  14.953   0.027   3.676 -0.0068  0.0184 -0.0001
21095W        W37169  14.758   1.315   2.603 -0.2694  0.0116 -0.0062
21096W        W37170  10.381  15.082   4.147  0.2675 -0.0615  0.0948
21097W        W37171   1.856  10.447  15.485 -0.0848  0.3088  0.2161
21098W        W37172   5.519   4.078   2.338 -0.1696  0.0894  0.2371
21099W        W37173  16.904   2.766   4.105 -0.3050  0.0587  0.1143
21100W        W37174   9.099   1.284  11.440  0.1181 -0.1978  0.2864
21101W        W37175   6.202   0.615   4.580 -0.0272 -0.1445 -0.2518
21102W        W37176  16.015  10.912  11.732 -0.1713 -0.2987 -0.0449
21103W        W37177   9.549  12.224   4.056  0.0470 -0.3537  0.0275
21104W        W37178   0.246  17.951  13.928  0.3260  0.0347  0.0432
21105W        W37179  13.726  17.559   0.892  0.1844  0.1372 -0.3711
21106W        W37180  14.033   5.198   2.902 -0.0674 -0.2736 -0.0482
21107W        W37181   7.922   8.963   4.214  0.1011 -0.1114 -0.1142
21108W        W37182   3.939   1.901   3.911  0.0404  0.1040  0.0529
21109W        W37183   8.573   9.194  13.299  0.1836 -0.0496 -0.2378
21110W        W37184   3.084   1.043   5.420  0.3742 -0.0581 -0.0144
21111W        W37185   3.190  12.456   5.009 -0.1873 -0.0319 -0.0213
21112W        W37186   0.443  12.665   1.512 -0.0690 -0.0166  0.2010
21113W        W37187  15.287   9.188  12.581 -0.2366 -0.0782 -0.0689
21114W        W37188  13.902   6.195  13.425 -0.0773 -0.2830 -0.2883
21115W        W37189  17.769  18.108   0.893  0.5180  0.0874  0.0506
21116W        W37190  17.085  13.301   4.379  0.0973  0.3261 -0.2894
21117W        W37191   6.679   9.544   5.710 -0.0004  0.3152 -0.1287
21118W        W37192   0.898  15.675  11.453  0.2011 -0.0064  0.1042
21119W        W37193  14.771   7.534  10.320  0.1313  0.1408  0.1966
21120W        W37194   0.461   6.701   0.480 -0.1664  0.1083  0.1856
21121W        W37195  13.257  11.131   4.017 -0.1027  0.2921 -0.2266
21122W        W37196   6.230  18.267  14.984  0.2023  0.1138  0.2107
21123W        W37197   3.969   5.822   1.506 -0.3639  0.4370 -0.1846
21124W        W37198   8.893  14.564   4.978 -0.1169 -0.0413 -0.0359
21125W        W37199  11.663  16.681   1.935  0.2053 -0.0867  0.0413
21126W        W37200  11.383   1.151  11.039  0.0049  0.0936 -0.0827
21127W        W37201  10.137   6.691   2.483  0.0912 -0.1518  0.2358
21128W        W37202   8.500  10.411  11.519 -0.1582 -0.0444  0.0681
21129W        W37203   5.425   2.149  15.472 -0.1037  0.2291 -0.1638
21130W        W37204  13.184   6.848   1.517 -0.0488  0.3989 -0.2351
21131W        W37205  16.399   7.336  11.881  0.0627  0.1040  0.1175
21132W        W37206   1.320   6.320   4.393  0.1370  0.0492 -0.3577
21133W        W37207   2.099  13.122   4.673 -0.0924 -0.0682 -0.1343
21134W        W37208   1.206   5.120  13.012  0.0869  0.2751  0.1552
21135W        W37209   8.334  12.933  12.074  0.2128 -0.2952 -0.1557
21136W        W37210  16.676   1.272   3.779  0.3472  0.1112  0.2074
21137W        W37211   7.699   4.281  13.824 -0.0787 -0.0954  0.0617
21138W        W37212  14.198  14.679   3.496 -0.1419 -0.2450  0.0597
21139W        W37213   9.005   2.484   4.754 -0.0086  0.0244  0.3629
21140W        W37214   6.483   0.471   1.722 -0.3332  0.1517 -0.4193
21141W        W37215  14.299  16.029  14.966 -0.1108 -0.1983 -0.3807
21142W        W37216  12.688  16.059   1.308 -0.0918 -0.2191  0.0987
21143W        W37217   7.204  13.566  11.485  0.1128 -0.0621 -0.2542
21144W        W37218  11.773  16.364  11.758  0.2234  0.0173  0.1508
21145W        W37219   5.549   1.667  12.110  0.1395 -0.1061  0.1382
21146W        W37220  12.709   2.853  11.073 -0.0993  0.1568  0.2430
21147W        W37221   1.516  12.176   1.687 -0.3218 -0.0080 -0.3044
21148W        W37222   9.173   2.396  15.294  0.1162 -0.1499 -0.2957
21149W        W37223   8.240  14.545  13.786 -0.0449  0.2191  0.1938
21150W        W37224   5.681  11.871   2.723 -0.2591  0.2572 -0.3109
21151W        W37225   1.149   6.397  11.163  0.1421  0.2360  0.2137
21152W        W37226   2.215   2.116   3.377 -0.1572  0.1241  0.1014
21153W        W37227  16.577   7.062   5.238  0.2347  0.1786  0.0675
21154W        W37228  15.147   3.045   5.596  0.1430  0.3581 -0.0929
21155W        W37229   4.769   6.626   5.706 -0.2831  0.3332  0.0474
21156W        W37230   1.717   6.421  14.140  0.2166  0.0688  0.0540
21157W        W37231   5.507   6.272  15.094  0.1094 -0.0491  0.1147
21158W        W37232   2.000   8.761   5.643 -0.0019  0.0269 -0.2145
21159W        W37233  12.925   9.684   5.916 -0.2169 -0.0959  0.0555
21160W        W37234  11.854   0.182   1.146  0.0402  0.0391  0.3065
21161W        W37235  17.090  14.261  15.934  0.2314 -0.1927  0.1803
21162W        W37236   9.729  10.232  13.375  0.0221 -0.3896 -0.2456
21163W        W37237  16.259  15.150  11.608 -0.2122 -0.0288  0.0433
21164W        W37238   5.484   1.269  11.860  0.1178  0.1177 -0.0973
21165W        W37239   7.991   6.452   3.548  0.0900  0.0718 -0.2016
21166W        W37240   7.310  13.204   0.994 -0.1767 -0.1827  0.0348
21167W        W37241  11.193  14.156   4.259 -0.0302  0.1543 -0.1614
21168W        W37242   2.626   7.765  12.766  0.0993  0.2119  0.1847
21169W        W37243   0.111  15.279   6.219 -0.1838 -0.0749 -0.2192
21170W        W37244  12.160  17.939   4.274  0.0162 -0.4399  0.3273
21171W        W37245  11.598   6.237   3.347  0.1342 -0.2369 -0.4080
21172W        W37246   7.637   3.138   4.550  0.0609  0.2511  0.2077
21173W        W37247   4.707  16.610  13.420  0.1551 -0.0366 -0.1594
21174W        W37248   2.213  18.235  14.514 -0.1234 -0.0313  0.6196
21175W        W37249   5.078   6.344   4.973 -0.2574 -0.2394  0.0616
21176W        W37250   5.094  11.639  12.107  0.1526  0.0817  0.2024
21177W        W37251  11.335  11.884   1.039 -0.4471 -0.1955 -0.1712
21178W        W37252  14.668  12.307  12.129 -0.2247  0.1362  0.1465
21179W        W37253   2.672  10.921   2.342 -0.4688 -0.1911  0.3055
21180W        W37254  13.748  13.818  14.755  0.2420  0.1124 -0.2498
21181W        W37255   5.114  13.989   2.317 -0.0257  0.0626  0.0017
21182W        W37256  15.968  18.443   5.156 -0.2278 -0.4520 -0.1016
21183W        W37257  14.933  13.503   4.136 -0.1416 -0.3302  0.1815
21184W        W37258   5.959   9.193   1.666 -0.2378  0.2473 -0.1128
21185W        W37259  10.903   8.674  13.063 -0.0516 -0.1810 -0.0454
21186W        W37260   9.414   8.226   3.684 -0.1550  0.0105 -0.1102
21187W        W37261  17.051   9.745  15.221  0.0967 -0.0124  0.0907
21188W        W37262  18.127  11.392  15.550 -0.1096  0.0904 -0.0984
21189W        W37263   3.611   7.815   3.924  0.3327 -0.1371 -0.2310
21190W        W37264  11.214   2.036   1.479 -0.1456  0.1682  0.0867
21191W        W37265  14.558  10.873   2.909  0.1849  0.2922 -0.4959
21192W        W37266   0.789   9.027  12.337 -0.0451  0.0696  0.0749
21193W        W37267  18.523  17.578   4.748  0.0070  0.1344  0.0173
21194W        W37268   4.931  10.497   0.258  0.1224 -0.2453 -0.3489
21195W        W37269   3.928  12.245  11.646 -0.0883  0.4783 -0.0341
21196W        W37270   1.459   3.765  15.765 -0.1093  0.1476  0.2139
21197W        W37271  16.099  10.886  12.255  0.3433 -0.3400  0.0653
21198W        W37272  12.841  11.368  15.038  0.1810  0.0581  0.2859
21199W        W37273   1.724   3.858   4.531 -0.3890  0.3310  0.1610
21200W        W37274   6.971   8.462  15.547  0.1631  0.1989  0.0132
21201W        W37275   2.842   9.901  14.996 -0.1563 -0.2329 -0.2389
21202W        W37276  11.229   0.275   3.241  0.1905  0.0293 -0.0980
21203W        W37277  12.071  17.417  13.924  0.0410  0.0809 -0.0312
21204W        W37278  13.893   5.445   5.456  0.1703  0.1716 -0.0914
21205W        W37279   2.877   7.460  14.242  0.3915 -0.1350 -0.0554
21206W        W37280   6.450   7.860  15.940 -0.4579 -0.2187 -0.2319
21207W        W37281   4.383  13.067   4.153  0.1525 -0.1721 -0.0618
21208W        W37282   0.995   2.555  11.720  0.1143 -0.0374  0.2670
21209W        W37283   0.574  17.164  11.918  0.2010 -0.0439 -0.0850
21210W        W37284  15.632  14.624  15.846 -0.0440 -0.2651  0.0190
21211W        W37285   7.135  13.105   0.170 -0.2369 -0.3012  0.0237
21212W        W37286  16.835   4.614   2.621 -0.0404 -0.0374  0.2078
21213W        W37287   2.663  16.242   5.136  0.0022  0.0112 -0.0108
21214W        W37288   4.113   2.167  12.945 -0.0216 -0.2527 -0.3692
21215W        W37289   1.977   3.676  15.652  0.1992 -0.3205  0.2198
21216W        W37290  11.373  16.408  16.022  0.0648  0.0146  0.2947
21217W        W37291   1.187   3.219   0.230 -0.0454 -0.0298  0.0246
21218W        W37292  12.801   6.158  12.783 -0.1601  0.0726 -0.0347
21219W        W37293   8.847  18.205   3.642  0.2179  0.2127  0.2834
21220W        W37294   4.006   8.532  14.790  0.0576 -0.1996  0.3378
21221W        W37295  16.699   4.821  15.202  0.1274 -0.0998  0.0094
21222W        W37296   9.471   5.023   4.738 -0.0308  0.0900 -0.0508
21223W        W37297  14.648   0.954  13.348 -0.1428 -0.1696 -0.3142
21224W        W37298   9.240   0.398   4.177 -0.1410  0.0644 -0.1576
21225W        W37299   6.414  17.267   3.870 -0.3417  0.3535  0.2412
21226W        W37300  17.151   3.224  12.694 -0.0022  0.1165  0.1325
21227W        W37301   4.619   2.528   0.533 -0.1156  0.0476 -0.2978
21228W        W37302  16.902  12.252  12.053  0.1981 -0.0341 -0.1817
21229W        W37303  17.490   9.160   0.246 -0.3243  0.0345  0.3109
21230W        W37304   2.378   9.722   5.117  0.1296 -0.2031 -0.1244
21231W        W37305   1.916   9.591   5.180 -0.0525 -0.2007 -0.0633
21232W        W37306   5.252  11.431  13.401 -0.1729  0.1440 -0.1132
21233W        W37307  10.215   2.594  13.539 -0.1953  0.1531  0.1081
21234W        W37308   9.914   0.238   5.071  0.0785  0.0552  0.0477
21235W        W37309  14.716  15.418  13.633  0.1439  0.0218  0.3077
21236W        W37310   6.341  14.294  15.654  0.0794  0.0866 -0.0487
21237W        W37311   2.615  17.006   2.119  0.0202  0.0768 -0.0845
21238W        W37312  11.792  12.379  15.254 -0.3609 -0.0524  0.0358
21239W        W37313   9.378  14.639  13.220 -0.0082  0.0158  0.0973
21240W        W37314   8.946   8.493   2.803  0.2989  0.0119  0.0894
21241W        W37315   0.042  12.038  15.193 -0.0478  0.1837 -0.2684
21242W        W37316   5.600   0.741  13.642  0.0020 -0.3111  0.1249
21243W        W37317  15.989   3.662   5.889  0.0943  0.0817  0.1352
21244W        W37318   5.691   9.760  11.784 -0.1054 -0.0185  0.0247
21245W        W37319  12.381  15.586  14.315 -0.5607  0.0927  0.1667
21246W        W37320   8.613  13.805   2.754 -0.0847  0.2761 -0.0495
21247W        W37321   9.914  14.017   2.744 -0.1177  0.0351 -0.0198
21248W        W37322   9.494   1.345   4.369 -0.0183 -0.2731  0.0246
21249W        W37323   2.831   3.063   4.211  0.2766 -0.0228 -0.2006
21250W        W37324   2.790  11.224   1.944  0.0470  0.3317  0.0546
21251W        W37325   6.913   9.211   5.262 -0.0803 -0.0287 -0.2567
21252W        W37326   4.628   4.395  13.096  0.0739  0.0216 -0.1837
21253W        W37327  12.001   8.288  12.438  0.0803  0.0102  0.1600
21254W        W37328   9.774   1.385   4.916 -0.1496 -0.2211  0.0589
21255W        W37329  15.964  14.908  15.560 -0.2881 -0.1710  0.1798
21256W        W37330   1.647   3.155  14.587  0.1252 -0.1655  0.0726
21257W        W37331   8.294   8.646   4.927  0.0336  0.0312  0.1908
21258W        W37332   1.370   5.554  11.728 -0.0600  0.3118  0.2432
21259W        W37333  15.473   1.374  15.149  0.3306  0.0795 -0.2066
21260W        W37334   9.258  17.940  14.390 -0.2635 -0.1651 -0.3451
21261W        W37335   8.167  16.878  11.692 -0.0293  0.4049 -0.0843
21262W        W37336  11.191   2.372  10.805  0.0960  0.0766  0.1565
21263W        W37337   7.186  16.431  13.927 -0.0849  0.1975 -0.2391
21264W        W37338  13.843  17.761   2.455  0.1352  0.3407 -0.2963
21265W        W37339   1.010   8.112  15.430 -0.0995 -0.1472  0.0311
21266W        W37340   3.115   2.140  14.166 -0.0558 -0.1055  0.2566
21267W        W37341   0.457   5.962  13.730 -0.2968 -0.0969  0.1197
21268W        W37342  11.131   2.538   5.065  0.0943  0.3972 -0.1568
21269W        W37343  16.362  12.317   0.960  0.1128 -0.2214  0.3863
21270W        W37344   5.739  14.730   1.209  0.1912  0.0961 -0.2200
21271W        W37345  15.345   0.943  11.985 -0.2593 -0.1592  0.2468
21272W        W37346  16.851   8.007  12.593 -0.1312 -0.1539 -0.0989
21273W        W37347  10.204  16.909   4.490  0.1532 -0.0097 -0.0242
21274W        W37348   5.183  10.211  10.997  0.0796 -0.1045 -0.1066
21275W        W37349   6.364  17.451  13.772  0.0553  0.2400  0.3383
21276W        W37350  11.379   8.671  13.072  0.1337  0.0528 -0.0307
21277W        W37351   7.249   4.570   0.543  0.3047 -0.2479 -0.1703
21278W        W37352   2.153  10.933   3.884  0.3533  0.3246  0.0804
21279W        W37353  12.547   2.172   1.452  0.0205  0.1560 -0.3695
21280W        W37354  16.399  10.789   5.546 -0.0206 -0.1520  0.2734
21281W        W37355   9.713   2.054   0.817  0.1623 -0.0605  0.1289
21282W        W37356   3.714   1.297   1.105  0.1609 -0.1100 -0.2128
21283W        W37357   6.356  12.659   5.326 -0.0361 -0.0882  0.2504
21284W        W37358   9.583   2.573   1.257  0.1223 -0.1882 -0.1296
21285W        W37359  17.844   0.234   4.915  0.1831 -0.0530  0.0806
21286W        W37360  10.052  17.955  15.986  0.1406  0.0273 -0.1358
21287W        W37361   2.856  13.342   3.023  0.0870 -0.2258 -0.0462
21288W        W37362   2.547  14.405  14.165  0.2096  0.1014  0.3766
21289W        W37363  14.410  18.477  12.471 -0.1823 -0.1014  0.0527
21290W        W37364  12.749  13.765   2.751 -0.0132 -0.3057  0.0759
21291W        W37365  15.951   6.372  12.392  0.1318 -0.3056 -0.1500
21292W        W37366   7.946   4.789   1.168 -0.0620  0.2926 -0.4934
21293W        W37367   4.438  14.604  15.058  0.1037 -0.0618  0.1161
21294W        W37368   2.277  12.503  12.378 -0.2036  0.3012 -0.0083
21295W        W37369   1.193  15.926  12.703  0.0592  0.1190 -0.0494
21296W        W37370  13.269   4.099  11.167  0.1950  0.0952  0.2865
21297W        W37371  18.530   5.346  12.809  0.0675  0.0496  0.0486
21298W        W37372   5.042   6.919  15.491  0.0867 -0.1671  0.0005
21299W        W37373  18.108   3.044  14.654 -0.1176 -0.2664  0.2926
21300W        W37374  13.055   6.280  11.838  0.1922 -0.2471  0.0312
21301W        W37375   4.050   6.213  14.035  0.0248  0.0013  0.0554
21302W        W37376   2.745   6.034  11.789  0.0235 -0.1092  0.1457
21303W        W37377  14.759   8.029   4.542 -0.0958  0.1914 -0.1425
21304W        W37378   2.111   3.587   1.305 -0.3021  0.0921 -0.2021
21305W        W37379   3.979   0.456  13.008 -0.0746 -0.0453 -0.0732
21306W        W37380  16.849   3.349  13.168  0.0408 -0.0673 -0.1003
21307W        W37381   9.493   8.854  14.917  0.1790 -0.3135 -0.0529
21308W        W37382   6.601  17.917   5.095  0.0726 -0.2217 -0.1287
21309W        W37383  10.787   3.775  14.675  0.1416  0.0799  0.0359
21310W        W37384  10.784  11.409   2.340  0.1443 -0.0229  0.2326
21311W        W37385  13.987   3.935  12.194  0.2024  0.0486  0.2949
21312W        W37386   1.875  18.513  11.680  0.0131 -0.1628 -0.0828
21313W        W37387  16.349  13.642  13.900 -0.1388  0.0236  0.0790
21314W        W37388  11.359  12.741   2.993 -0.0410  0.1267  0.2320
21315W        W37389  16.783  17.919  15.987 -0.1758 -0.1761  0.0654
21316W        W37390  13.427   6.487  11.253  0.3203 -0.3851 -0.2751
21317W        W37391   2.187  15.520  13.193 -0.0007  0.2096  0.0405
21318W        W37392  14.484   7.829   1.151  0.3177 -0.1131 -0.0644
21319W        W37393   0.817  15.631  14.031 -0.1706  0.0519 -0.0430
21320W        W37394   9.162   3.851   0.332 -0.0762 -0.2988  0.0055
21321W        W37395  13.480   3.437  15.217  0.1874  0.4015 -0.4083
21322W        W37396  11.592   0.090   4.624  0.0396  0.0212  0.2584
21323W        W37397   1.897  10.705  15.018  0.0391  0.0908  0.6140
21324W        W37398   6.557  14.944   0.201  0.0078  0.2410 -0.0208
21325W        W37399   5.545  16.931   4.536  0.0481  0.3658  0.2164
21326W        W37400   5.845  15.984   1.477  0.0864 -0.1444 -0.0820
21327W        W37401   7.650  10.370  11.183 -0.2493 -0.3475  0.0702
21328W        W37402  14.213   8.558   1.001  0.2600 -0.0917  0.2360
21329W        W37403  12.984   4.145   0.181  0.1261 -0.0589  0.3792
21330W        W37404   9.039   4.956  15.723  0.0804  0.1534 -0.2534
21331W        W37405  15.876  13.850   0.328 -0.1112  0.0093 -0.1110
21332W        W37406  10.951   6.155  14.231  0.1844  0.0749 -0.1450
21333W        W37407   6.917  15.304   5.895  0.0496 -0.2908  0.2315
21334W        W37408   4.243  15.906   4.937  0.1502 -0.2664 -0.1616
21335W        W37409   5.159   3.789   2.089 -0.0556  0.0493 -0.2430
21336W        W37410  11.028  18.426   3.477  0.3712 -0.1410 -0.1971
21337W        W37411   7.861  11.161  15.470  0.0708 -0.0366 -0.2877
21338W        W37412   2.667   6.949   2.067 -0.2070 -0.2461 -0.2721
21339W        W37413   2.069  11.011  14.648 -0.0328 -0.3683 -0.0729
21340W        W37414   6.989  14.015  11.020  0.0555 -0.0421  0.3253
21341W        W37415   8.435  16.940  12.878 -0.0144 -0.2342  0.2722
21342W        W37416   6.936  15.304  12.412  0.2356 -0.0591  0.1100
21343W        W37417  15.652  16.850   4.478 -0.2013  0.0098 -0.4023
21344W        W37418   8.152   6.319   6.073 -0.2868 -0.1168 -0.1402
21345W        W37419  17.031  12.324   0.518 -0.2397  0.1076 -0.2492
21346W        W37420   3.704  13.692   3.406 -0.1001 -0.0694  0.0178
21347W        W37421   2.340   0.169  14.341 -0.0016 -0.4526 -0.5122
21348W        W37422   1.976   7.319   1.977  0.0337  0.2392 -0.1751
21349W        W37423  14.124   3.910  13.685 -0.2258 -0.1242  0.1663
21350W        W37424  16.657  15.732  12.251 -0.1079 -0.0357 -0.2594
21351W        W37425   9.986  10.429   2.160  0.1431  0.0628 -0.0525
21352W        W37426   8.963  12.671  11.906  0.1038  0.1817 -0.0999
21353W        W37427  17.170  17.276   5.597  0.0592 -0.2664  0.0694
21354W        W37428   1.167  13.421   2.484  0.0140 -0.2044 -0.2144
21355W        W37429  15.438   5.625   2.741  0.0061 -0.1356 -0.0395
21356W        W37430   6.467   6.867   0.750 -0.0852  0.4211 -0.2471
21357W        W37431  16.745  15.345   2.948  0.1643  0.0918 -0.0868
21358W        W37432  11.565   4.078  14.575 -0.4853  0.0685 -0.0708
21359W        W37433   7.974   5.263  13.542  0.3375  0.3693 -0.0233
21360W        W37434  14.327   9.024  11.392 -0.1674  0.1260  0.0223
21361W        W37435   0.237   4.465  14.604 -0.0415  0.2473  0.1922
21362W        W37436  11.157  12.293  11.864 -0.3030  0.1439  0.0839
21363W        W37437   0.282   1.486  15.818 -0.0120  0.0511  0.3914
21364W        W37438   6.611  18.125   0.337 -0.1685  0.1790  0.4137
21365W        W37439  15.869   4.325  11.961 -0.3916 -0.2843  0.1631
21366W        W37440   3.846   6.661   0.517 -0.1336 -0.2062 -0.2032
21367W        W37441   8.328   8.573   3.020 -0.0052  0.0543  0.5631
21368W        W37442  13.397   7.359   2.203 -0.1743  0.2265 -0.1151
21369W        W37443   2.451  12.238   5.408  0.2030 -0.2087 -0.2059
21370W        W37444   5.308   0.575  11.038  0.1201  0.1090  0.2160
21371W        W37445   6.139   0.393   5.523 -0.0471 -0.1356  0.4406
21372W        W37446  15.247  17.920  13.892  0.1602  0.0229 -0.0047
21373W        W37447   4.592  11.764  12.927  0.1347 -0.1718 -0.0165
21374W        W37448   5.739   6.607   3.187  0.0645 -0.0699 -0.0285
21375W        W37449  13.585   0.425  10.484  0.3928  0.0450  0.0059
21376W        W37450   6.556  14.950   3.168 -0.1066 -0.1197  0.4420
21377W        W37451   4.135  17.219  14.083 -0.0831  0.4973 -0.4475
21378W        W37452  10.670  17.963  14.726 -0.3297  0.0720 -0.2737
21379W        W37453  10.567  10.155  15.917 -0.3623  0.1635  0.3578
21380W        W37454  13.464  13.317   4.064  0.0842 -0.0314  0.0541
21381W        W37455  11.379   4.804  16.024 -0.1285 -0.0865 -0.0567
21382W        W37456   1.642  13.099   2.686  0.0345 -0.0624  0.0748
21383W        W37457  17.372  15.461   6.409  0.0090 -0.2180 -0.1252
21384W        W37458   6.971   0.891   1.672  0.5558 -0.2588 -0.0633
21385W        W37459  18.264   4.283   0.763  0.2479  0.2450  0.0525
21386W        W37460  14.005   4.836  15.517 -0.1376  0.0969 -0.0766
21387W        W37461  13.502  17.105  14.988 -0.0228  0.0158 -0.0427
21388W        W37462  10.151  14.798   2.194 -0.3676  0.4385  0.0415
21389W        W37463   8.447   1.821  13.656 -0.1177 -0.0870  0.1634
21390W        W37464   7.271  16.315  15.640 -0.1119  0.3037 -0.0588
21391W        W37465  13.538   9.825   1.992  0.1954  0.2085  0.0549
21392W        W37466  15.241   2.505  15.008 -0.3160 -0.4093 -0.0856
21393W        W37467   2.423  10.781  13.856 -0.3358  0.1581 -0.2055
21394W        W37468   7.627   3.473  10.211  0.2728 -0.1886 -0.2619
21395W        W37469   8.201   4.954   0.349  0.3130 -0.1720 -0.1409
21396W        W37470   5.541   4.457  12.344 -0.0560 -0.1189 -0.0079
21397W        W37471   0.398  14.831  14.325 -0.0972  0.1565 -0.1652
21398W        W37472   4.727  18.190   2.004  0.1586  0.2611 -0.1697
21399W        W37473   8.584   5.655  13.076 -0.0999 -0.4082  0.1645
21400W        W37474   3.648   3.224  11.783  0.1541  0.2383  0.0973
21401W        W37475   4.484  18.252  13.432 -0.0344 -0.4658 -0.5026
21402W        W37476   3.892   1.890   4.499 -0.1480  0.0616 -0.0266
21403W        W37477  11.896  15.189   0.484 -0.2558  0.0870  0.1117
21404W        W37478   4.336   8.772  15.822 -0.3181 -0.1951 -0.2966
21405W        W37479   8.129   3.438  14.697 -0.1504 -0.2634 -0.0289
21406W        W37480   7.059  12.665   2.477 -0.4078  0.1900 -0.0912
21407W        W37481   4.055   2.982   2.413  0.1291  0.1991  0.0088
21408W        W37482  17.252   7.812  11.845  0.2117  0.3067  0.2486
21409W        W37483   9.292   2.023  12.474 -0.1753 -0.2461 -0.1099
21410W        W37484  17.404  10.335  12.332  0.0922  0.2161 -0.2038
21411W        W37485  11.614  18.001  15.110  0.0220 -0.0334 -0.1043
21412W        W37486   6.578   4.021  13.396  0.4021 -0.2070  0.0151
21413W        W37487  15.592  14.414   3.569 -0.0059 -0.0077 -0.4227
21414W        W37488  12.392  11.939   3.542  0.2670 -0.2599 -0.1114
21415W        W37489   7.628   2.200  11.434  0.0478  0.1141 -0.2556
21416W        W37490   9.205  15.151  12.856  0.2262 -0.4104  0.2684
21417W        W37491  14.112   0.245  12.756  0.0640 -0.1389 -0.0047
21418W        W37492  17.903  13.349   3.004 -0.1235  0.0203 -0.1001
21419W        W37493  14.405  17.346   5.551  0.1844 -0.1983  0.2754
21420W        W37494   5.641  17.302  12.989 -0.4474 -0.0018  0.7386
21421W        W37495   2.031  15.499   2.349  0.1586  0.1917 -0.0180
21422W        W37496   8.036  18.259   5.386  0.0996 -0.0798  0.2527
21423W        W37497   1.960   3.344  11.959  0.2872  0.3073  0.1748
21424W        W37498   4.946   2.636   4.823  0.4568  0.0455  0.0033
21425W        W37499   5.611   8.986  15.588 -0.1595  0.0786 -0.3039
21426W        W37500  18.496   2.394  11.270 -0.1195 -0.1505  0.2639
21427W        W37501   5.210  15.908  11.562  0.1319  0.2458  0.2075
21428W        W37502  11.496   8.170   4.041  0.2984 -0.1934 -0.0200
21429W        W37503  16.486   7.966   3.560  0.1822  0.2067  0.1118
21430W        W37504   4.135  13.075   2.845  0.2324 -0.0411 -0.1209
21431W        W37505  15.711   3.569   4.711  0.0843 -0.1802 -0.0474
21432W        W37506   9.349  12.047   2.612  0.5026  0.0625  0.2939
21433W        W37507   1.481  13.811  12.211 -0.0714 -0.4675  0.0526
21434W        W37508  10.613   1.486  10.489  0.1428  0.2061 -0.1646
21435W        W37509   3.299   7.863   2.776  0.2537 -0.3227 -0.1945
21436W        W37510  17.255   9.957   0.707 -0.3400  0.0995 -0.2985
21437W        W37511  11.155  10.910  12.601 -0.0616 -0.5126  0.4624
21438W        W37512  15.545   9.555   1.381  0.2379  0.1178 -0.1632
21439W        W37513  12.505  13.079   2.534  0.1133 -0.3031 -0.2386
21440W        W37514   7.830   0.889   1.579 -0.0371  0.5663 -0.0671
21441W        W37515   5.054   2.692   3.257 -0.0474  0.0412 -0.3150
21442W        W37516   9.333  10.156   0.959  0.0100  0.0219  0.0172
21443W        W37517  14.001   7.527  13.149  0.0902 -0.1820  0.2327
21444W        W37518   3.420  14.417   2.458 -0.1249 -0.2534  0.3171
21445W        W37519   9.727   8.998  12.219 -0.1053 -0.0160  0.1272
21446W        W37520  11.804  10.554  11.050 -0.1931 -0.1555 -0.3924
21447W        W37521  15.862  12.226   0.972  0.0243 -0.2630 -0.2252
21448W        W37522   2.245   1.319  12.591  0.0091 -0.0459  0.0559
21449W        W37523  14.019   0.772  13.750 -0.1076  0.0269  0.1949
21450W        W37524   9.441   6.875   1.602 -0.4219  0.0278 -0.3253
21451W        W37525  12.708  11.971   2.018  0.0017  0.1335 -0.0277
21452W        W37526   8.792  12.120  14.335  0.1967 -0.1269  0.2600
21453W        W37527  11.774   9.663  15.901 -0.3356  0.3257  0.1415
21454W        W37528   9.594  10.984  14.969 -0.3870  0.0403  0.0575
21455W        W37529  11.649  10.202  12.521  0.0308  0.1194  0.0386
21456W        W37530  13.768   6.669   3.338 -0.3622  0.4045 -0.1308
21457W        W37531   1.965   2.632   4.398  0.2457 -0.0036 -0.3554
21458W        W37532   5.913  12.603  12.493  0.0935 -0.0758 -0.0490
21459W        W37533   9.646  17.032  14.267 -0.3604  0.2877  0.2230
21460W        W37534  16.424  15.271   5.329 -0.0797  0.0561  0.0798
21461W        W37535   9.183   9.236  15.310  0.0914  0.0023  0.1452
21462W        W37536   8.133   9.080  14.860  0.0620  0.0329 -0.1555
21463W        W37537   7.078   2.771  12.133 -0.2705  0.1005 -0.2003
21464W        W37538  16.573   2.104  13.994  0.3203 -0.1983  0.1377
21465W        W37539   6.745  15.020  11.721  0.3570 -0.2367 -0.0629
21466W        W37540   4.462  16.187  15.556  0.0776  0.3714  0.0926
21467W        W37541   0.507  10.723  14.104 -0.0264 -0.2280 -0.2133
21468W        W37542   0.055  15.352   3.722 -0.2367  0.0185 -0.1822
21469W        W37543  15.459  13.545  13.097 -0.1558  0.0596 -0.3321
21470W        W37544   5.000   5.934  14.175 -0.1863  0.2491  0.0326
21471W        W37545  16.863   0.024   1.916 -0.2429 -0.3181 -0.1294
21472W        W37546   4.897  17.713   3.809 -0.0189  0.1842  0.0738
21473W        W37547  16.884   6.444   0.071 -0.0682 -0.0291 -0.0243
21474W        W37548   3.465   6.367  15.002  0.0704 -0.0048 -0.4366
21475W        W37549   6.292   2.823   5.181 -0.1703 -0.1426 -0.0811
21476W        W37550  12.503  11.439  14.643 -0.0642  0.4028 -0.2802
21477W        W37551   9.254  10.873  12.180 -0.1206 -0.0843 -0.6033
21478W        W37552   8.316   5.787   0.953  0.1436  0.0190 -0.2901
21479W        W37553  15.595  18.548  15.925  0.1881  0.2348  0.0097
21480W        W37554  10.093   3.369   4.021 -0.1478  0.2056 -0.4458
21481W        W37555   9.897  10.886  12.103  0.3506 -0.0251  0.0141
21482W        W37556  15.160   5.409   3.913  0.1973  0.0041  0.1246
21483W        W37557  10.510  11.553   3.892 -0.0469  0.1514  0.0155
21484W        W37558  11.321  11.979   5.850 -0.1440  0.1941  0.1322
21485W        W37559   3.660  14.514   0.667 -0.4501 -0.0305  0.0713
21486W        W37560  11.309   4.032  12.373 -0.2155  0.0132  0.0911
21487W        W37561   3.409   5.289  13.255  0.0180  0.0178  0.0626
21488W        W37562   7.743  15.670   3.295  0.2132  0.1187  0.1731
21489W        W37563   4.844   2.911  12.295 -0.2682 -0.4258  0.0651
21490W        W37564  12.530   3.973  12.994 -0.2231 -0.3320 -0.2332
21491W        W37565   3.788   9.336   5.577  0.1239  0.2844  0.2405
21492W        W37566  10.866  12.120  15.502  0.0310 -0.0755  0.1349
21493W        W37567  18.483   6.162   4.714  0.0075 -0.3172 -0.0697
21494W        W37568  18.097   4.167  15.115  0.0587  0.0919  0.0552
21495W        W37569   4.117  12.982  15.815  0.0842  0.0414  0.3443
21496W        W37570  15.364  11.416   4.590 -0.1389 -0.2050  0.2295
21497W        W37571   2.221  15.802   2.694  0.0606 -0.1504  0.1765
21498W        W37572   4.312  12.908   3.668 -0.1059 -0.1564 -0.1188
21499W        W37573   2.231   6.613  14.252 -0.2846 -0.2452  0.1400
21500W        W37574   4.222  17.623  10.757  0.1989 -0.0212  0.0572
21501W        W37575  13.840  17.300  12.522 -0.3491  0.0153  0.0223
21502W        W37576   1.080   3.968   3.194  0.0979  0.1139  0.1119
21503W        W37577  10.384   0.292  13.133 -0.1454 -0.1291 -0.0409
21504W        W37578   8.182   2.713  15.314  0.1029  0.4649  0.1010
21505W        W37579   2.345   5.217  10.256  0.0094 -0.1667  0.2356
21506W        W37580   2.177   4.166  11.800 -0.1927 -0.0141  0.0378
21507W        W37581  16.829   1.914   3.742  0.0150  0.0360 -0.0880
21508W        W37582  16.115  17.408  13.729 -0.1319  0.1171 -0.2045
21509W        W37583   7.962  17.170  10.496 -0.3189  0.0825 -0.0775
21510W        W37584   7.369  11.890   0.869 -0.3231 -0.3242  0.2947
21511W        W37585  10.342  16.606  11.697  0.2416 -0.0899 -0.1545
21512W        W37586  12.404   8.959   3.394 -0.2127  0.1468  0.3725
21513W        W37587  11.804   2.509   2.008  0.2409 -0.0067  0.0438
21514W        W37588  16.510  10.696   2.182 -0.0942  0.5522  0.2630
21515W        W37589   1.751   9.843  11.802  0.1170  0.1126  0.0644
21516W        W37590   8.203   5.854   4.755  0.3876 -0.0002 -0.4104
21517W        W37591   3.554   9.942   0.136 -0.0530 -0.0830 -0.0582
21518W        W37592   9.507  17.607  13.999 -0.2369  0.0205  0.0862
21519W        W37593  13.497  10.422  11.125 -0.0062 -0.0749 -0.1918
21520W        W37594   4.880  18.096   0.147  0.0600 -0.4367 -0.1215
21521W        W37595  13.022  14.532   0.900 -0.0265 -0.0446 -0.1214
21522W        W37596   0.077  18.309   3.234  0.0796  0.2289 -0.1405
21523W        W37597   7.643  18.366   3.464 -0.0851 -0.1176  0.0047
21524W        W37598  18.206  12.259  14.920  0.0490 -0.0228 -0.1415
21525W        W37599  12.642   3.200  11.560  0.0497  0.1650 -0.2224
21526W        W37600   2.836  15.867   4.337 -0.1121 -0.3074 -0.1466
21527W        W37601  14.630  17.967   2.691  0.2143 -0.2647  0.3036
21528W        W37602   2.979   2.248  14.612 -0.3808 -0.4432  0.2165
21529W        W37603  14.835   8.123   4.038 -0.1434  0.1504 -0.2026
21530W        W37604  14.247  11.018   4.697 -0.0076  0.0546  0.0880
21531W        W37605   3.613  10.143   2.597 -0.2266 -0.1684 -0.4004
21532W        W37606   4.866  14.946  13.701  0.0491 -0.0887  0.1584
21533W        W37607   7.731  14.635   1.402  0.0898  0.2177 -0.0430
21534W        W37608   5.669   5.999  12.467  0.2958  0.1392 -0.2159
21535W        W37609   1.824   8.211  12.712  0.3268 -0.1614  0.2345
21536W        W37610  17.789   8.861   3.143 -0.1665  0.3820  0.1979
21537W        W37611   4.776   9.077   5.089  0.2698  0.2201  0.2626
21538W        W37612  10.238  15.274  12.855 -0.0350  0.0142 -0.1915
21539W        W37613  10.689  12.304  12.132 -0.1965  0.1142  0.3235
21540W        W37614   5.136   4.099  11.602 -0.1985 -0.0226  0.0540
21541W        W37615  16.239   4.870  15.394  0.0466 -0.2768 -0.1805
21542W        W37616   5.132   7.834  15.234 -0.0902 -0.2314  0.0574
21543W        W37617  17.779   3.413  13.418 -0.1732 -0.3506  0.2506
21544W        W37618   2.584   0.089   5.149  0.3077  0.0197 -0.1686
21545W        W37619   5.045   1.702  11.892 -0.2257 -0.0119 -0.1271
21546W        W37620   2.614   5.982  13.457  0.0273  0.0314  0.2116
21547W        W37621  11.785  10.073  13.527  0.2556  0.1367  0.0306
21548W        W37622  16.003   7.874  15.388  0.1382  0.1117  0.0076
21549W        W37623  13.060   0.585   4.125 -0.0954  0.4589 -0.0138
21550W        W37624  18.188   0.564   1.112 -0.4381  0.3654  0.3502
21551W        W37625  15.922  13.390  13.842 -0.3309  0.3098  0.0098
21552W        W37626   8.096  18.521  15.011  0.1531 -0.1377 -0.2982
21553W        W37627  10.972  16.025   3.593 -0.1830 -0.0733 -0.0430
21554W        W37628  18.055   5.027  15.127  0.2337 -0.1176 -0.0035
21555W        W37629  17.231   9.853  13.802 -0.1555 -0.2310  0.0180
21556W        W37630   2.472  13.096  13.670 -0.1351  0.0294  0.1717
21557W        W37631  10.995  16.984  11.827  0.3232 -0.0525  0.0546
21558W        W37632   3.108   8.101   2.079  0.0306  0.1053 -0.2729
21559W        W37633   8.156  10.242   3.292  0.0366 -0.2455 -0.1690
21560W        W37634   1.507   1.878   5.029 -0.0476 -0.3332 -0.0440
21561W        W37635   2.334   1.900  13.651  0.0048  0.1180 -0.1736
21562W        W37636  18.066  10.831   5.615  0.0219 -0.0998  0.2520
21563W        W37637   4.785   4.556   1.513 -0.1299 -0.0834  0.2093
21564W        W37638   4.293  12.750  13.481 -0.1619 -0.0652  0.0347
21565W        W37639   1.710  15.661  11.814  0.0342 -0.4904  0.0083
21566W        W37640   7.667   9.399   4.271 -0.2674  0.3546  0.1758
21567W        W37641  13.757   5.719  15.709 -0.1665 -0.4359  0.1656
21568W        W37642  14.203   7.260  15.742 -0.1663  0.1793 -0.0945
21569W        W37643  17.939   9.392   2.124 -0.0609  0.1485  0.0122
21570W        W37644   8.590   3.378   1.782  0.1766 -0.2607  0.2182
21571W        W37645   3.123  17.980   5.926  0.0532 -0.0121  0.0605
21572W        W37646   0.092  18.187   3.765  0.1794  0.0644  0.1201
21573W        W37647   4.422   9.891  11.713 -0.2149  0.0037  0.2812
21574W        W37648  13.631   9.313   0.663 -0.3559  0.0247  0.0773
21575W        W37649  10.519   2.564  11.972 -0.1495  0.0845 -0.0871
21576W        W37650   0.091  13.840   4.233 -0.0767  0.0386  0.1353
21577W        W37651   4.986   1.246  11.763 -0.0800  0.0481 -0.2354
21578W        W37652   0.193  17.462  12.384  0.2411 -0.0027  0.2273
21579W        W37653   7.748   7.612  13.997  0.0527 -0.0600 -0.0716
21580W        W37654  16.580   5.825   5.280 -0.1362  0.0836  0.0034
21581W        W37655  18.258  10.883  14.741 -0.5294  0.3270  0.2187
21582W        W37656   6.154   0.973   3.678  0.0097 -0.0149  0.1536
21583W        W37657  10.702   4.106  14.339 -0.0971  0.0831 -0.1271
21584W        W37658  16.163  12.085   1.745  0.1752 -0.0817  0.0711
21585W        W37659  10.575   3.455   4.762  0.0608  0.2675  0.1771
21586W        W37660  13.568   1.360   3.171  0.2424  0.0822 -0.0553
21587W        W37661   0.609  15.608   3.558  0.1806  0.0206  0.1913
21588W        W37662   0.911  11.233  11.651  0.2948 -0.2669 -0.3369
21589W        W37663   4.778   6.102   1.547 -0.0061 -0.1647 -0.1924
21590W        W37664  17.479   3.571   1.042  0.2723 -0.2318  0.0353
21591W        W37665   5.440  16.254  15.498 -0.0344 -0.2105  0.1234
21592W        W37666  15.860   0.118   3.589 -0.0844 -0.1176 -0.0013
21593W        W37667  10.957  12.209  13.756  0.1728  0.1348 -0.1104
21594W        W37668  18.279   7.457   2.940 -0.1787 -0.0625  0.1566
21595W        W37669   9.036   9.005  14.651  0.1726  0.0431  0.0906
21596W        W37670  16.590   4.980   5.234 -0.1592 -0.0570 -0.0305
21597W        W37671   8.415  13.220  15.649  0.1687 -0.2537 -0.1002
21598W        W37672  17.807   0.932   3.704  0.3064 -0.2739  0.0847
21599W        W37673  12.395   8.361  12.745 -0.2732 -0.0640 -0.2248
21600W        W37674  12.389   2.762   3.831  0.0169  0.1083  0.3331
21601W        W37675   6.836  18.281  12.963  0.0792  0.0249  0.2337
21602W        W37676  12.061  10.139  12.166 -0.2224 -0.0405  0.0377
21603W        W37677   9.317   8.127  12.487  0.0141 -0.1158 -0.1932
21604W        W37678  17.559   1.634   2.402  0.2053 -0.0959  0.0109
21605W        W37679   6.227   0.939  10.951  0.2268  0.0523  0.2007
21606W        W37680   9.920  15.435   4.555 -0.1273 -0.1628  0.1346
21607W        W37681  17.943  13.474   0.293  0.0368 -0.2517  0.2448
21608W        W37682  17.534  16.704   6.199 -0.1265 -0.1505 -0.0092
21609W        W37683  12.140   1.716   0.417  0.0644  0.0165  0.0697
21610W        W37684  11.987   8.140   3.540  0.1178 -0.0607  0.0842
21611W        W37685   2.749   0.225   1.829  0.2274  0.0872 -0.0535
21612W        W37686   0.819  12.051   4.433  0.3689  0.1752  0.1757
21613W        W37687   7.412  14.549  12.311 -0.0292  0.0759 -0.3964
21614W        W37688  15.090   9.551   2.058  0.1380 -0.0028  0.2864
21615W        W37689  18.317   0.132  15.939  0.1739 -0.1281  0.0747
21616W        W37690  16.660   1.856  11.796 -0.2825  0.0183  0.1307
21617W        W37691   7.449  14.453   4.806 -0.1603  0.0295  0.3274
21618W        W37692  12.078   0.865  13.171  0.2460 -0.0886  0.1066
21619W        W37693  13.614   8.336  14.471  0.0433  0.0400 -0.0191
21620W        W37694   7.773  11.237   3.315 -0.0123  0.3192  0.1363
21621W        W37695   9.008   3.056   4.017 -0.1235 -0.1387 -0.3671
21622W        W37696   5.543  15.463  11.473  0.1771  0.0080 -0.2069
21623W        W37697   2.026  15.779  15.455 -0.3930 -0.4621  0.2897
21624W        W37698  11.109   6.158   1.661 -0.0169  0.0677 -0.2550
21625W        W37699   5.469   9.777   3.621 -0.1616  0.1077 -0.2864
21626W        W37700   7.020  12.549  14.328  0.1414  0.2532 -0.2133
21627W        W37701   3.956   1.082   3.642 -0.1597 -0.2521  0.0012
21628W        W37702  14.612   9.827  14.861  0.0977 -0.0277 -0.1119
21629W        W37703   6.356  11.874  13.237  0.0799 -0.3529  0.0267
21630W        W37704  16.502   6.269   2.380 -0.0378  0.0845 -0.1207
21631W        W37705   4.274  13.335  14.895 -0.1387 -0.3274 -0.0966
21632W        W37706   6.628  14.722  14.024 -0.3719 -0.0220  0.4012
21633W        W37707   2.201   0.052  12.521  0.0362 -0.0597 -0.0894
21634W        W37708  13.670   0.770   0.447 -0.1854  0.0097  0.0221
21635W        W37709  15.456   9.159   5.802  0.0415  0.0518 -0.2379
21636W        W37710   9.413   4.253   0.057  0.3428  0.0761  0.0338
21637W        W37711   6.459   4.344   4.574  0.0122 -0.0886 -0.2043
21638W        W37712  12.845  18.101   0.861 -0.0956  0.0995 -0.1873
21639W        W37713   2.037   2.812  14.701 -0.1273  0.3307  0.0028
21640W        W37714   1.140  13.584   0.026  0.4195  0.0564  0.3131
21641W        W37715   7.740  13.389  13.713 -0.2099 -0.1364  0.2903
21642W        W37716  15.197  15.678   1.341 -0.0524  0.0339 -0.2639
21643W        W37717   7.642  18.059   5.009  0.1784  0.2090  0.2098
21644W        W37718  13.339  13.906  14.458 -0.0357  0.6124 -0.2134
21645W        W37719   2.974   8.974  13.481 -0.1602  0.0941 -0.0346
21646W        W37720  10.089   8.934   1.407  0.3170 -0.1568 -0.0971
21647W        W37721  15.398   3.041  11.881 -0.0090 -0.2527 -0.2918
21648W        W37722   1.411   2.658   0.651 -0.0688  0.0956 -0.0850
21649W        W37723   2.949  16.766   0.356  0.1051  0.3987  0.5192
21650W        W37724   5.153  14.998   1.598  0.1585  0.1228  0.0777
21651W        W37725  10.159  10.894  14.885 -0.0175  0.0717 -0.2053
21652W        W37726   8.048  14.329   2.062  0.0948  0.1387 -0.0342
21653W        W37727   8.701  12.076   5.755  0.0573  0.1828  0.3622
21654W        W37728   9.683  10.491   1.165 -0.1108 -0.0384  0.1501
21655W        W37729   0.722   9.542   5.464 -0.0090  0.4410  0.0214
21656W        W37730   7.117   0.529   0.948 -0.2325  0.1112  0.2272
21657W        W37731  10.548  16.542  12.459 -0.2176  0.0907  0.0842
21658W        W37732   3.468   6.818   5.638  0.0541 -0.0301  0.1286
21659W        W37733   8.155   4.480   0.101 -0.0307 -0.2135 -0.1472
21660W        W37734   9.473   7.793  14.938 -0.0854  0.1341  0.1909
21661W        W37735  14.638   6.604   1.910  0.2120  0.0433 -0.4393
21662W        W37736  16.283  11.829   5.221  0.2586 -0.0631  0.0741
21663W        W37737   5.704  14.835  15.174  0.2050  0.1048  0.0823
21664W        W37738  16.594   5.648  15.628  0.0843  0.2386 -0.0022
21665W        W37739  14.534   7.354  12.258  0.1139 -0.0628 -0.2245
21666W        W37740   0.589   5.692   0.625 -0.2769  0.0965  0.2778
21667W        W37741   1.347   8.017  12.027  0.1772  0.3353 -0.2102
21668W        W37742   5.362   0.266  15.976  0.0368  0.1847 -0.4542
21669W        W37743   2.706  12.062   1.778  0.1221  0.0228  0.2132
21670W        W37744   9.288  14.601   3.006 -0.1472  0.0275  0.1599
21671W        W37745   9.862   9.516  12.504  0.0499  0.1269 -0.1217
21672W        W37746   7.477   3.328   2.678 -0.1670  0.0659 -0.1059
21673W        W37747   1.072  11.983  13.185 -0.1735 -0.1876  0.1089
21674W        W37748   4.548  11.332  13.272  0.0362  0.1631  0.1690
21675W        W37749   1.084  12.462  12.643 -0.1537  0.0997 -0.0578
21676W        W37750   2.641   5.798  12.851 -0.0282 -0.3355  0.2516
21677W        W37751  14.284  15.674  11.324 -0.0606  0.0338 -0.0931
21678W        W37752  15.225   7.936  12.589 -0.0543 -0.2049 -0.2129
21679W        W37753   0.342  10.827  12.646  0.0179 -0.1797  0.1067
21680W        W37754   0.805   3.824  14.851 -0.3184 -0.2029  0.0799
21681W        W37755  14.174   2.297   3.190 -0.1298 -0.0353  0.0363
21682W        W37756   3.898   5.849  12.755  0.1589  0.3704 -0.2325
21683W        W37757  10.496  18.365   2.175  0.1007 -0.0362  0.1368
21684W        W37758  15.469   8.715  11.302  0.1485 -0.1478  0.0938
21685W        W37759   5.728   6.186   2.811 -0.3608 -0.0863 -0.1825
21686W        W37760   6.800  11.985  13.547  0.0009  0.0865 -0.0261
21687W        W37761  17.664   9.124   1.312  0.0358  0.0797 -0.2444
21688W        W37762  12.069  16.549  11.323  0.0951 -0.1214 -0.0740
21689W        W37763  15.779   9.452  10.968  0.2447  0.0786  0.2935
21690W        W37764  15.930  14.173   3.807 -0.0478 -0.0888 -0.0082
21691W        W37765   2.012  12.245   5.116  0.0378 -0.0403 -0.0612
21692W        W37766  15.106   3.862  15.485 -0.2855  0.1998 -0.1856
21693W        W37767  15.233  15.602  15.976  0.2343  0.5320  0.0003
21694W        W37768   8.867   9.923   0.314  0.1233 -0.1846  0.3072
21695W        W37769   2.103   7.582  12.615 -0.0152  0.0239  0.1528
21696W        W37770  10.998   3.321  12.897 -0.2032  0.1042  0.0817
21697W        W37771   7.875   2.675   5.668 -0.1770 -0.0840 -0.2508
21698W        W37772   0.886  10.441   0.298  0.3059  0.2658  0.1496
21699W        W37773   1.296   5.882   5.629  0.1107 -0.1634 -0.2262
21700W        W37774  13.985  11.760  14.412  0.1735 -0.0773 -0.0368
21701W        W37775  16.099   2.321   0.356  0.0475 -0.0002 -0.3546
21702W        W37776  10.775   0.014  15.744  0.1871 -0.0057 -0.0152
21703W        W37777  18.345   9.119   0.200  0.0925  0.1376 -0.0532
21704W        W37778   7.333   6.958   0.878  0.1030  0.1295  0.3301
21705W        W37779  10.742  16.955  13.456  0.2458  0.1341 -0.2492
21706W        W37780   0.883  15.160  11.406  0.1613 -0.1194 -0.0978
21707W        W37781   9.270   9.829  11.740 -0.1227 -0.0918  0.0581
21708W        W37782   0.069  12.595   5.519  0.0346  0.5298 -0.1467
21709W        W37783   9.465  11.507   6.322 -0.2591  0.0235  0.2678
21710W        W37784   5.871   3.308  11.373  0.2028  0.0341 -0.1860
21711W        W37785  15.218   3.822   4.805  0.0047  0.2271 -0.0936
21712W        W37786  14.206  13.552  14.816 -0.2838  0.1589 -0.1046
21713W        W37787  14.528   2.307  13.494 -0.0344  0.1067  0.1025
21714W        W37788  13.517  11.321  14.420  0.3456 -0.3651 -0.1892
21715W        W37789   5.404   1.289  13.427  0.1420 -0.1578 -0.0355
21716W        W37790  13.532   2.307  13.087  0.0283 -0.0389 -0.2129
21717W        W37791   0.717  12.316   2.929  0.3826 -0.1270  0.1617
21718W        W37792   1.335   5.971   1.694  0.4039  0.1033 -0.2836
21719W        W37793   4.115  10.002  14.519 -0.0844  0.0612  0.0485
21720W        W37794  13.027   1.549  14.979 -0.1080  0.0111  0.1148
21721W        W37795   1.489   3.428  15.373  0.0974 -0.0694  0.0112
21722W        W37796  10.302   2.977  13.816  0.1823 -0.0733  0.0415
21723W        W37797   0.796   3.550   5.120 -0.2513  0.0166  0.3288
21724W        W37798   8.249   1.875  12.913  0.0125  0.0756  0.1698
21725W        W37799   8.753   1.679  12.820  0.1130  0.1876  0.2001
21726W        W37800  15.997  17.730  14.311 -0.2014 -0.0748  0.0998
21727W        W37801  11.644  16.858   3.265  0.2061 -0.4848  0.3246
21728W        W37802   3.935   4.623  12.110  0.4054 -0.1481  0.2439
21729W        W37803  15.385   8.258   0.362  0.1631 -0.1380 -0.0355
21730W        W37804  16.647  12.281  15.150 -0.1774 -0.0299  0.0549
21731W        W37805  13.359  11.475   0.567  0.1123 -0.3159  0.4451
21732W        W37806   5.379  13.642  13.185 -0.0763  0.2550  0.1117
21733W        W37807   8.873   5.557  13.495 -0.1377 -0.1149 -0.0248
21734W        W37808  17.391  15.252  14.658 -0.4459  0.1875  0.3241
21735W        W37809  18.536  15.203   2.830  0.0399 -0.0470 -0.1261
21736W        W37810  14.120   4.254   4.343 -0.1510 -0.1245 -0.0881
21737W        W37811   8.132   4.547  14.675  0.1391 -0.0071  0.1389
21738W        W37812  17.480  13.278  10.343  0.0034  0.0878  0.2879
21739W        W37813   6.350   9.311  14.113  0.0555 -0.2600  0.0599
21740W        W37814   3.869   2.224  15.053  0.2362 -0.1347 -0.1742
21741W        W37815  18.380   8.438   2.103  0.1044  0.0201 -0.1065
21742W        W37816  13.020   6.059  13.330  0.0024  0.0042 -0.2213
21743W        W37817  17.402  16.329   3.092  0.0936 -0.2984  0.3300
21744W        W37818   1.014   1.072   2.197 -0.1476 -0.0898  0.1510
21745W        W37819   9.306   9.979  13.242  0.1118 -0.2099 -0.2472
21746W        W37820  14.476  18.427  15.447  0.2405  0.1726 -0.1047
21747W        W37821  13.697  12.607  11.664 -0.0022 -0.4766 -0.2096
21748W        W37822  15.349   8.812  14.360  0.1876  0.4133  0.2855
21749W        W37823  10.756  14.313   5.581  0.2167 -0.0210 -0.1120
21750W        W37824   4.292   7.789  15.423  0.2288  0.0806 -0.0299
21751W        W37825   0.651  17.137   3.157  0.0494  0.1595 -0.2272
21752W        W37826  12.808   2.635   1.509  0.1842 -0.0581  0.0822
21753W        W37827  10.114  11.045   3.066  0.1959  0.0092 -0.2313
21754W        W37828   3.375   2.815  15.305 -0.1202 -0.1853 -0.2527
21755W        W37829  16.311   3.367   1.132 -0.1142 -0.0595  0.0835
21756W        W37830   0.182   5.430   3.949 -0.2355  0.3981 -0.1241
21757W        W37831   2.652  10.718  13.394  0.0993 -0.0940 -0.0051
21758W        W37832  10.997  15.487  15.461 -0.1228  0.1332  0.1907
21759W        W37833  10.819  13.152   0.707  0.0214 -0.3926  0.1316
21760W        W37834  17.341   0.898   3.361  0.1177 -0.2897 -0.1479
21761W        W37835  16.651   7.556   5.126  0.1503  0.0080  0.2776
21762W        W37836  15.708   4.632   6.072 -0.0012  0.0150 -0.0901
21763W        W37837   4.674  17.984   5.498  0.3342 -0.0373 -0.0448
21764W        W37838   6.757   3.380  15.859  0.1950  0.0137  0.2432
21765W        W37839  16.303   6.095  13.445 -0.1076  0.1138 -0.0925
21766W        W37840  12.839   1.864  15.339 -0.1115 -0.0174  0.1497
21767W        W37841  10.514  15.508  14.733  0.2678  0.2605  0.0350
21768W        W37842   1.187   3.523   2.748 -0.0094  0.3899  0.0237
21769W        W37843  13.542   2.229   2.881 -0.1230 -0.0133  0.0704
21770W        W37844   4.766  17.047   5.001 -0.2013  0.0659  0.0285
21771W        W37845   2.080   4.519   5.729 -0.0300 -0.2954  0.0239
21772W        W37846  12.841   6.802  11.561  0.2852 -0.0943  0.2086
21773W        W37847   5.652   5.634  12.102 -0.3945 -0.1962  0.2990
21774W        W37848  11.591  12.529   3.655 -0.1819 -0.1517 -0.0918
21775W        W37849   1.463  10.192  12.604 -0.0958  0.1094  0.0308
21776W        W37850   9.228   2.928  15.568  0.3198 -0.1230  0.3623
21777W        W37851  13.231  10.254  15.207  0.1278 -0.0813  0.0649
21778W        W37852  16.553  14.880  11.257  0.2827 -0.4212 -0.3053
21779W        W37853   7.678  16.193   5.545  0.1456 -0.1662 -0.1413
21780W        W37854  11.413   7.196   4.822  0.1672 -0.0180  0.1127
21781W        W37855   5.260  17.248   1.214  0.2121 -0.2671 -0.0249
21782W        W37856   0.606   6.448  15.583  0.1330 -0.1341  0.1695
21783W        W37857  16.664   0.850   0.358 -0.1092  0.1035 -0.2423
21784W        W37858   5.618   4.193   1.394 -0.2717 -0.1599 -0.1241
21785W        W37859  12.119   1.438  14.607 -0.1567 -0.0132 -0.0217
21786W        W37860   0.498   2.026  15.035  0.0601  0.2393  0.1911
21787W        W37861  10.505  15.384  14.026 -0.1693 -0.2323 -0.1031
21788W        W37862  17.564  11.325   4.952 -0.5067 -0.2651  0.1163
21789W        W37863   1.335   3.027   3.986  0.1140  0.1546 -0.0968
21790W        W37864  14.056   8.429   3.179  0.3654  0.1132  0.0627
21791W        W37865  17.996   7.608  13.902 -0.2784 -0.0402 -0.1547
21792W        W37866   0.695   0.438  15.993  0.0485 -0.1122 -0.2486
21793W        W37867  16.382  13.704   5.843  0.0573 -0.0467  0.0701
21794W        W37868   2.196   8.101   3.993 -0.1777  0.1738 -0.0608
21795W        W37869  12.243  15.204  10.932  0.0527  0.1502  0.2320
21796W        W37870   9.997  12.367   1.990 -0.4430 -0.1200  0.1751
21797W        W37871  16.513   9.868  15.734  0.2223  0.1586 -0.1745
21798W        W37872  14.385   0.618  10.787  0.1532 -0.1933  0.2142
21799W        W37873  16.515   8.681   2.914  0.0604  0.2257 -0.2226
21800W        W37874   4.723   1.355  12.200 -0.0027 -0.0077  0.1636
21801W        W37875   4.486  17.419   2.336 -0.0049 -0.0317  0.1584
21802W        W37876  11.455   5.168  12.520  0.2479  0.1652  0.2464
21803W        W37877   6.454  12.880  11.563  0.0003 -0.0554 -0.0136
21804W        W37878  15.017   3.937  16.001  0.0511  0.1162  0.0324
21805W        W37879   1.338  15.791   3.438 -0.2011  0.0077 -0.0464
21806W        W37880   0.903  10.494  14.875  0.2010 -0.0240  0.0504
21807W        W37881  18.387  14.327   3.874 -0.2901 -0.0046 -0.0342
21808W        W37882  11.594   5.157   4.863  0.1428 -0.3037 -0.1154
21809W        W37883   3.549   1.001   2.607 -0.0712  0.1200 -0.3950
21810W        W37884  11.507   8.740  16.007  0.2572 -0.1791  0.2832
21811W        W37885  13.239   6.338  12.984 -0.1415  0.0664 -0.1889
21812W        W37886  17.924   9.077  15.323  0.2730 -0.0933  0.0325
21813W        W37887   5.000   8.360  15.126  0.2232  0.1198  0.1513
21814W        W37888  17.943  10.430   0.630  0.2888 -0.0906  0.2138
21815W        W37889  16.190   3.348   5.577 -0.2461 -0.1768  0.4017
21816W        W37890   3.616  11.373  11.871  0.0195 -0.1551 -0.0093
21817W        W37891   4.270   1.728   2.715 -0.1285  0.3582 -0.1782
21818W        W37892  13.663   7.393   3.767 -0.2403  0.2272 -0.3317
21819W        W37893   6.960  11.663  10.480 -0.0219  0.1187 -0.2750
21820W        W37894   9.787   6.662   0.277  0.0429  0.1181  0.0789
21821W        W37895  13.076   1.952   0.289  0.2327  0.0959  0.3447
21822W        W37896   4.480  16.231  13.715 -0.1772 -0.1902  0.1664
21823W        W37897  18.046  12.136  13.099  0.0434 -0.2900 -0.1680
21824W        W37898  16.656  15.637  15.373  0.2339 -0.0673  0.0646
21825W        W37899  16.724  16.024  14.181 -0.0636 -0.0940 -0.0126
21826W        W37900   5.419   4.529  13.982 -0.1314 -0.0991  0.1205
21827W        W37901   6.219   4.496  14.603  0.3612  0.0264 -0.0413
21828W        W37902  10.625  14.579  11.703 -0.1118 -0.0140  0.0778
21829W        W37903   1.101   6.385  15.950  0.0968 -0.0278 -0.0432
21830W        W37904   7.421   1.013   4.726 -0.1449  0.0260 -0.3927
21831W        W37905   7.920   3.538  15.572 -0.2770  0.2797 -0.1216
21832W        W37906  12.830  14.262   2.725 -0.1377 -0.0026 -0.1327
21833W        W37907  11.418   3.667  11.513  0.1472 -0.0331 -0.3790
21834W        W37908  11.408  15.581   1.658 -0.0780  0.0236 -0.2587
21835W        W37909  12.357   7.555  14.601 -0.0946 -0.0729  0.1227
21836W        W37910  14.990   3.777  12.476 -0.1847  0.0226  0.0334
21837W        W37911   3.441   5.960   4.563  0.0323  0.2903 -0.0560
21838W        W37912   3.009  15.374   4.168 -0.0730  0.0482 -0.2199
21839W        W37913   0.326   3.863  14.925  0.2165 -0.1631 -0.0767
21840W        W37914  14.070   0.708   5.350  0.0863 -0.2103 -0.0175
21841W        W37915   4.071  12.456   1.535  0.1562  0.0849 -0.0280
21842W        W37916  10.236  17.927   2.406  0.1010  0.1073 -0.0787
21843W        W37917  16.501   8.544   5.585  0.2567  0.0268 -0.1063
21844W        W37918   0.876  14.470   1.923  0.4541 -0.1177  0.1780
21845W        W37919   8.509   2.365  13.590  0.1298  0.1685 -0.0125
21846W        W37920   2.242   9.554  13.234 -0.0455  0.0569 -0.0470
21847W        W37921   3.899   0.137  12.609  0.0302 -0.0691  0.0500
21848W        W37922  16.066   2.847  13.039  0.0904 -0.1180 -0.1759
21849W        W37923  16.215  13.730   0.947  0.4805  0.3287 -0.4330
21850W        W37924  13.293   9.353  13.551 -0.1550 -0.1190  0.2422
21851W        W37925   7.902   4.892   5.145  0.1287  0.1808 -0.5128
21852W        W37926  15.891  10.663  13.693 -0.1559  0.0593 -0.5717
21853W        W37927  14.883   6.711  15.941 -0.0763  0.2965  0.3688
21854W        W37928   5.893  14.231   4.525  0.1558  0.0274 -0.0134
21855W        W37929   8.053   8.410   3.745  0.3563  0.1217 -0.0361
21856W        W37930  15.705  12.260  15.090  0.0180 -0.1083  0.0182
21857W        W37931   1.354   0.485  12.652  0.0502 -0.1291 -0.1026
21858W        W37932   2.711   4.233  11.786 -0.1358 -0.1554  0.2606
21859W        W37933  13.319   5.689   3.853 -0.0270 -0.0466 -0.1063
21860W        W37934  14.570   6.864   0.848  0.1369 -0.0432 -0.0504
21861W        W37935  10.873  13.281  15.219 -0.2433  0.1138  0.1019
21862W        W37936   9.425   7.504   1.523  0.0742  0.0144 -0.0158
21863W        W37937  10.693   3.593  14.180  0.1543 -0.0104 -0.3534
21864W        W37938   1.520   0.163   2.017  0.2943 -0.0502 -0.2394
21865W        W37939  15.165   4.803  15.886 -0.0592 -0.0694  0.4415
21866W        W37940   7.094   3.861   1.059  0.0324 -0.0862  0.1853
21867W        W37941   8.890   0.054   4.431  0.3197 -0.3671  0.2840
21868W        W37942  14.733  13.067  12.878  0.2197  0.2145 -0.1645
21869W        W37943   5.762  11.166  14.322  0.4275  0.1985  0.0358
21870W        W37944   6.709  11.731   5.585 -0.2462  0.0184  0.2584
21871W        W37945   6.769   5.403  13.241 -0.1493  0.4673  0.2595
21872W        W37946   2.450   2.651  13.366  0.5736  0.1269 -0.1264
21873W        W37947   6.138  13.502   2.339  0.1190  0.2389  0.0421
21874W        W37948  14.051  18.021  11.608  0.0429 -0.2042 -0.2019
21875W        W37949   6.861  16.693  11.165  0.1806 -0.1618  0.1431
21876W        W37950   8.928   8.846  11.667 -0.3046  0.1528  0.0740
21877W        W37951   8.517  14.030   4.077  0.0670 -0.4715 -0.1968
21878W        W37952  15.395  16.349   4.462  0.1058 -0.1885 -0.3791
21879W        W37953   3.674   9.177   0.685 -0.1774 -0.0245  0.1039
21880W        W37954  12.508   3.842   5.074  0.4070  0.0968 -0.0677
21881W        W37955  15.082   4.208   2.175  0.1328 -0.2087 -0.0473
21882W        W37956  14.332  18.422  12.985 -0.4616 -0.1184  0.0606
21883W        W37957  17.607  16.207  11.614  0.0407  0.0278  0.0986
21884W        W37958  12.137  11.696   4.579 -0.2161  0.1922  0.0733
21885W        W37959  15.459   9.536   3.967  0.2050  0.2814 -0.1154
21886W        W37960  12.239   9.642   2.723  0.0757  0.1018  0.2531
21887W        W37961  10.470   0.213  10.958 -0.2184  0.0461  0.0450
21888W        W37962  15.249  13.654   5.012 -0.0559  0.1813  0.1571
21889W        W37963   3.658   4.867  14.734 -0.3630  0.2195  0.2570
21890W        W37964   3.378   6.823   0.915  0.1097  0.1428 -0.1533
21891W        W37965  17.155   4.050  14.054 -0.0814  0.0736 -0.2695
21892W        W37966  13.862  11.313   0.547  0.0989  0.3982  0.2768
21893W        W37967  15.718   6.351   5.540 -0.1142  0.0515 -0.1432
21894W        W37968   7.840   1.630   3.322  0.1470  0.0785  0.0313
21895W        W37969   7.434   6.038   4.807 -0.1581 -0.2519 -0.0219
21896W        W37970   9.485   5.541  14.538  0.2975 -0.2129 -0.0858
21897W        W37971   6.135   7.637  11.428 -0.0839 -0.0253 -0.1597
21898W        W37972  18.193  15.585   3.639  0.4029 -0.2231  0.0650
21899W        W37973  14.613  11.707  13.377 -0.2662  0.0421  0.2648
21900W        W37974   4.595   4.125  13.627  0.1708 -0.2279 -0.0888
21901W        W37975  14.179   8.388  14.730 -0.1163 -0.0002 -0.0502
21902W        W37976   0.042   4.786   2.362 -0.2347  0.1953  0.3378
21903W        W37977   7.438   3.816  11.354 -0.2285 -0.0032 -0.0980
21904W        W37978   6.122   1.453   0.552  0.2025 -0.0144 -0.3239
21905W        W37979   9.039  11.940   2.268  0.0622  0.0261 -0.0975
21906W        W37980  16.379   0.310  14.108 -0.2298 -0.0709 -0.4409
21907W        W37981   8.522  18.550   2.691  0.3925  0.3069  0.0233
21908W        W37982   7.896   5.779   2.882 -0.2568  0.1036  0.2120
21909W        W37983  17.633  11.750   4.231 -0.0691 -0.2436  0.0470
21910W        W37984   9.214   7.010  13.360  0.0387  0.3991  0.1972
21911W        W37985  12.187  16.025   1.474 -0.0560  0.1076 -0.1191
21912W        W37986   3.528   3.600   4.354 -0.0903  0.0566 -0.1541
21913W        W37987  17.857  14.000  11.479 -0.0428 -0.2141 -0.2074
21914W        W37988   7.129   0.531  13.388 -0.1516 -0.0740  0.0091
21915W        W37989  14.810  14.239   1.031  0.0831 -0.0861 -0.0751
21916W        W37990   4.597  13.504  10.917 -0.1251  0.1054 -0.0862
21917W        W37991   3.865  17.905  10.925  0.1321 -0.0256 -0.0960
21918W        W37992  16.337  14.150  12.982 -0.0600 -0.1723 -0.0683
21919W        W37993  10.727   5.433   2.632 -0.2168 -0.1845  0.1807
21920W        W37994  11.647   9.785   3.065  0.1308  0.1088 -0.0755
21921W        W37995   0.813   6.981  12.781  0.1833 -0.1358  0.0966
21922W        W37996  16.301  10.959   1.623  0.3237 -0.0787  0.1304
21923W        W37997   8.932   2.783   5.220 -0.1009  0.0635 -0.0823
21924W        W37998  14.654  14.302   3.394  0.2883 -0.2444  0.1177
21925W        W37999  13.701  18.325   3.866  0.0627  0.0578  0.0252
21926W        W38000  15.905   9.917   2.846  0.2985 -0.1141 -0.0183
21927W        W38001   3.490  16.616  13.739 -0.2414 -0.1224  0.0359
21928W        W38002  10.924  11.053  15.682 -0.2632 -0.0052  0.1973
21929W        W38003  17.968  16.171   1.298 -0.0610  0.3871  0.0378
21930W        W38004  11.637   6.195   0.136  0.0338  0.4942  0.0740
21931W        W38005  18.094  13.664   1.175 -0.1091  0.1915 -0.2489
21932W        W38006   9.851  17.321   1.480  0.0441 -0.0066 -0.1052
21933W        W38007  13.248  15.909   5.149 -0.2295 -0.1508 -0.3441
21934W        W38008   0.144   0.588   0.958 -0.3841 -0.0862  0.0394
21935W        W38009   4.558   0.405  12.011 -0.0304  0.2879 -0.2364
21936W        W38010   6.877  11.126   3.214 -0.1003 -0.0598 -0.2864
21937W        W38011  15.320  12.466   5.407 -0.1069 -0.1127 -0.0841
21938W        W38012   7.906   0.755  13.957 -0.2584  0.1424  0.1922
21939W        W38013   6.707  11.262  12.481 -0.2838  0.0299  0.0779
21940W        W38014  11.646  15.104   4.002  0.3249  0.2154 -0.1304
21941W        W38015  10.160  12.281  14.348 -0.2226 -0.0745 -0.0501
21942W        W38016  12.530  18.489   5.210  0.2123 -0.0678  0.1209
21943W        W38017  12.087   9.216   5.477 -0.3534 -0.0439 -0.0390
21944W        W38018  14.192  16.552  14.593 -0.2317  0.0535  0.0711
21945W        W38019   1.227   6.796   4.730 -0.1801 -0.0133 -0.1705
21946W        W38020   2.479   8.059  14.091 -0.0648  0.1438  0.0006
21947W        W38021  10.536  15.167   4.679  0.0797  0.0888 -0.2245
21948W        W38022  15.636  14.883  11.414 -0.1865 -0.2774  0.2906
21949W        W38023   5.463  13.325  13.782 -0.2180  0.1594  0.1577
21950W        W38024  17.504  17.203  15.389 -0.1313 -0.2779 -0.0868
21951W        W38025  17.862  16.496  11.926 -0.1312  0.0749 -0.2014
21952W        W38026  14.632  11.935   3.362 -0.0066 -0.1793 -0.0667
21953W        W38027  12.787   9.430  12.266 -0.0773  0.0488  0.1563
21954W        W38028   9.404   4.495   4.168  0.1142 -0.0964  0.2250
21955W        W38029  11.964   9.686   5.563 -0.1129 -0.1469  0.2881
21956W        W38030  11.768  10.755   3.752  0.1393  0.0656 -0.0001
21957W        W38031   5.851   0.651  10.811 -0.3763 -0.0063 -0.1293
21958W        W38032  10.427   6.258   4.144 -0.0651 -0.0129 -0.0080
21959W        W38033   8.080   6.824   1.166 -0.3015  0.0871 -0.1098
21960W        W38034   7.126   8.246   3.256 -0.2088 -0.0907  0.2511
21961W        W38035  13.239  14.928   4.752 -0.0531 -0.1550  0.1248
21962W        W38036  16.770  16.226   2.654  0.2629 -0.1960 -0.0848
21963W        W38037  17.956  14.037  12.520 -0.2275  0.2582  0.1256
21964W        W38038  14.220  16.202   4.056 -0.1155 -0.0245  0.0075
21965W        W38039   1.884  14.588  15.644 -0.1878  0.3916 -0.1302
21966W        W38040   1.932  14.095  12.869  0.0056 -0.0888  0.2653
21967W        W38041  15.931  15.102   0.885 -0.1282  0.3374 -0.1808
21968W        W38042  13.503  11.841  15.223 -0.0700  0.4960 -0.1352
21969W        W38043   9.756  17.005   4.733 -0.1178 -0.1885  0.0627
21970W        W38044   5.456  11.275  12.104 -0.0514 -0.0549  0.0233
21971W        W38045   4.981   9.188  13.133  0.3386 -0.0533 -0.1695
21972W        W38046  11.527  16.410  12.228  0.1342 -0.0533  0.0022
21973W        W38047  14.851   8.521  10.941 -0.1790  0.1933 -0.0346
21974W        W38048  12.356  12.862   5.697 -0.1557  0.0959 -0.1341
21975W        W38049  15.042  13.910   5.447 -0.2036 -0.0238  0.2778
21976W        W38050   7.247  10.833  13.641 -0.3335 -0.3902 -0.0193
21977W        W38051   5.778   3.629   5.748  0.0579  0.2038  0.0550
21978W        W38052   3.491   1.519   9.928 -0.2313 -0.1129 -0.0008
21979W        W38053  18.225  13.618   0.708  0.2133 -0.1880  0.0325
21980W        W38054   6.423   3.875   4.468  0.0737 -0.2443  0.0034
21981W        W38055  15.209  10.121  11.560  0.2574 -0.0730 -0.2211
21982W        W38056  13.140  17.438   1.036  0.1693 -0.0398 -0.2943
21983W        W38057  16.815  11.361  13.446 -0.2414 -0.0730  0.0526
21984W        W38058   5.000  15.585   1.433 -0.0241  0.2409 -0.1159
21985W        W38059  15.077  17.791   1.983  0.0140 -0.0757 -0.0471
21986W        W38060  15.045  10.244  13.892  0.1811 -0.1408  0.0967
21987W        W38061  15.482  16.412   3.691 -0.0943  0.0478  0.0656
21988W        W38062  17.438   1.965  12.364 -0.1237 -0.2213  0.0252
21989W        W38063  10.500  16.365   3.611  0.1331 -0.2750 -0.0314
21990W        W38064   4.874   8.178   5.220  0.1547  0.2176 -0.0439
21991W        W38065  16.653  17.915  14.827 -0.2129  0.0699 -0.3219
21992W        W38066   2.327  12.419   4.076  0.2098 -0.2058  0.1540
21993W        W38067  14.856   8.457   3.664  0.3602 -0.2246 -0.1624
21994W        W38068  12.805  16.672  13.785  0.3295  0.1345  0.2421
21995W        W38069   3.467  13.385  11.948 -0.2488  0.1848  0.1124
21996W        W38070  12.860  13.445   4.685 -0.1889  0.1363 -0.3485
21997W        W38071   6.287   1.476   1.860 -0.1561 -0.2356 -0.3010
21998W        W38072  11.147  15.065   5.328 -0.0218 -0.3050 -0.0376
21999W        W38073   0.967   0.476  15.023 -0.1888  0.0305  0.2528
22000W        W38074  16.618   1.260  14.375 -0.1383 -0.0456  0.2979
22001W        W38075  12.517   4.412   5.450 -0.0652 -0.1850 -0.0700
22002W        W38076   8.501   4.680  12.925  0.0302  0.1901 -0.3128
22003W        W38077  16.915  12.199   1.602 -0.1339  0.2079 -0.2217
22004W        W38078  10.225   4.567  15.235 -0.4945  0.1130 -0.1442
22005W        W38079   2.647  16.318   1.787 -0.1913 -0.0270  0.0820
22006W        W38080   6.885   6.136   1.349  0.0785  0.0524 -0.0184
22007W        W38081   2.646   2.410   4.148  0.1167  0.0159 -0.2086
22008W        W38082   4.667   8.430   1.667 -0.0652  0.0849 -0.1985
22009W        W38083   7.247   0.017   0.131 -0.3751  0.2273 -0.1788
22010W        W38084   5.039   7.295  14.928 -0.3103  0.1032 -0.1893
22011W        W38085   2.384   7.983   2.544 -0.1562 -0.4283  0.0678
22012W        W38086  10.462  11.310  14.717 -0.1316  0.0524 -0.0505
22013W        W38087  17.542   9.245   2.510  0.0305 -0.0393  0.0727
22014W        W38088   2.553  13.466  14.704  0.1694  0.3468 -0.0325
22015W        W38089   2.128  15.620  14.970  0.1090  0.3505 -0.0277
22016W        W38090   6.680   2.915   0.096  0.0344 -0.2383 -0.2828
22017W        W38091   3.371   3.641   1.960 -0.1769  0.1182  0.0105
22018W        W38092  15.506   9.652  11.947  0.1771 -0.1095  0.0186
22019W        W38093  13.402  10.480  12.932  0.0358 -0.0723  0.3596
22020W        W38094  18.509   4.121   9.963 -0.1205  0.0358 -0.1051
22021W        W38095   6.736  13.985  15.897  0.1614  0.0770  0.2215
22022W        W38096   2.539  11.713   5.735  0.1449  0.1895  0.4277
22023W        W38097  16.557  10.821   3.515 -0.1579 -0.3511  0.0781
22024W        W38098  18.498   1.704  11.771  0.1796  0.3062 -0.1468
22025W        W38099   0.979   2.500  14.170  0.0593 -0.1547 -0.2769
22026W        W38100   4.883   3.221  13.490 -0.1472  0.3482  0.1121
22027W        W38101   0.555   4.734   0.452  0.2620  0.0963 -0.1694
22028W        W38102  16.703  12.054   4.581 -0.0762 -0.2556 -0.3384
22029W        W38103   8.124   5.646  13.262 -0.3557  0.2115 -0.1220
22030W        W38104  16.433  13.871   0.503  0.0072 -0.0375  0.0189
22031W        W38105   0.520   3.503   1.068 -0.0934 -0.0565 -0.3630
22032W        W38106   8.899   3.327  14.715 -0.2508  0.1215 -0.0293
22033W        W38107   9.967   8.060   1.079 -0.1101 -0.1374 -0.1475
22034W        W38108   0.341  17.343   1.620 -0.0184 -0.1962  0.0098
22035W        W38109  17.414   8.574   4.070 -0.2392 -0.0564 -0.2271
22036W        W38110   9.377   4.559   4.956 -0.1088 -0.1486 -0.2077
22037W        W38111   2.462  15.841  12.939  0.0476 -0.2837 -0.2436
22038W        W38112   4.065  12.677  14.609  0.2955 -0.4374  0.1726
22039W        W38113  15.104   2.737  14.496  0.0390 -0.1089  0.0489
22040W        W38114   2.422  14.681  12.194  0.1914  0.1445 -0.0557
22041W        W38115   8.912   7.145   0.074 -0.2749 -0.0312  0.4590
22042W        W38116   7.338   9.078   4.737 -0.0339  0.1515  0.0817
22043W        W38117  18.179  13.009   1.064 -0.1588 -0.0135  0.0840
22044W        W38118   8.556  15.225   3.039 -0.3117  0.0245 -0.0244
22045W        W38119  12.181  16.359  15.616 -0.0372 -0.0134  0.1061
22046W        W38120  18.268  14.076  15.875 -0.0199 -0.1117 -0.0690
22047W        W38121  12.415  15.988  12.746 -0.3264  0.0989  0.0381
22048W        W38122  13.650   6.488  14.522  0.1401 -0.0037 -0.1604
22049W        W38123   0.034   6.483   4.287 -0.1041 -0.0130 -0.0500
22050W        W38124  10.238  16.556  12.828  0.0076 -0.0553  0.1193
22051W        W38125   3.781   8.726   5.496 -0.1868 -0.1976  0.2898
22052W        W38126   2.678  13.132  15.039 -0.0186  0.0475 -0.2584
22053W        W38127   6.683   3.205  11.253  0.0634 -0.3619 -0.1989
22054W        W38128  16.466  14.094   3.573  0.3227  0.5105  0.0994
22055W        W38129   9.032   3.322  13.768 -0.0024 -0.0360  0.0316
22056W        W38130   5.211  16.250  12.563 -0.0299  0.1014  0.0161
22057W        W38131   8.638  10.015   1.647  0.0340 -0.3388 -0.2920
22058W        W38132   8.389  12.422   4.959  0.0340 -0.3810  0.0715
22059W        W38133  12.352  18.123  10.044 -0.0904  0.1991 -0.2816
22060W        W38134  13.034  15.097   0.180  0.0786 -0.1461  0.0625
22061W        W38135  11.568   0.345   5.858 -0.1000 -0.0882  0.2310
22062W        W38136  13.567  17.847  11.720  0.1479 -0.0729  0.3537
22063W        W38137  17.741   8.965  11.480  0.3315 -0.3459 -0.0191
22064W        W38138   0.468   8.985  12.844  0.0893 -0.0841 -0.3749
22065W        W38139  12.847   8.139  13.275  0.0729 -0.1927  0.0292
22066W        W38140  12.722   6.373   4.191 -0.0677  0.1572 -0.1612
22067W        W38141  11.992   8.198   1.311 -0.2634 -0.2267 -0.0666
22068W        W38142  15.044   5.669  13.276  0.0273 -0.0055 -0.1793
22069W        W38143  14.615  11.546   3.660  0.2762 -0.0159 -0.1669
22070W        W38144   4.424   2.502  15.946  0.0739 -0.2972 -0.1513
22071W        W38145   7.369  15.973  10.881 -0.2848 -0.1425 -0.1233
22072W        W38146   8.518  11.087   3.617 -0.0613  0.3383  0.3520
22073W        W38147   1.305   6.173   0.332 -0.1697  0.1882 -0.0463
22074W        W38148   5.220   0.268  14.210 -0.0584  0.1732  0.0063
22075W        W38149   3.204  12.465   0.738 -0.2852  0.1337  0.0897
22076W        W38150   2.337  10.754  15.462 -0.0799 -0.0160 -0.1652
22077W        W38151  10.898   2.037  13.894 -0.2541  0.1263 -0.0553
22078W        W38152   7.334   7.762   1.372 -0.0013  0.0619  0.3651
22079W        W38153   1.168   7.732  12.990  0.1776  0.2211  0.0474
22080W        W38154   4.953  14.986  11.773  0.0991 -0.0994  0.2280
22081W        W38155   1.390  14.735   2.821  0.1007  0.2962  0.1062
22082W        W38156  16.823  10.334  12.101  0.0860  0.3807  0.3354
22083W        W38157   2.852   2.404   1.697  0.0696  0.2229  0.1105
22084W        W38158  14.325  15.995  12.979  0.1045  0.0025  0.0033
22085W        W38159   3.068   4.463   4.521 -0.0447 -0.0932 -0.1266
22086W        W38160  11.514  14.415   4.573  0.0724 -0.1741  0.1390
22087W        W38161   7.021   9.132   1.261  0.1390 -0.1253  0.0034
22088W        W38162   1.986   2.276   4.840  0.1209  0.0587 -0.0924
22089W        W38163   2.186  14.999  13.571  0.1053 -0.2921 -0.0644
22090W        W38164   3.622  13.345  14.184  0.3470 -0.1498 -0.1354
22091W        W38165  16.376  11.172   0.500 -0.0369 -0.1295  0.0548
22092W        W38166   3.636  18.030  14.644  0.3839 -0.0400 -0.1904
22093W        W38167  14.247  17.019   1.336  0.1235 -0.0258  0.0226
22094W        W38168   2.539   1.892   0.868  0.0520  0.2250  0.1566
22095W        W38169   4.890  10.178  11.450 -0.1492  0.2655  0.0581
22096W        W38170   3.450  16.075   5.410  0.2781 -0.0859  0.2231
22097W        W38171  16.225   0.359  11.927  0.3357 -0.2001  0.1621
22098W        W38172  10.282   2.838   0.532 -0.0094 -0.0625  0.0540
22099W        W38173  17.310  15.573  13.312 -0.2433  0.2564 -0.3228
22100W        W38174  15.867   7.556  13.278  0.0057  0.1101 -0.2020
22101W        W38175   6.211  16.237   1.789  0.3664 -0.0704 -0.1039
22102W        W38176   3.322  17.215  15.756 -0.1587  0.1460 -0.2249
22103W        W38177   2.585  17.118  13.070  0.1795  0.0847 -0.0287
22104W        W38178  14.675  13.258   3.319  0.1661 -0.1925  0.1365
22105W        W38179  10.446  17.610   1.048  0.0544 -0.0204  0.1601
22106W        W38180   5.272   8.998   2.508  0.2987  0.1800  0.2078
22107W        W38181   2.370   2.983  11.022 -0.0152 -0.2321 -0.1369
22108W        W38182  11.859   9.291  15.451 -0.1594 -0.1220 -0.5738
22109W        W38183   0.179  11.039  13.186 -0.1644 -0.3237  0.0042
22110W        W38184   4.144   7.593   3.941 -0.0590  0.1666  0.0309
22111W        W38185   2.711  12.703   1.681 -0.0481 -0.1403  0.2756
22112W        W38186   0.500   2.545  11.681 -0.1351 -0.0702  0.0124
22113W        W38187  14.009   7.207   4.117 -0.0858  0.0444  0.0162
22114W        W38188   7.419   8.656   3.555 -0.1012  0.2679 -0.1071
22115W        W38189  13.401   4.790   0.509 -0.0224  0.2333 -0.0916
22116W        W38190  11.824   9.119  13.680  0.2498 -0.2009  0.0120
22117W        W38191  13.086   1.142  10.651  0.0337  0.1274 -0.2010
22118W        W38192   3.559   7.871  11.901 -0.0660  0.0319  0.4675
22119W        W38193   9.721   6.418  12.772  0.0443 -0.0957 -0.2470
22120W        W38194   7.971   4.957   3.310 -0.1724 -0.0757 -0.1204
22121W        W38195  14.051   6.644  15.787  0.0609 -0.0897 -0.1998
22122W        W38196  10.277  18.411   5.270  0.1206 -0.0904  0.1316
22123W        W38197   8.637  14.472   2.808  0.3123  0.2059 -0.2381
22124W        W38198  10.326   7.348  13.577  0.1058 -0.1003 -0.3102
22125W        W38199   5.354  12.896  15.750 -0.0225  0.0338 -0.0722
22126W        W38200  12.613  10.043  12.974  0.1052 -0.1785 -0.1099
22127W        W38201   2.440  12.201  15.756 -0.1767  0.0532 -0.2344
22128W        W38202  14.360   1.013  11.635 -0.1603  0.3082 -0.3071
22129W        W38203  15.941  10.049   5.196  0.0723 -0.1314  0.0634
22130W        W38204  12.339   1.640  15.431  0.1788 -0.0474  0.2608
22131W        W38205  10.452  17.700  13.821 -0.0415 -0.4290  0.1484
22132W        W38206  14.910   1.742   1.221 -0.1134 -0.0523 -0.1049
22133W        W38207   3.596   0.563  12.722 -0.1062 -0.2398 -0.2359
22134W        W38208   5.431   8.120  11.555  0.2913  0.0707 -0.0547
22135W        W38209   6.506  18.065   2.057 -0.0731 -0.4958  0.0518
22136W        W38210   7.440   9.263  11.970  0.0402 -0.3726 -0.2291
22137W        W38211   8.114   9.949  13.857  0.0133  0.2436 -0.0326
22138W        W38212   7.405   5.245   3.245  0.1070  0.2988 -0.4508
22139W        W38213   3.548  14.654  11.004  0.1057 -0.0240  0.0150
22140W        W38214   4.123  13.231  13.844  0.0688 -0.0350  0.1188
22141W        W38215  16.583  13.107   3.194 -0.1107 -0.0498 -0.0888
22142W        W38216  12.246   2.428   5.346  0.2511 -0.3919 -0.3870
22143W        W38217  17.137  15.516   1.349  0.0726 -0.1251 -0.0549
22144W        W38218  14.937  14.555  11.176 -0.0010  0.2737 -0.0634
22145W        W38219   7.812  15.829  11.055  0.2365 -0.0917  0.1054
22146W        W38220  11.995   0.188  13.169 -0.1333  0.0038  0.3455
22147W        W38221   8.893   2.943   3.492  0.0873  0.1692 -0.0602
22148W        W38222   4.507  12.716  12.954 -0.1239 -0.0133  0.0049
22149W        W38223   9.027   2.071   2.104  0.2546  0.3937 -0.1333
22150W        W38224  18.557  14.856   2.055 -0.2262  0.1611  0.4094
22151W        W38225  13.667   5.266   5.903 -0.2650  0.4181  0.1713
22152W        W38226  18.439   9.165   2.343 -0.0082 -0.5793  0.2570
22153W        W38227   2.921  16.664   0.835  0.0496  0.0942 -0.1157
22154W        W38228   7.477  15.267   3.585 -0.3600  0.0147  0.0580
22155W        W38229   6.891  12.629   6.174 -0.3257 -0.4142 -0.0566
22156W        W38230   5.115   2.472  15.148 -0.0659  0.1626 -0.0081
22157W        W38231   6.440  10.816  12.300 -0.0701 -0.3495 -0.2905
22158W        W38232   8.601   7.322  11.587  0.0964  0.2528  0.2434
22159W        W38233   8.551   5.073  15.733  0.0979 -0.1906 -0.0011
22160W        W38234   9.854  16.149  14.043 -0.0123  0.1371 -0.2089
22161W        W38235  16.084   6.201   4.506 -0.1484  0.1838  0.0721
22162W        W38236   9.029   1.757  13.214  0.1670  0.2954 -0.0662
22163W        W38237  12.856  13.024  11.939 -0.2075  0.1031  0.0994
22164W        W38238   4.772   7.994   1.481  0.0876  0.0408  0.0481
22165W        W38239  14.400  13.205  15.084 -0.0233 -0.1619 -0.0675
22166W        W38240   2.084  12.668  13.648  0.0119  0.2684  0.0174
22167W        W38241  11.786  14.186   4.938 -0.1605  0.0421  0.0374
22168W        W38242   2.004   2.146  16.012 -0.1625  0.0749  0.0184
22169W        W38243   2.184  15.718   3.170  0.1783 -0.0545 -0.0789
22170W        W38244  15.953   7.359  11.363  0.1207 -0.1023  0.0783
22171W        W38245  16.071   6.550  13.298  0.0945  0.2234 -0.0248
22172W        W38246   7.966  15.559   4.016 -0.1675  0.0512  0.2558
22173W        W38247   9.862  13.886  13.162  0.3278  0.0596  0.1062
22174W        W38248   8.396   5.270   3.458 -0.1810 -0.1704  0.5133
22175W        W38249  12.324  17.671  12.348  0.2641  0.1142 -0.3365
22176W        W38250  14.715   8.479   4.748 -0.1162 -0.1970  0.0185
22177W        W38251  12.990   4.303   0.687  0.1473 -0.0370  0.1150
22178W        W38252  14.013   6.277  12.469 -0.0308 -0.0098 -0.0910
22179W        W38253   7.550  18.347   4.312  0.2088 -0.2542  0.0046
22180W        W38254  15.486   7.219  15.285  0.1089 -0.0066 -0.1139
22181W        W38255   4.700  12.573   2.316  0.0948 -0.1846 -0.0398
22182W        W38256   8.364  14.568   4.245  0.1627 -0.0259 -0.0309
22183W        W38257   8.680  12.554   3.803 -0.2534 -0.1486  0.1799
22184W        W38258   7.122   0.901   5.995 -0.0955 -0.2491  0.1375
22185W        W38259  14.022   5.444  11.014 -0.1235  0.2281 -0.1591
22186W        W38260   1.951   8.184  15.811 -0.1918 -0.1099 -0.0795
22187W        W38261   4.879  11.047   0.436 -0.1457 -0.1749  0.0295
22188W        W38262   5.376  14.999  13.157  0.0745  0.0603  0.2767
22189W        W38263   1.276   6.704   3.243  0.0724 -0.0241 -0.6513
22190W        W38264  10.082  15.791   4.905  0.0575 -0.5548 -0.0400
22191W        W38265   1.245  16.765  13.898  0.2653 -0.0736  0.1909
22192W        W38266  15.610  13.060  14.970 -0.1288  0.1707 -0.1150
22193W        W38267  11.188   3.546  12.466  0.0779 -0.0141  0.2616
22194W        W38268  10.499  11.610  15.567  0.3132  0.0252 -0.1632
22195W        W38269  13.137  16.392   5.453  0.1087  0.1576  0.0455
22196W        W38270  17.569  14.968  11.670 -0.3341  0.0543 -0.0662
22197W        W38271  14.030   3.680   5.065  0.1023 -0.0785 -0.2906
22198W        W38272  14.764  14.656   3.766  0.2230 -0.0820 -0.2070
22199W        W38273  12.971  13.104   4.168  0.0890  0.1635 -0.1880
22200W        W38274   8.287   8.888  12.388 -0.0414 -0.0882  0.2833
22201W        W38275   1.322   9.765   4.566 -0.1847 -0.3365  0.5448
22202W        W38276   7.076   6.337   0.128 -0.2223 -0.2014 -0.1757
22203W        W38277  12.742  16.894  12.803  0.0166 -0.0847  0.1573
22204W        W38278   7.065  14.073   2.545 -0.1216 -0.2155 -0.2542
22205W        W38279   7.878   3.249   3.569  0.1983  0.1908 -0.0989
22206W        W38280  16.931   7.564   1.654 -0.0024  0.1721 -0.3787
22207W        W38281   1.532   8.753  15.721  0.1540 -0.1305 -0.1012
22208W        W38282  15.015   9.708  14.028 -0.2387 -0.1227  0.0956
22209W        W38283  13.223  10.971   0.692  0.4180 -0.1719 -0.0796
22210W        W38284  10.650   2.677  15.752 -0.0279  0.0640 -0.1511
22211W        W38285   1.418  16.280  12.940  0.1966 -0.2148 -0.1999
22212W        W38286  12.564  10.043  16.007 -0.2658 -0.3163  0.1961
22213W        W38287  16.178  12.099  14.888 -0.2737 -0.0390 -0.0241
22214W        W38288  10.288   5.279   2.468  0.1256  0.4405  0.0138
22215W        W38289   2.364  12.754   1.283 -0.0251  0.0547 -0.2360
22216W        W38290   5.850   9.626   3.219  0.1874  0.1409 -0.2349
22217W        W38291  17.493  13.106  15.527  0.2915 -0.2634 -0.4366
22218W        W38292  10.824   6.210  14.773 -0.4737  0.0446  0.1451
22219W        W38293   4.271   4.868  11.405 -0.6064 -0.0701  0.0043
22220W        W38294  11.301   8.278  11.829 -0.0614 -0.0254  0.4181
22221W        W38295   1.296  11.567  13.695  0.0655 -0.0915 -0.1040
22222W        W38296   4.943   0.856   2.963  0.2586  0.1295  0.1750
22223W        W38297   0.902  10.143   3.872 -0.2528 -0.1284 -0.1249
22224W        W38298   5.763   9.399   0.126 -0.3716  0.2026  0.0082
22225W        W38299  12.468   8.853  11.971 -0.2390  0.0419 -0.3957
22226W        W38300  10.545   9.829  12.215  0.2748 -0.0063 -0.0567
22227W        W38301   7.888   2.323   2.291 -0.1623  0.0681 -0.2075
22228W        W38302   6.004  11.074  13.614  0.1332  0.0916 -0.4204
22229W        W38303   2.222   2.591   0.393  0.4527 -0.3120 -0.1616
22230W        W38304  12.449  12.503  12.140 -0.1127  0.0901 -0.3359
22231W        W38305  13.155   9.705   6.310 -0.1084 -0.1666  0.0752
22232W        W38306  11.768  13.153   3.766 -0.0408 -0.0141 -0.4046
22233W        W38307   6.629  11.139   3.683 -0.0030 -0.0192 -0.1812
22234W        W38308  15.732   6.993   0.360 -0.0850  0.0347 -0.1350
22235W        W38309   9.729   7.422  15.157  0.0537 -0.1364 -0.2629
22236W        W38310   5.256  15.680  14.116 -0.0706 -0.1570 -0.3492
22237W        W38311  13.459   4.712   4.982 -0.2364  0.2412 -0.2699
22238W        W38312  15.401   8.340  15.878  0.2229  0.0456 -0.0097
22239W        W38313  14.301  14.107   1.007 -0.0990  0.1143 -0.0769
22240W        W38314  13.787   1.505  15.426 -0.2384  0.0132  0.1254
22241W        W38315  13.711  17.658   3.290 -0.0064  0.1480  0.2873
22242W        W38316   8.640  10.210  15.800 -0.2979  0.0783 -0.0790
22243W        W38317   6.887  15.783  10.904 -0.2111 -0.0191  0.1378
22244W        W38318   4.692   3.672  13.487  0.0701 -0.3347  0.0512
22245W        W38319  16.754   0.933  11.406 -0.0146  0.2130  0.1860
22246W        W38320   2.965   1.499  15.276 -0.3516  0.1032  0.0213
22247W        W38321  15.782   0.192   0.902  0.2717 -0.1679 -0.1231
22248W        W38322   0.156  18.094  11.432  0.0187  0.1305  0.0207
22249W        W38323   7.350  13.683   2.239 -0.1797  0.2557 -0.4182
22250W        W38324  17.436   6.513   5.341  0.0564 -0.2378 -0.1712
22251W        W38325  14.806   7.372   3.596 -0.4175  0.0480 -0.0938
22252W        W38326  17.469  13.361   3.943  0.1323 -0.0162  0.0016
22253W        W38327  11.954   6.920  11.380 -0.0090 -0.0823  0.0624
22254W        W38328  10.441  16.842  15.656 -0.2558 -0.2353 -0.0078
22255W        W38329   6.856   7.179   2.829 -0.2941 -0.2651  0.1814
22256W        W38330   4.157   6.912   6.433 -0.1297 -0.1492 -0.0992
22257W        W38331   8.714   1.213   1.925 -0.0664  0.3198 -0.5395
22258W        W38332   3.019   3.551  15.065 -0.2518  0.0636 -0.0608
22259W        W38333   9.588   1.176  11.323  0.0699  0.0713 -0.0062
22260W        W38334  15.071  15.325   2.311  0.2159 -0.0375 -0.0527
22261W        W38335  10.359  16.943  13.128 -0.0336 -0.0881  0.0153
22262W        W38336  16.004  12.829  13.424  0.1014 -0.1279  0.0554
22263W        W38337   8.297   1.090  12.359 -0.0983  0.0307 -0.1324
22264W        W38338   2.277   9.554   4.251 -0.1793  0.4081  0.0979
22265W        W38339  11.087  14.696  11.902  0.0067  0.1804 -0.0883
22266W        W38340  16.278   0.164   1.120  0.0944 -0.6089 -0.0031
22267W        W38341  13.647   1.556  12.455  0.0624  0.1954 -0.1168
22268W        W38342  11.781  10.608   5.453  0.2723 -0.0875  0.1744
22269W        W38343  12.828   4.370   1.223 -0.0698 -0.2470  0.1274
22270W        W38344  10.104   2.369  11.609  0.2030  0.0574  0.4670
22271W        W38345  17.091   3.858   1.283  0.1182 -0.0818 -0.3975
22272W        W38346  13.910   7.506   0.436  0.4428 -0.2588  0.1433
22273W        W38347   8.941  13.016   3.808 -0.2639 -0.0445  0.1150
22274W        W38348   6.295  11.240  13.163  0.0964  0.1332 -0.1641
22275W        W38349  18.463  17.063  15.300 -0.2100 -0.1270  0.3241
22276W        W38350   9.558   8.032  15.670  0.1315  0.1025  0.2529
22277W        W38351   7.997  16.614  14.890 -0.2075 -0.0172 -0.1084
22278W        W38352  15.407  10.761  13.868  0.0222 -0.3297 -0.2840
22279W        W38353  11.722  13.234   1.664 -0.1884 -0.2202 -0.0452
22280W        W38354   9.807   5.277   1.181  0.1492 -0.0514 -0.2692
22281W        W38355   8.807  14.989   2.684 -0.1981  0.2200 -0.2250
22282W        W38356   9.579   6.099  14.558 -0.1671 -0.4231 -0.0731
22283W        W38357   3.841  16.496   1.280  0.0826 -0.1564  0.1101
22284W        W38358   9.811   6.586   3.296  0.0689 -0.1820 -0.3646
22285W        W38359   1.075   9.536  13.620 -0.1679 -0.2395  0.2403
22286W        W38360  14.061  18.455  11.313  0.4181  0.0570 -0.1961
22287W        W38361  13.550  10.008  15.477 -0.1781 -0.0196 -0.1855
22288W        W38362   8.587  14.261  14.717  0.0353 -0.4193  0.0111
22289W        W38363   1.068  15.981  13.177  0.1131 -0.0337  0.2575
22290W        W38364   8.905  14.938   5.436 -0.5631 -0.0005 -0.0644
22291W        W38365  13.471   5.929  13.284 -0.0884  0.3397  0.1403
22292W        W38366   8.542   4.303   3.096 -0.0276  0.0121  0.0833
22293W        W38367   3.677   3.828   6.137  0.1703 -0.1520  0.0090
22294W        W38368   6.940  17.402   1.375 -0.0976  0.0227  0.2177
22295W        W38369   6.320   6.585  13.380 -0.1031 -0.1367  0.1222
22296W        W38370   6.489  12.323   2.674 -0.2225  0.1505  0.1790
22297W        W38371   5.688  11.691  14.283  0.5169 -0.2601 -0.1512
22298W        W38372   0.228   7.444   1.978 -0.0325  0.3017 -0.0936
22299W        W38373   5.948  11.972  13.513  0.1373  0.0664  0.3312
22300W        W38374   1.479   5.131   2.047 -0.1810 -0.1590 -0.1321
22301W        W38375   3.158  10.564  11.832  0.2044 -0.0766  0.1692
22302W        W38376   6.616  10.904  11.674 -0.1869  0.2051  0.1207
22303W        W38377   6.553   8.595   2.042  0.1100  0.3530 -0.3109
22304W        W38378   8.042  16.212   9.799  0.0984  0.0952  0.2140
22305W        W38379  18.443   4.219   1.550  0.1170  0.2900 -0.2149
22306W        W38380  13.956  11.988  15.470  0.1437 -0.0695  0.4207
22307W        W38381   7.108   6.552   1.118 -0.0637 -0.3767  0.6194
22308W        W38382  11.547  10.798   2.062  0.2664 -0.0128  0.1999
22309W        W38383  12.651   0.666   3.744  0.0456  0.0915 -0.3345
22310W        W38384  14.393  13.426  14.251  0.0161  0.2216 -0.0451
22311W        W38385   7.607   6.580   0.047  0.3815  0.0495 -0.1747
22312W        W38386   3.058   2.904  12.818 -0.1656  0.1654 -0.0277
22313W        W38387  18.457   0.820  12.810  0.0473  0.0806 -0.4226
22314W        W38388   1.676  14.053  11.569 -0.1324 -0.0840  0.0934
22315W        W38389   4.264   8.225   3.032  0.1194  0.2656  0.1506
22316W        W38390  12.618  13.159  13.290 -0.0583  0.2378  0.0801
22317W        W38391   5.917   0.198  12.078  0.1169  0.1087  0.0641
22318W        W38392  15.303   7.823  15.875 -0.0322 -0.0070  0.1403
22319W        W38393   6.365  18.122  11.079  0.2089 -0.0488 -0.1754
22320W        W38394  10.027  12.706  13.142 -0.0007  0.2479  0.3799
22321W        W38395  15.481   4.112  14.032 -0.0393  0.0273 -0.2505
22322W        W38396  14.861   8.957   3.470 -0.0563  0.0568  0.0484
22323W        W38397  14.566  13.246  12.460 -0.0644 -0.1998 -0.0620
22324W        W38398   0.696  18.103  14.851 -0.6702 -0.3083 -0.3245
22325W        W38399   4.808  10.327  14.808 -0.2584  0.1329  0.0460
22326W        W38400  14.155  15.759  14.497  0.2409 -0.1158 -0.1136
22327W        W38401   6.414   0.005   5.264 -0.3574  0.2531  0.0867
22328W        W38402  15.548  18.294   4.533  0.1040 -0.0393  0.0391
22329W        W38403   2.260   7.574   3.971  0.3527 -0.1149  0.1537
22330W        W38404  10.807  12.116  11.130 -0.1833  0.0464  0.0527
22331W        W38405   1.356  12.905  13.473 -0.0714  0.2512  0.1149
22332W        W38406   3.121   9.417  13.557 -0.0776  0.0015 -0.2005
22333W        W38407   2.864  12.380   2.131  0.1795 -0.0075  0.0097
22334W        W38408   9.831  10.725  15.822  0.3079 -0.0335 -0.0332
22335W        W38409   5.844   4.746   5.103  0.0858 -0.3730  0.0498
22336W        W38410  11.816   9.968   4.421  0.0804  0.0133  0.0086
22337W        W38411   5.310   5.455   5.632 -0.0705  0.1257  0.0043
22338W        W38412   3.813   0.103   3.781  0.1784 -0.2342 -0.2543
22339W        W38413   0.587  16.281   4.392  0.1764 -0.4021 -0.0049
22340W        W38414   7.229   7.414  14.723  0.2320 -0.0686  0.1609
22341W        W38415  14.969   1.537   0.196 -0.2713 -0.2003  0.0706
22342W        W38416  11.255   5.595  13.587 -0.0394  0.2288  0.0263
22343W        W38417  11.540  11.006   3.342  0.3906 -0.1133  0.1570
22344W        W38418   6.641   1.962  12.612  0.0409  0.1577  0.0086
22345W        W38419  15.534   0.758  13.618 -0.0281 -0.1027 -0.0534
22346W        W38420   8.594   0.873   0.747  0.0651  0.0636 -0.3262
22347W        W38421  16.895  14.625   1.397  0.2093 -0.1201  0.2406
22348W        W38422   4.338  10.506  14.748 -0.0350  0.2143  0.1269
22349W        W38423   9.932   6.122   2.545 -0.1416 -0.0484  0.0379
22350W        W38424   8.818  12.447  12.785 -0.1071  0.0159  0.2356
22351W        W38425   1.385   1.879  10.647  0.2681 -0.0800 -0.6629
22352W        W38426  17.195   3.164   1.011  0.2716  0.5074 -0.1839
22353W        W38427   3.267  17.424  12.281  0.1893  0.1615  0.3795
22354W        W38428   9.218  17.286  12.556  0.0243  0.1962  0.0454
22355W        W38429  11.328   3.266  10.626  0.0030  0.2443 -0.2362
22356W        W38430   9.731   8.525   5.367 -0.1054 -0.1221  0.0611
22357W        W38431  18.080   4.537   1.720 -0.1640 -0.0930 -0.1082
22358W        W38432  11.254   3.913   0.301 -0.1855 -0.0311  0.0445
22359W        W38433   2.840  16.112  13.825 -0.2161 -0.0840 -0.1053
22360W        W38434   0.847   7.972   3.715 -0.0172 -0.2034 -0.0461
22361W        W38435  13.843   6.656  11.008  0.0413  0.2146  0.2716
22362W        W38436  15.017   2.198   3.757 -0.1074  0.3406 -0.1885
22363W        W38437  16.753   7.577   4.560 -0.1042  0.2433 -0.0093
22364W        W38438  16.465  11.228  14.611  0.0546  0.0596  0.2918
22365W        W38439   1.965   3.705   2.618  0.0196  0.0524  0.0753
22366W        W38440  14.426   9.562   4.300 -0.2861 -0.3339  0.4268
22367W        W38441  10.481  13.213  11.183 -0.1208  0.0283 -0.0230
22368W        W38442   1.180   2.600   4.423  0.2042 -0.1079 -0.1173
22369W        W38443   5.228  14.957  14.535 -0.2315  0.2222  0.0136
22370W        W38444  13.393   8.506   3.387 -0.1615 -0.1139 -0.0463
22371W        W38445  13.529   5.641  15.104  0.3332  0.0212  0.3086
22372W        W38446   2.591   7.763  11.570 -0.1245  0.1888  0.0462
22373W        W38447  12.319   3.032  13.156 -0.0286  0.1175 -0.0434
22374W        W38448  14.092  16.265   4.836 -0.0303 -0.0093 -0.1537
22375W        W38449   8.114  16.834   2.034  0.1541  0.3939  0.0578
22376W        W38450   7.953   0.199  13.642 -0.2383  0.3284 -0.3009
22377W        W38451   1.864   1.955   5.744  0.0304  0.4262 -0.0044
22378W        W38452  10.460  17.322   5.524  0.2589  0.1388  0.0834
22379W        W38453  14.941   1.105   4.624 -0.2546 -0.1856 -0.1196
22380W        W38454  16.620   2.302   4.465 -0.1386 -0.0251  0.0654
22381W        W38455  16.528   0.020   0.483 -0.1581 -0.1507  0.0547
22382W        W38456  15.597  15.637  15.516  0.0538  0.1057 -0.0151
22383W        W38457   9.247   5.079   3.413 -0.0286  0.2697  0.0201
22384W        W38458   1.065  14.572   2.399 -0.1810  0.3314 -0.1982
22385W        W38459   4.336  14.471  12.480 -0.1974  0.3209  0.1965
22386W        W38460   9.932   8.283   4.970  0.1211  0.1631 -0.1131
22387W        W38461   5.255   7.968   3.460  0.0576 -0.0568  0.1732
22388W        W38462   5.196  18.348  15.726  0.1494 -0.0705  0.1461
22389W        W38463  13.805  13.627  11.498  0.2620  0.0994  0.0714
22390W        W38464   6.181  18.193   0.069  0.0502 -0.0333  0.1017
22391W        W38465  15.496  17.615   3.139 -0.0837  0.0467  0.3264
22392W        W38466   2.230   5.678   1.984 -0.0441  0.0393  0.3364
22393W        W38467   5.486  14.836  15.812  0.2135  0.2470 -0.3265
22394W        W38468   7.079   3.861   6.263 -0.2975  0.2141  0.1226
22395W        W38469  13.406  12.121  13.547  0.2760  0.1649  0.1281
22396W        W38470   9.886  16.697   0.803 -0.0267 -0.2132 -0.3214
22397W        W38471   7.061   3.280   5.876 -0.2523 -0.0112  0.0630
22398W        W38472   2.043  13.017   5.184  0.1413  0.2194 -0.4023
22399W        W38473   1.260  15.386   1.907  0.0303 -0.1935 -0.2281
22400W        W38474  13.381   3.801   1.451 -0.1067 -0.1224 -0.1321
22401W        W38475   5.482  17.180  13.950 -0.1482  0.0210 -0.0386
22402W        W38476   9.080  15.183  11.404 -0.1995 -0.0489 -0.1390
22403W        W38477   3.078  14.872  13.498 -0.0737  0.0597  0.0118
22404W        W38478  18.110   4.653   3.274  0.3166 -0.0091 -0.2102
22405W        W38479  16.839  13.185  13.147 -0.1061  0.0946  0.2043
22406W        W38480   0.068   4.935  14.690  0.0167 -0.3171  0.2152
22407W        W38481  11.626   6.350  11.995  0.0467  0.1911 -0.1217
22408W        W38482   3.970   3.219   3.508  0.2154  0.0066  0.0144
22409W        W38483   7.745  13.855  12.733  0.2322  0.0023  0.0683
22410W        W38484  18.276  18.397  12.621  0.0848  0.1527 -0.3258
22411W        W38485  13.203   0.938  14.965  0.1780 -0.4877 -0.2792
22412W        W38486   9.358  18.356  11.346 -0.2657 -0.2364  0.0628
22413W        W38487  10.058  10.273  12.920 -0.3989  0.1221  0.1235
22414W        W38488   0.837  12.873   1.883  0.2416  0.1597 -0.1554
22415W        W38489   5.786  15.965  15.335 -0.0406 -0.1475 -0.1518
22416W        W38490  15.686   5.396  11.875 -0.0695 -0.1001  0.1093
22417W        W38491   5.670   1.650  11.058  0.1496  0.0423  0.0207
22418W        W38492  17.641   5.044  13.272  0.2708  0.0303  0.0952
22419W        W38493  13.200  16.497   3.707  0.1077 -0.0392  0.0406
22420W        W38494  13.049  17.404   2.124 -0.0787  0.0377  0.0524
22421W        W38495  13.775   4.962   4.230  0.1086  0.2048  0.0322
22422W        W38496  17.460   0.324  15.924 -0.1297 -0.2465  0.0763
22423W        W38497  16.325  13.614   0.091 -0.0757  0.1592 -0.3620
22424W        W38498  10.387  13.464   3.860 -0.0309 -0.2764 -0.1656
22425W        W38499   5.942  14.755  11.472 -0.0734 -0.1510  0.0505
22426W        W38500   1.871  12.463   2.114  0.0088  0.0678 -0.0407
22427W        W38501   5.708   4.469   0.669 -0.2456  0.3828 -0.0287
22428W        W38502   4.876  10.220  14.094  0.2303  0.1671  0.1604
22429W        W38503  13.424  16.091   0.221  0.0182  0.0752 -0.0869
22430W        W38504  12.762   8.218   1.688  0.3815 -0.0519  0.1031
22431W        W38505  11.698  17.924   5.707  0.1552 -0.1448 -0.1537
22432W        W38506  12.321   0.689   4.149 -0.1117 -0.0708 -0.0515
22433W        W38507   1.684  16.091   1.594  0.0883  0.0240 -0.1133
22434W        W38508  11.987  10.714  12.280 -0.2012  0.0626 -0.1899
22435W        W38509   4.831  16.746   0.696 -0.0511  0.3020 -0.0308
22436W        W38510  10.807   5.722  13.742 -0.2651 -0.0100 -0.0727
22437W        W38511  11.105   7.366  15.333 -0.1359  0.0140 -0.3023
22438W        W38512   2.556   4.780  14.808  0.0617  0.0897  0.1112
22439W        W38513   4.888   3.617  15.309  0.0426  0.2767  0.0507
22440W        W38514   2.270   6.315   3.528 -0.1003 -0.1416  0.1779
22441W        W38515   1.632   9.051   5.391  0.1126 -0.0089 -0.0322
22442W        W38516   5.485  17.254   4.103 -0.0567  0.0434 -0.1130
22443W        W38517   5.133   8.697   4.211  0.0279  0.0441 -0.0776
22444W        W38518   9.170   2.814   1.168  0.0444  0.0515  0.0936
22445W        W38519   2.445   3.707  12.596  0.1595 -0.0014  0.2489
22446W        W38520  12.421  16.955   3.207 -0.0103 -0.1808  0.0969
22447W        W38521  11.519  10.735   4.588  0.3464 -0.2304 -0.0234
22448W        W38522   2.709   9.289  15.225 -0.3186 -0.2300  0.0924
22449W        W38523   0.529  16.191   3.507  0.3611 -0.2751 -0.1003
22450W        W38524   2.756   8.619   4.441 -0.2162  0.2789  0.1958
22451W        W38525   1.999  17.930   0.899 -0.2083 -0.0365 -0.3122
22452W        W38526  14.334   3.190   2.087  0.0606  0.2665 -0.2861
22453W        W38527   3.344   7.232  15.259  0.0384  0.3181  0.3433
22454W        W38528   1.970  10.360  14.655  0.0662 -0.1120 -0.0453
22455W        W38529  16.374   7.224   4.200  0.0904  0.1171 -0.0403
22456W        W38530   7.471   8.257  13.334 -0.3749 -0.3043  0.1012
22457W        W38531  15.803   1.760   1.243  0.0910 -0.3352  0.0681
22458W        W38532   1.688   4.298  14.617  0.0003  0.1926 -0.0163
22459W        W38533   6.724   4.724   1.891  0.0997  0.1702 -0.0158
22460W        W38534   9.947  11.253  15.818  0.1541  0.3203  0.2674
22461W        W38535  12.833  12.462   1.785 -0.1706  0.1580  0.0288
22462W        W38536   2.093   5.721  12.959 -0.0540  0.1082  0.0556
22463W        W38537   8.603  11.323  11.237  0.5154  0.0110  0.0137
22464W        W38538  13.364  16.754  11.995 -0.1396  0.0069 -0.0582
22465W        W38539   8.926  14.476   2.011  0.1936 -0.0670 -0.0011
22466W        W38540  17.379   7.294  15.715  0.1741  0.0164  0.0267
22467W        W38541   5.996  18.304  14.382  0.2675 -0.1600 -0.1030
22468W        W38542   2.268   5.845   1.217  0.0610 -0.2350  0.3061
22469W        W38543   8.062   1.023  10.178  0.0302  0.1095 -0.1555
22470W        W38544   4.736  13.639   2.314 -0.1280 -0.0425  0.1938
22471W        W38545   0.090  17.095   3.249  0.0694  0.1782 -0.1488
22472W        W38546   1.346  18.331   1.130 -0.2254  0.2531  0.1058
22473W        W38547  16.787   9.164  13.998 -0.1164 -0.0318 -0.0810
22474W        W38548   0.921  16.691  15.734 -0.4114 -0.0232 -0.0198
22475W        W38549   9.582  10.327   4.414 -0.1021  0.0630 -0.1283
22476W        W38550  18.281   1.952  11.351  0.0827  0.1361 -0.3313
22477W        W38551   5.720  12.684   5.318 -0.2404  0.2214  0.0009
22478W        W38552  16.343  17.282   0.284 -0.1490 -0.4659 -0.1280
22479W        W38553  13.989  10.588  10.963  0.1964 -0.1474  0.1378
22480W        W38554   7.356   3.086   3.615 -0.3126 -0.1328 -0.2769
22481W        W38555   7.952  14.342  15.571 -0.1261  0.0548  0.0653
22482W        W38556  17.465  11.973  13.995  0.2169 -0.1999  0.2480
22483W        W38557   0.775   0.842   3.444 -0.0608 -0.2297 -0.1628
22484W        W38558  16.674   8.847   1.909 -0.2443 -0.1138 -0.3951
22485W        W38559   5.292   2.186  10.831 -0.1008 -0.2250 -0.2069
22486W        W38560  10.380  13.175   5.455  0.2239 -0.0615  0.1733
22487W        W38561  11.738  14.276   2.369  0.0865 -0.1422  0.1674
22488W        W38562   5.098   7.172  11.475  0.1899 -0.4290 -0.0942
22489W        W38563  11.212   8.300   2.880  0.1548  0.0469 -0.3856
22490W        W38564   5.480  11.731   4.793  0.0684 -0.0285 -0.2604
22491W        W38565   7.784   3.133  11.454 -0.0306  0.0031  0.0884
22492W        W38566   1.982  14.743   2.681 -0.1050  0.3757 -0.2727
22493W        W38567  17.541   5.217  15.965 -0.3823  0.3468  0.3415
22494W        W38568   5.183   9.339   3.435 -0.0923  0.0216  0.1963
22495W        W38569   9.412  16.568  15.537 -0.3171 -0.4440 -0.1417
22496W        W38570  16.948   3.452  11.910  0.2081 -0.0779  0.2285
22497W        W38571   6.703  11.025   2.182  0.0324  0.1351 -0.1421
22498W        W38572   2.167   6.857  13.002 -0.1995  0.2802 -0.1011
22499W        W38573  13.132   3.090  11.355 -0.2498  0.1939 -0.1436
22500W        W38574   0.168  18.493  14.205  0.1189  0.1421 -0.1278
22501W        W38575  11.348   7.382   2.724 -0.0657  0.1498  0.1711
22502W        W38576  16.417   2.585  12.640  0.3685  0.3109 -0.1500
22503W        W38577  16.053   3.391  10.027  0.0003  0.0148  0.1523
22504W        W38578  15.033   4.645   2.353  0.0746 -0.2072 -0.0827
22505W        W38579  14.266   7.041  11.861 -0.0288 -0.0212  0.1275
22506W        W38580  14.715  17.539  12.141 -0.2231 -0.1261 -0.1811
22507W        W38581   2.155   8.594   2.444  0.2989 -0.1279  0.0384
22508W        W38582   3.528  17.615  14.334 -0.0053 -0.1657  0.1750
22509W        W38583  12.807   7.531  13.257  0.0842  0.3770  0.3251
22510W        W38584   2.171   6.873  13.807  0.2527 -0.1121 -0.1442
22511W        W38585  11.159   2.740   2.939 -0.0263 -0.1423 -0.0910
22512W        W38586  14.617   8.606  11.433  0.0968 -0.0875  0.0673
22513W        W38587  12.513   9.914   1.293 -0.0610 -0.1717  0.1090
22514W        W38588   0.746  13.933   0.038  0.1896  0.1544 -0.1929
22515W        W38589   1.582   1.954  11.164  0.0926  0.2353 -0.0126
22516W        W38590  12.066   5.016  14.174  0.0891 -0.1281 -0.0154
22517W        W38591  15.024   4.632  11.648  0.0937  0.2006 -0.0904
22518W        W38592   3.833   2.408  13.371 -0.0786 -0.4186 -0.2648
22519W        W38593   8.018  10.951   5.316 -0.1680  0.1059  0.0124
22520W        W38594  13.453  17.546  12.704  0.1996 -0.1171  0.0087
22521W        W38595  12.373  10.557  15.960 -0.1225  0.2122  0.1045
22522W        W38596  18.493   4.955  15.823 -0.2442  0.2737  0.2669
22523W        W38597   0.648   3.354  10.035 -0.0271 -0.0797 -0.0980
22524W        W38598   2.868   9.586   0.683  0.3909 -0.2524  0.1547
22525W        W38599  12.425  18.492   3.058  0.1253 -0.0957 -0.3134
22526W        W38600  11.080   1.331   5.060 -0.0511  0.1026  0.5028
22527W        W38601  14.594   9.420   1.921  0.2570 -0.0243 -0.1754
22528W        W38602  16.297   9.002   0.816 -0.3250 -0.3255  0.1669
22529W        W38603  10.264  10.009  14.233  0.0198  0.1490 -0.1489
22530W        W38604  12.600   4.937   3.672  0.2695 -0.0594  0.0703
22531W        W38605  13.695   3.010   2.719  0.1448 -0.1282  0.0070
22532W        W38606   7.659   2.208   0.013 -0.1319 -0.1848  0.1008
22533W        W38607  14.925   6.110  14.525 -0.0625 -0.0177 -0.0214
22534W        W38608   1.876  16.612  12.101 -0.1974 -0.0485  0.1635
22535W        W38609   6.818  13.507  13.542  0.1800  0.0561  0.0954
22536W        W38610  16.134  16.089   3.845 -0.0876 -0.2677 -0.0523
22537W        W38611   6.982  15.015  11.245 -0.1717  0.1972 -0.0763
22538W        W38612  16.344   1.672  12.130 -0.0874  0.3413 -0.1144
22539W        W38613  17.155   2.974   0.540  0.0909 -0.0568  0.1486
22540W        W38614   8.567  16.058  12.847 -0.3053  0.0258 -0.0550
22541W        W38615   5.428  16.288  11.201  0.0487 -0.0224 -0.0411
22542W        W38616   3.016   1.398  13.713  0.1769 -0.0843  0.0560
22543W        W38617   6.929   5.631   3.516 -0.0349 -0.0063  0.0112
22544W        W38618  11.458  16.293  10.714  0.1456 -0.0525  0.0828
22545W        W38619  10.280   6.736  15.336  0.2028  0.1325  0.1642
22546W        W38620  16.547   0.659  12.776 -0.0863  0.3278 -0.1438
22547W        W38621   0.593   7.529   3.684 -0.0298 -0.1839 -0.0097
22548W        W38622  15.416   2.547   1.367  0.0312  0.1553 -0.0289
22549W        W38623   1.688   2.491  11.421  0.2962 -0.0399 -0.1460
22550W        W38624  10.878  11.537  11.481 -0.0729  0.0899 -0.0935
22551W        W38625   0.367   4.035   1.016  0.0006 -0.1100  0.0566
22552W        W38626  10.822  13.642  13.404  0.1532  0.1054 -0.0215
22553W        W38627   6.692  10.656   2.527  0.2379  0.1557 -0.0932
22554W        W38628   4.086   5.512  15.867 -0.1448  0.0301 -0.0770
22555W        W38629   2.146   6.346   1.345  0.1831  0.4070 -0.2474
22556W        W38630   1.440  13.610   2.095  0.2704  0.2418 -0.4665
22557W        W38631  12.316   0.279  12.030 -0.0747 -0.1468  0.0746
22558W        W38632  16.965   2.259   2.814 -0.0179 -0.2587  0.2539
22559W        W38633  14.572   8.734   5.899  0.2086  0.0991  0.0820
22560W        W38634   8.100  11.251  11.157  0.1169 -0.0452  0.2069
22561W        W38635   8.349  13.878  12.106 -0.3610 -0.1998 -0.0110
22562W        W38636  13.578  16.645   4.295 -0.1692 -0.1449 -0.0798
22563W        W38637  16.932  10.389   1.966 -0.1155 -0.0046 -0.3353
22564W        W38638  14.803   1.808   4.549 -0.2908  0.2114 -0.0484
22565W        W38639  15.941   9.271  12.569  0.1846 -0.0688  0.1815
22566W        W38640   0.991  10.082  12.872 -0.2242 -0.2085 -0.0021
22567W        W38641   7.059   5.569   3.971  0.0884 -0.2003 -0.2063
22568W        W38642   4.608   3.963   5.195 -0.0156  0.1330  0.0385
22569W        W38643  16.426  10.434   3.818  0.0366 -0.1100 -0.1144
22570W        W38644  13.205  15.431  11.825  0.2478 -0.0871 -0.1233
22571W        W38645  18.050  13.015  11.758 -0.2613  0.4973  0.1867
22572W        W38646   6.184  10.942   2.249 -0.1010  0.1885 -0.0585
22573W        W38647  13.347   4.983  14.260 -0.0134 -0.1122 -0.4340
22574W        W38648   0.039   4.820   3.432 -0.1446 -0.0411 -0.1765
22575W        W38649  14.874   7.979  11.643  0.2415  0.2260  0.0567
22576W        W38650   8.774   4.189   1.791  0.0749  0.1577 -0.2551
22577W        W38651  15.997   7.450   0.197 -0.1041  0.3366 -0.1269
22578W        W38652   5.866   7.859  14.593  0.2232  0.0686  0.0274
22579W        W38653   5.927   9.898   4.188  0.3001  0.0908 -0.1452
22580W        W38654   0.506   1.616   2.920 -0.2859  0.3127  0.1249
22581W        W38655   5.214   0.878  13.066  0.1193  0.2264 -0.1386
22582W        W38656  11.394  12.700  11.775 -0.1741 -0.1839 -0.0424
22583W        W38657  12.285   5.792  14.527  0.1929 -0.3146  0.1338
22584W        W38658   6.929  10.000  11.450 -0.1511 -0.1334  0.2605
22585W        W38659   3.291   4.753  13.320  0.1165 -0.4144 -0.1953
22586W        W38660  17.378   1.246  15.812 -0.3543 -0.2616  0.0164
22587W        W38661  15.480  14.140  15.844  0.0147  0.5456  0.0373
22588W        W38662   2.021  13.985  14.005 -0.1402  0.0214  0.0761
22589W        W38663   4.607   4.308   2.115 -0.0826 -0.2099  0.1521
22590W        W38664  12.387   4.638   1.457 -0.1516 -0.1290 -0.0493
22591W        W38665  14.504  12.250  13.569 -0.1471 -0.0440 -0.0156
22592W        W38666   1.235   0.464   4.702  0.1546 -0.1306 -0.1448
22593W        W38667   5.853  16.214   3.766 -0.1459 -0.1862 -0.1959
22594W        W38668  13.262  14.154  15.167 -0.0633 -0.1373 -0.3566
22595W        W38669   1.219   0.914  11.709 -0.1866  0.2198 -0.2182
22596W        W38670   0.645   8.352   4.519  0.3278 -0.0888  0.1007
22597W        W38671   3.283   0.107  14.884  0.3177  0.0590 -0.1972
22598W        W38672  17.289  10.261  14.284  0.2803 -0.0921 -0.1711
22599W        W38673  15.531  13.562  11.979 -0.0759  0.2279  0.6193
22600W        W38674  10.418   2.099   4.477  0.1299  0.1187 -0.2839
22601W        W38675   6.609   1.307  15.260  0.1725  0.0606  0.2956
22602W        W38676  16.016  18.284  11.818  0.0324 -0.2003  0.2366
22603W        W38677   0.762   8.454   2.334  0.1679 -0.1058 -0.2171
22604W        W38678   0.644   5.558   4.107 -0.3719  0.0163 -0.1185
22605W        W38679  14.437   3.256   1.595 -0.2318  0.0136  0.2011
22606W        W38680   9.293   5.175   0.319 -0.0685 -0.0562  0.1272
22607W        W38681  14.790  10.457  11.679 -0.1214  0.2625 -0.1553
22608W        W38682   9.006   8.137   3.360 -0.0296  0.1466 -0.5331
22609W        W38683  17.587  15.243  12.541  0.0972  0.0210  0.1608
22610W        W38684  12.905   6.118   0.475 -0.4979 -0.3463 -0.2382
22611W        W38685   5.106   0.913  13.593 -0.0318  0.3981 -0.0800
22612W        W38686   6.176  12.251  12.721 -0.4197 -0.0257  0.0546
22613W        W38687  15.786   0.599  12.027  0.0442  0.1670 -0.0568
22614W        W38688   6.668   1.720   2.809 -0.0689 -0.1248  0.2962
22615W        W38689   2.703   6.827  13.816 -0.3398 -0.3254  0.1246
22616W        W38690   3.669  15.755  12.476 -0.1466 -0.1336  0.1885
22617W        W38691  15.615  11.798  14.752  0.2292 -0.0139  0.2141
22618W        W38692   9.365  10.688  15.671 -0.0266 -0.0292 -0.1010
22619W        W38693   6.989  13.301   4.388  0.2610 -0.0063  0.0281
22620W        W38694  11.450  18.170   0.311 -0.1022  0.2230 -0.0226
22621W        W38695   5.235  14.180   4.323 -0.0445 -0.1628 -0.3950
22622W        W38696  13.942  12.857   3.752  0.0113  0.1914  0.2627
22623W        W38697   6.457  15.128  13.063 -0.0345 -0.2634  0.1959
22624W        W38698  14.647   1.779  14.748 -0.0871  0.1816  0.2117
22625W        W38699   4.462   0.351  15.839 -0.0442 -0.1482  0.3122
22626W        W38700  17.710   6.555   0.119 -0.0788 -0.3293  0.1540
22627W        W38701   2.656   7.237  14.694  0.5534 -0.0638  0.0408
22628W        W38702   1.715   7.580   1.521  0.2597 -0.4221 -0.0673
22629W        W38703   8.215   4.555   5.408  0.0827 -0.3121  0.1489
22630W        W38704  14.861  15.019  12.229 -0.2277  0.1130 -0.0346
22631W        W38705   2.851   4.713  11.939 -0.2525  0.1614  0.2120
22632W        W38706   8.413   2.727   4.641  0.3463  0.1016 -0.1081
22633W        W38707   4.318   4.502  11.760  0.0080  0.2102  0.0644
22634W        W38708  16.710   5.675   0.122  0.1168 -0.0539  0.1935
22635W        W38709   2.558   3.423  14.905  0.2861 -0.2520 -0.0073
22636W        W38710   4.210   0.985  15.468 -0.0965 -0.0433  0.1115
22637W        W38711   1.774   0.618   0.919  0.0461  0.0849 -0.0551
22638W        W38712   2.812  11.190   5.082  0.0179  0.2111 -0.0277
22639W        W38713   9.052  11.951   4.060  0.4775  0.0521  0.1709
22640W        W38714  13.593  15.702  14.520  0.0315 -0.3134  0.1034
22641W        W38715   8.301   6.322   4.477  0.1324 -0.0301 -0.0306
22642W        W38716   4.543  10.878   3.689  0.4212  0.1268  0.2355
22643W        W38717   8.144  17.041  13.395  0.0875 -0.2733  0.0392
22644W        W38718   9.393  17.671   5.524  0.0612 -0.1067 -0.1078
22645W        W38719  15.223   1.445   3.938  0.2383 -0.3262  0.0339
22646W        W38720  16.926   2.096  14.380  0.1310  0.3301  0.1271
22647W        W38721  13.680  15.229  14.845 -0.1726 -0.0796 -0.2738
22648W        W38722  15.388   6.457  14.622  0.0554 -0.4026  0.0120
22649W        W38723   0.937   9.756   4.215  0.3045 -0.0439 -0.0846
22650W        W38724   1.560   4.874   3.445  0.0533 -0.1776 -0.1093
22651W        W38725  15.899  17.373  12.873  0.0546 -0.2155  0.4288
22652W        W38726  10.401  11.511  11.730  0.0932 -0.0787  0.3535
22653W        W38727   8.394   4.709  11.283  0.4316  0.1131 -0.0937
22654W        W38728  18.253   1.621  13.923 -0.1004 -0.1304  0.1134
22655W        W38729   6.323  17.280  10.560 -0.0876 -0.0371  0.2181
22656W        W38730  11.808   4.008   2.859  0.1628 -0.2769 -0.4124
22657W        W38731  11.874   6.457  12.875  0.1062  0.0897 -0.2329
22658W        W38732   4.871   9.125  11.747  0.3421 -0.0086  0.3691
22659W        W38733   4.476  15.652   2.753  0.2639  0.1004 -0.0272
22660W        W38734  17.178  12.149  15.205  0.1673  0.1679  0.2477
22661W        W38735   1.609  15.256  12.125  0.1604 -0.0296  0.0151
22662W        W38736  15.723   7.640  15.055  0.0273 -0.1678  0.1489
22663W        W38737   0.295  14.413  14.733 -0.3631  0.1688  0.0972
22664W        W38738  13.920  16.182   1.242 -0.4271 -0.2916 -0.3483
22665W        W38739  14.286   3.048  15.607  0.1149  0.0511 -0.0795
22666W        W38740   7.527   3.552  11.771  0.1067 -0.5009 -0.1377
22667W        W38741  14.370  15.428  14.966 -0.3722  0.2536  0.1059
22668W        W38742   8.998   4.468  12.312  0.0575  0.2352 -0.2059
22669W        W38743   3.739  12.494   1.982 -0.3024 -0.2077 -0.1002
22670W        W38744   6.467   9.939   1.268  0.0872 -0.1854 -0.0241
22671W        W38745   6.883  17.832  11.094  0.2360  0.0032 -0.0865
22672W        W38746   7.118  13.150  14.886  0.0946  0.0957  0.0898
22673W        W38747  17.879   7.168  11.471 -0.0964  0.1569 -0.2808
22674W        W38748  17.430   9.449   5.132  0.1452  0.0809 -0.3701
22675W        W38749  12.622   6.132  14.673  0.1645 -0.2918 -0.0387
22676W        W38750   3.236   8.297  14.690  0.1082 -0.1299  0.0696
22677W        W38751  16.890  11.242  11.110  0.0638 -0.1997 -0.5130
22678W        W38752   2.277   7.880   3.348 -0.3216 -0.2531  0.2524
22679W        W38753  13.203   2.700  14.947  0.3538 -0.0962  0.0108
22680W        W38754   7.005  15.436  11.462 -0.0714  0.2040 -0.0560
22681W        W38755   0.979   3.336  11.312 -0.1492  0.1278  0.0568
22682W        W38756   5.672   3.078   9.812 -0.2303  0.0855 -0.0963
22683W        W38757  13.935   5.468   1.657  0.1259 -0.1053  0.2734
22684W        W38758  14.830   8.992  10.666  0.1550  0.3564 -0.1195
22685W        W38759  12.825   1.516   3.183 -0.3867  0.0912 -0.0341
22686W        W38760   6.068   5.964   0.951  0.2430 -0.2436  0.2007
22687W        W38761  15.475   9.984   3.118 -0.4286  0.3055  0.2222
22688W        W38762  10.882  11.343   4.869 -0.1825  0.0466  0.1723
22689W        W38763   0.563   3.574  14.383  0.2418 -0.0189  0.0012
22690W        W38764   3.575  11.615  13.434 -0.1295 -0.0840  0.1697
22691W        W38765  15.437   0.193  12.235 -0.1040 -0.0220  0.0464
22692W        W38766   1.279   3.501   3.875 -0.0369 -0.0721  0.3602
22693W        W38767   9.639   3.355  11.192  0.0185 -0.0455 -0.2833
22694W        W38768   7.544   6.399  11.907  0.1705  0.1579  0.1393
22695W        W38769  15.586  18.498  12.610 -0.2989  0.0626  0.2718
22696W        W38770   4.791   9.255   3.748 -0.0085  0.1476 -0.1446
22697W        W38771  12.285  16.177   0.158 -0.0663 -0.3088  0.0996
22698W        W38772  18.290   9.993   4.411 -0.4556  0.1565  0.0558
22699W        W38773   3.668  18.449  15.611 -0.0173 -0.0248 -0.2296
22700W        W38774  18.216   6.490   3.809  0.0241 -0.1680  0.2225
22701W        W38775  10.608   2.490   0.284 -0.1002 -0.1371 -0.1816
22702W        W38776  11.099  11.461  14.908 -0.2892  0.2440 -0.0375
22703W        W38777   2.985  11.249  11.976  0.3029  0.0051 -0.1947
22704W        W38778   7.114   3.574  10.453 -0.0322  0.0526  0.0714
22705W        W38779   6.690  12.818  13.010 -0.1630  0.3401  0.1918
22706W        W38780  12.723   3.400  14.627  0.2319  0.2882  0.0263
22707W        W38781   3.528  11.209   0.668  0.1633 -0.0049 -0.3009
22708W        W38782   1.302   2.674  12.938  0.1016 -0.0986 -0.0627
22709W        W38783  15.760   4.728   3.929 -0.1978  0.0929 -0.0102
22710W        W38784   6.229   9.524   4.311  0.0763  0.1478  0.1313
22711W        W38785   4.148  11.090   5.442  0.1924  0.0188  0.0746
22712W        W38786   6.591  12.701  11.993 -0.2456  0.1689  0.1958
22713W        W38787   7.162  11.082  12.749  0.2712 -0.0066 -0.0374
22714W        W38788  11.908   5.641   5.831  0.0809  0.0473  0.0972
22715W        W38789   1.865   9.980   4.880  0.1587 -0.0967 -0.1001
22716W        W38790   8.218   1.807  11.853  0.0636 -0.0323 -0.1141
22717W        W38791  15.083   0.287  14.154  0.1773  0.0473  0.2118
22718W        W38792   1.051  13.284   0.997  0.2443 -0.2268  0.0683
22719W        W38793  10.171  17.199  14.214 -0.0464 -0.2322 -0.1367
22720W        W38794   3.911   5.305  12.790  0.0825 -0.0524  0.0084
22721W        W38795  14.381   5.623   4.412  0.0566  0.0512 -0.0882
22722W        W38796   4.800   6.978  12.485  0.1451  0.2558  0.1602
22723W        W38797  10.522   5.026   0.787 -0.1890  0.0700  0.0226
22724W        W38798  11.511  10.452  14.780  0.1614  0.1072  0.2159
22725W        W38799  10.354   3.536  14.979 -0.4421  0.2153 -0.2125
22726W        W38800   1.041   9.199  14.581  0.3704 -0.2565  0.0323
22727W        W38801  16.147   7.581   0.912 -0.2501 -0.1223  0.1321
22728W        W38802  10.532  14.675  15.921 -0.1371  0.0958 -0.0255
22729W        W38803  18.558   1.795   4.743 -0.0316 -0.1770 -0.1125
22730W        W38804   3.378  16.852   0.633  0.0689  0.3231  0.0961
22731W        W38805   5.297  14.640  13.995 -0.1239  0.1196 -0.0953
22732W        W38806   8.729  15.700   1.625 -0.0902  0.0076  0.0723
22733W        W38807  11.053  14.483   4.655  0.2680 -0.2386 -0.0697
22734W        W38808  12.011  15.274  14.521  0.4611  0.0912  0.0032
22735W        W38809   0.272   1.417   3.921 -0.0495 -0.1170 -0.0976
22736W        W38810  12.820   3.060  15.581  0.1984 -0.4842 -0.1847
22737W        W38811   0.749   2.874   4.054  0.1606  0.4130 -0.1075
22738W        W38812  10.845  10.549   2.693 -0.3286  0.1173 -0.1118
22739W        W38813  18.504   3.694   1.803  0.4232 -0.3558 -0.1130
22740W        W38814   0.094  13.865   2.840  0.0084 -0.2202  0.2049
22741W        W38815   5.923   8.478  12.270  0.0728 -0.0932  0.1791
22742W        W38816  14.105  11.418  15.757  0.0396 -0.0306  0.1320
22743W        W38817  11.147  10.198   4.891 -0.0993 -0.3393  0.2899
22744W        W38818   6.269   7.999   3.424  0.1856  0.0511  0.1274
22745W        W38819  18.273   1.096   1.377 -0.1597  0.1809  0.1905
22746W        W38820  15.705  10.733   1.327  0.0360 -0.2920 -0.0488
22747W        W38821  17.489   9.363  11.255 -0.1410  0.0428 -0.0263
22748W        W38822   7.595  12.479  15.562 -0.0400  0.0840 -0.0514
22749W        W38823   3.915   8.639   2.720 -0.1766 -0.0226 -0.3162
22750W        W38824   0.526   4.642   2.654  0.4724 -0.0957 -0.2090
22751W        W38825   9.435  14.553  15.699  0.0775 -0.1423  0.2067
22752W        W38826  10.734   3.466  12.050 -0.0361 -0.1187  0.2156
22753W        W38827   5.908  15.641  14.645  0.0114  0.0551 -0.1742
22754W        W38828   7.367   5.149  13.167 -0.0897  0.0744  0.1075
22755W        W38829   4.262  16.507  13.349 -0.1088  0.4435 -0.1859
22756W        W38830   4.707   3.754   2.157  0.1013 -0.2665  0.3420
22757W        W38831  14.397   2.676   4.940  0.0280  0.0536  0.0868
22758W        W38832  13.338  11.373   3.611 -0.0726 -0.1844 -0.2356
22759W        W38833   5.868   7.975  15.136  0.3375  0.0584  0.0174
22760W        W38834   3.615  17.858   0.548 -0.1141  0.1276  0.2400
22761W        W38835   0.116   9.699  15.250  0.0574  0.0589  0.0983
22762W        W38836  12.607   4.322   4.921 -0.4924 -0.2146  0.0643
22763W        W38837   3.335   1.781  15.319 -0.2709  0.1715 -0.1846
22764W        W38838   9.567  15.268  11.154  0.1589 -0.1288  0.0753
22765W        W38839  17.751   8.027   0.430  0.1388  0.0098  0.2894
22766W        W38840  17.872   3.915   0.520  0.2596  0.3446 -0.2808
22767W        W38841  14.360  17.367   4.725 -0.0657  0.0292 -0.1641
22768W        W38842  10.915  10.314  12.506  0.2354 -0.0532  0.0201
22769W        W38843   9.577   0.783   1.863  0.1626  0.1722  0.0002
22770W        W38844  17.597   0.906   0.527 -0.2664  0.2321  0.0042
22771W        W38845  16.966   0.355   0.050  0.2757  0.1043  0.3710
22772W        W38846  13.823   8.757   3.542 -0.0210  0.2081 -0.2017
22773W        W38847   9.678  12.116  15.884  0.1178 -0.0874 -0.1306
22774W        W38848  12.692  11.868  15.699  0.0199 -0.2161 -0.0218
22775W        W38849   8.262   6.160   2.912 -0.3778  0.1674  0.0480
22776W        W38850   6.703  12.845  14.020 -0.0903  0.3127  0.0798
22777W        W38851   1.596  12.057   2.694  0.0658  0.0044 -0.0525
22778W        W38852   2.012   4.545   3.462 -0.2280  0.0208  0.2626
22779W        W38853  16.212  13.458   4.080 -0.1048  0.0392  0.2724
22780W        W38854   9.878  13.569   2.602  0.0527 -0.0858  0.2964
22781W        W38855   4.567  17.386   2.827 -0.3670  0.1887  0.3439
22782W        W38856  12.321   0.937  11.076  0.2695 -0.0930  0.0477
22783W        W38857   0.651  16.302  14.348  0.1133  0.1103  0.0753
22784W        W38858   9.371  18.276   5.614 -0.4230 -0.0109 -0.0820
22785W        W38859   8.604  17.690   1.138 -0.1879 -0.0321 -0.2052
22786W        W38860   5.031   7.560  13.175 -0.0808  0.1844 -0.1823
22787W        W38861   1.112  16.496  11.549 -0.2503  0.0616 -0.2072
22788W        W38862   8.107   7.498  12.658  0.2239  0.1277 -0.0731
22789W        W38863   3.678  16.543   3.730 -0.2402  0.0264  0.2578
22790W        W38864   0.285   9.779  12.543  0.2697  0.0456 -0.0964
22791W        W38865   2.583  10.286  14.587 -0.2863  0.1224 -0.2086
22792W        W38866  12.025   7.662  12.026 -0.2207  0.1224  0.2947
22793W        W38867  13.747   2.139  12.120 -0.0397  0.3633  0.1748
22794W        W38868   6.512  10.462   2.989  0.3501  0.0478  0.1389
22795W        W38869   5.870  10.708   6.022 -0.0101  0.0193 -0.1107
22796W        W38870  18.018  17.727   3.313 -0.2152 -0.0159 -0.2017
22797W        W38871   7.782  14.197  14.455  0.4159 -0.1308 -0.4129
22798W        W38872  18.009   3.114   2.191  0.1152  0.3102  0.2800
22799W        W38873  11.455   6.938  14.740 -0.3640 -0.0895 -0.0175
22800W        W38874   3.813  13.310   4.773 -0.0249  0.0529  0.1438
22801W        W38875   8.926   9.528  12.761 -0.1501 -0.1619  0.0723
22802W        W38876  13.620  16.447   4.766  0.2259  0.0004 -0.2181
22803W        W38877   6.877   3.600   4.827 -0.2069 -0.2026  0.0172
22804W        W38878   2.635  13.751  15.777  0.4086  0.1464  0.1185
22805W        W38879   2.602  12.895  15.499  0.0140  0.2446  0.0153
22806W        W38880   0.433  18.005  14.423 -0.0267  0.2162  0.2188
22807W        W38881   6.376   1.318   2.344 -0.0709  0.1583 -0.2017
22808W        W38882  13.694   7.193  12.876 -0.1230  0.0471 -0.3893
22809W        W38883   5.737   8.900   0.083 -0.3469  0.0389 -0.0701
22810W        W38884   3.256   6.725  13.706 -0.2597  0.2058 -0.0747
22811W        W38885   8.954   9.672  11.366  0.1960 -0.2341  0.1039
22812W        W38886   3.395  16.690   4.222  0.0857 -0.0557  0.2358
22813W        W38887  11.054  15.850  10.949  0.3980 -0.1019  0.1011
22814W        W38888   0.991  10.968  12.113 -0.2343 -0.0862 -0.4221
22815W        W38889   2.755  16.601  13.719  0.0528 -0.1008 -0.0707
22816W        W38890  15.620   9.230  12.972  0.0374 -0.0878  0.1948
22817W        W38891  10.473  13.265  13.605 -0.1211 -0.3647  0.1895
22818W        W38892  17.251   7.438   2.705 -0.0004 -0.1450 -0.1557
22819W        W38893  15.594  11.361  14.504  0.1205  0.0559 -0.2232
22820W        W38894  12.529   8.010  14.774  0.0129  0.2239 -0.3769
22821W        W38895  11.672   1.447  11.577  0.3696 -0.0567  0.3740
22822W        W38896  11.136  17.115  13.810  0.1617 -0.0682  0.1365
22823W        W38897   4.436  17.620   3.712  0.0767  0.1170  0.1037
22824W        W38898  11.441   2.336  14.620 -0.0656  0.1640 -0.0539
22825W        W38899  11.474  13.009  10.763  0.1191 -0.0155  0.2281
22826W        W38900  17.001   2.119   4.136 -0.1420 -0.0037 -0.1086
22827W        W38901   8.736   8.233   4.977  0.1575 -0.0554  0.0697
22828W        W38902   0.908   7.888  15.996  0.1480 -0.0721  0.0015
22829W        W38903   6.271  15.008   4.743  0.2113 -0.3148 -0.0340
22830W        W38904   2.309   6.945   5.773  0.1165 -0.1235  0.1393
22831W        W38905  18.333   3.243  10.356 -0.0107 -0.3215  0.0529
22832W        W38906   8.888   8.056   3.843  0.2344 -0.2257  0.0087
22833W        W38907   4.952   1.764   2.686 -0.1423  0.0359  0.2554
22834W        W38908  11.666   2.273  13.379 -0.1282 -0.0854 -0.0556
22835W        W38909   5.596   6.080   0.078  0.0786 -0.1159  0.2788
22836W        W38910  10.597   1.750   4.824 -0.4459  0.3502 -0.0884
22837W        W38911   2.061  13.884   5.403  0.0213 -0.1314  0.1100
22838W        W38912  15.100  12.368  13.687  0.2290 -0.1950  0.1387
22839W        W38913  10.982   9.537  13.165 -0.2482  0.2914  0.0118
22840W        W38914   3.623   8.249   5.092  0.2486  0.0485  0.2220
22841W        W38915   1.130  12.609   3.979  0.1341 -0.1358 -0.1768
22842W        W38916   2.653  10.905   3.573 -0.1076  0.0503  0.1926
22843W        W38917  17.706   1.631  14.569  0.0085  0.2666  0.0030
22844W        W38918   8.680  14.089   0.341 -0.0931 -0.3680  0.0629
22845W        W38919   7.974   4.144   5.496  0.0748 -0.0262  0.2005
22846W        W38920   4.837  17.968  15.660  0.2126 -0.0188 -0.2056
22847W        W38921   1.539  10.348   0.777 -0.0996 -0.0679 -0.4235
22848W        W38922   3.240   8.320  13.315  0.2536  0.0710  0.0830
22849W        W38923   4.020  13.454  12.780 -0.1010  0.0692 -0.2207
22850W        W38924  13.113   3.823   0.590  0.1553  0.1152  0.2236
22851W        W38925  12.147   4.307   5.822  0.0533 -0.2259  0.0937
22852W        W38926   8.390   4.916   2.965 -0.2719  0.1092  0.0072
22853W        W38927  16.835  12.211   3.708 -0.0385 -0.2480  0.0626
22854W        W38928  16.510  12.606   4.382  0.0727 -0.0604  0.0390
22855W        W38929   8.954   1.399   2.766  0.0046 -0.0576  0.2201
22856W        W38930   4.358  16.181   3.335 -0.2286  0.0661  0.3049
22857W        W38931   6.720   7.526   4.564  0.2001  0.2081 -0.2230
22858W        W38932   7.961  12.840   0.499  0.6636  0.1431 -0.4728
22859W        W38933   3.906  14.784   1.816  0.3512 -0.3046 -0.0353
22860W        W38934  17.977   0.667  12.484 -0.0370 -0.0811  0.1381
22861W        W38935  14.085   8.761  13.530 -0.1957  0.0253  0.0549
22862W        W38936  15.860  17.223   4.317 -0.0335 -0.1324  0.2641
22863W        W38937  14.631  15.142   1.873 -0.1472  0.1171  0.4744
22864W        W38938   9.425  17.152  10.958  0.1156  0.2490  0.0082
22865W        W38939  11.909   0.691   3.448 -0.0639  0.2276 -0.2113
22866W        W38940  13.554   5.233   0.760 -0.0884 -0.0587  0.0388
22867W        W38941   6.518   6.451  12.882  0.1965  0.0854 -0.2437
22868W        W38942   7.702  14.209   1.630  0.0991  0.0324  0.1676
22869W        W38943   0.571   1.978   3.353  0.1112  0.2968  0.0880
22870W        W38944   6.440  12.532   3.168 -0.2836  0.0963  0.1133
22871W        W38945  16.508  17.951   0.928  0.2951  0.5201  0.1955
22872W        W38946  10.632  13.758   3.118  0.4501 -0.0936 -0.1465
22873W        W38947  12.404  15.500   4.465  0.2096  0.0024 -0.1169
22874W        W38948   3.277  15.528  12.320  0.1107  0.2624  0.0488
22875W        W38949   3.253  12.253  12.948  0.0067 -0.0948  0.1865
22876W        W38950   0.734   3.331  12.770 -0.1071 -0.1430  0.0019
22877W        W38951   3.692   3.440   1.295  0.4146  0.0937 -0.0726
22878W        W38952   2.332   9.766   1.832  0.2921 -0.4937 -0.1194
22879W        W38953  16.482   1.990   4.935  0.1978  0.0884 -0.2620
22880W        W38954  11.957   9.118   0.343 -0.0031  0.1505  0.0485
22881W        W38955  14.935   5.275  15.027  0.0534  0.0193 -0.0634
22882W        W38956   9.251   5.924  12.253 -0.0274 -0.2929  0.0859
22883W        W38957  11.332  11.429   2.068  0.0394  0.1500 -0.1358
22884W        W38958   3.283   3.687   1.086  0.0710 -0.3144  0.1580
22885W        W38959   5.224   0.587   4.234 -0.1599  0.2180 -0.0755
22886W        W38960   9.083  10.975   1.455  0.2683 -0.0895 -0.2285
22887W        W38961   0.899   9.812  11.964  0.1257 -0.0750 -0.0445
22888W        W38962  15.788   9.957   1.753  0.3233 -0.4289  0.1237
22889W        W38963  15.773   0.186   3.102 -0.1187 -0.1646 -0.1569
22890W        W38964  13.628  10.129  13.202 -0.2133 -0.0946 -0.0744
22891W        W38965  16.303  12.426  13.045  0.0069 -0.1697  0.0047
22892W        W38966   4.834  17.434  14.653 -0.0785  0.1747 -0.0010
22893W        W38967  12.455  13.608  13.114 -0.2023  0.0362  0.3228
22894W        W38968  18.226  17.913  15.680  0.2081 -0.0382 -0.0546
22895W        W38969  13.468   6.813   0.223  0.1511  0.0443  0.0243
22896W        W38970   2.664   9.172   5.079  0.0642 -0.0939 -0.2639
22897W        W38971   8.450  13.823   3.609 -0.0665  0.1310 -0.2545
22898W        W38972   0.873   9.649   4.969 -0.3220 -0.3923  0.2814
22899W        W38973   7.341  16.403   3.954  0.3192 -0.0267 -0.1485
22900W        W38974  16.347   6.686   0.662  0.1266  0.3754 -0.5872
22901W        W38975   7.763  10.592   5.695 -0.3158  0.1335 -0.4580
22902W        W38976   3.187  14.647   4.224  0.3040 -0.2760  0.1836
22903W        W38977   5.105  13.149   4.303 -0.4332  0.2041 -0.2146
22904W        W38978   0.495   7.552   2.420  0.0730  0.2417  0.0817
22905W        W38979   6.845  10.951  15.771 -0.1398  0.1216  0.1573
22906W        W38980  10.761   5.226  13.556 -0.1840 -0.2787  0.4242
22907W        W38981   3.514   2.193   4.807  0.2102  0.0963 -0.0753
22908W        W38982  10.660   2.879   3.102 -0.0942  0.0475  0.2180
22909W        W38983  17.008  11.729   4.874 -0.1841 -0.1290  0.1342
22910W        W38984   5.423  17.855   4.818 -0.1402  0.3395  0.0589
22911W        W38985   7.383  14.330   4.322 -0.0450  0.0317  0.1890
22912W        W38986   7.801  17.558  15.210 -0.0940 -0.0070  0.1387
22913W        W38987   8.909   4.512   5.828 -0.0135 -0.0361  0.0960
22914W        W38988   0.095  10.107   3.998  0.0063 -0.2849 -0.2945
22915W        W38989  13.802   0.950  11.397  0.1875  0.0812  0.1081
22916W        W38990   4.263   0.284  11.372 -0.1722 -0.2244 -0.2222
22917W        W38991  16.192  16.261   0.764 -0.3264  0.0131 -0.5270
22918W        W38992  17.161   6.872  11.563 -0.0659 -0.0796  0.2438
22919W        W38993  15.665   0.227  15.015 -0.2025 -0.1897  0.0151
22920W        W38994  14.122   6.591   1.665 -0.3388 -0.0281 -0.1546
22921W        W38995   7.636   1.547  13.378 -0.1088  0.1645  0.2270
22922W        W38996   7.280  13.302  13.359 -0.0097 -0.0688 -0.0708
22923W        W38997   6.591   5.302  14.545  0.0252  0.3580 -0.1587
22924W        W38998  11.941  15.942   4.107  0.0540 -0.1275 -0.0807
22925W        W38999   1.691  18.256  10.177 -0.1413 -0.0075  0.0637
22926W        W39000  11.616  18.281  12.676  0.1758 -0.0781 -0.2000
22927W        W39001   6.332   4.025   5.441  0.1033 -0.0061  0.4116
22928W        W39002  18.423  12.834  15.086  0.1051 -0.0240  0.0988
22929W        W39003   7.437  14.050  12.325 -0.0911  0.1448 -0.1465
22930W        W39004   0.832   6.558   0.978  0.1119  0.2077  0.0402
22931W        W39005   1.101  10.096   0.601  0.1950 -0.2250 -0.1209
22932W        W39006  17.326  13.094   6.173 -0.3767 -0.0056  0.1127
22933W        W39007   5.088  13.995  12.375 -0.0515 -0.0641 -0.1905
22934W        W39008  11.672   5.580  11.237 -0.1831  0.0155  0.2521
22935W        W39009  16.664  16.215  15.184 -0.2240 -0.2118 -0.3443
22936W        W39010  11.778  11.488   4.318  0.1037 -0.0064  0.0022
22937W        W39011   4.165  18.504  15.532 -0.1608  0.4105  0.1359
22938W        W39012  11.875   9.032   1.687  0.1123 -0.1572 -0.0917
22939W        W39013   1.006  13.408   1.939  0.0058 -0.0909 -0.1651
22940W        W39014   3.273  12.988   4.035 -0.0481 -0.0317 -0.1339
22941W        W39015  18.051  10.929   6.155 -0.3726 -0.0968  0.2603
22942W        W39016  18.121  15.781  10.292 -0.2043 -0.1712  0.3889
22943W        W39017   3.148   6.017   0.200  0.0406 -0.2127 -0.2248
22944W        W39018   1.020   9.249   1.391  0.2252 -0.1973  0.0672
22945W        W39019  15.511  16.592  12.528  0.0579  0.2566  0.0353
22946W        W39020   3.490  15.110   0.776  0.1946 -0.0767 -0.0455
22947W        W39021   7.428   5.557  13.479 -0.2739  0.0636 -0.0201
22948W        W39022   2.753   9.272  13.151  0.3157 -0.1472 -0.1295
22949W        W39023   5.705  14.739   5.779 -0.1097 -0.2084  0.2354
22950W        W39024   4.839   9.125   2.379  0.0529  0.1727  0.1436
22951W        W39025   6.477   7.736   0.785  0.0800 -0.0134  0.2004
22952W        W39026  10.971  10.070   0.192  0.0268 -0.0382 -0.0650
22953W        W39027  18.017  15.227   2.765  0.3416  0.1766  0.0254
22954W        W39028   9.023  13.610  10.401 -0.0497 -0.2057 -0.3310
22955W        W39029  10.955  17.496   4.703 -0.0763 -0.0778  0.1074
22956W        W39030  15.081   7.094   3.251 -0.0480 -0.0198 -0.0578
22957W        W39031   8.103  13.916  11.686  0.0339 -0.0033 -0.0398
22958W        W39032  15.555   6.976   1.971 -0.0705 -0.0430  0.1753
22959W        W39033   0.938  14.960   2.867 -0.1460  0.2564 -0.0051
22960W        W39034   9.791  16.654  13.005  0.2130 -0.1495  0.2266
22961W        W39035   8.613   5.412   1.258  0.0387  0.1713  0.0370
22962W        W39036  14.427  15.733  13.433  0.1344 -0.1859 -0.0739
22963W        W39037  16.581   8.403  13.299  0.3736  0.2050 -0.0865
22964W        W39038  15.556   0.367  14.472 -0.1378  0.2970  0.1352
22965W        W39039  12.129   6.652   0.165 -0.0650 -0.1995  0.1069
22966W        W39040  15.786  13.435   3.094  0.0743  0.0703  0.2485
22967W        W39041   9.575   2.419   5.935 -0.0121 -0.0268  0.2075
22968W        W39042  10.130   3.687  13.285  0.0539 -0.3302  0.0425
22969W        W39043  16.215  14.853  12.445  0.1043 -0.1463 -0.0431
22970W        W39044   1.306   7.857   0.290  0.0806 -0.0010  0.2314
22971W        W39045  17.138   6.771  14.382  0.2406 -0.0812 -0.0093
22972W        W39046  11.115   9.807   1.292 -0.2222  0.3019 -0.2508
22973W        W39047   9.941   5.647   3.710  0.2035  0.0538 -0.3739
22974W        W39048   6.033  13.243   4.319 -0.2393 -0.0457 -0.1035
22975W        W39049   7.666   4.176   2.896  0.3290 -0.3422 -0.0177
22976W        W39050   6.870  12.218   1.785 -0.2478  0.2600 -0.4763
22977W        W39051   7.327  12.497   0.217 -0.3542 -0.1842  0.1855
22978W        W39052   7.091   6.964   0.320 -0.0947  0.2773 -0.3576
22979W        W39053  16.424  12.612   2.501  0.4021 -0.3076 -0.1005
22980W        W39054  14.461  11.841   4.007  0.2248  0.0368 -0.1321
22981W        W39055   2.730   9.316   2.774 -0.0981 -0.2380 -0.1175
22982W        W39056  14.840  10.984  11.900 -0.1437  0.3148 -0.3213
22983W        W39057  15.953   4.009  15.243 -0.0920 -0.2002 -0.1476
22984W        W39058   7.398   4.255  14.838  0.1749  0.2692  0.0852
22985W        W39059   2.501   7.332  13.835  0.0264 -0.0681  0.2391
22986W        W39060  10.124  15.609   3.916  0.1844  0.0496  0.2057
22987W        W39061   3.956  17.463   3.983 -0.1614  0.0821  0.2055
22988W        W39062   1.620   5.379  13.158 -0.1816 -0.1621  0.2375
22989W        W39063   4.060   1.738   1.884  0.1366  0.2959  0.2647
22990W        W39064   6.942   6.776   5.596  0.1458 -0.2596  0.0150
22991W        W39065   6.111   0.633  14.944 -0.2843  0.0385 -0.0314
22992W        W39066   2.530  15.351  14.903  0.0813  0.1182  0.1621
22993W        W39067  18.513   6.587  14.960 -0.1990 -0.2963  0.0361
22994W        W39068   5.777   8.237   3.610 -0.2068  0.1370 -0.1522
22995W        W39069  16.136   6.077  14.968  0.0770 -0.0440  0.1313
22996W        W39070   8.395   2.806  12.613  0.2006  0.5126 -0.0091
22997W        W39071  14.021  17.721   4.435 -0.3281 -0.2820  0.0270
22998W        W39072  14.989  17.336  16.018 -0.4947 -0.2897 -0.1570
22999W        W39073  17.115  10.090   4.692 -0.1771  0.0360  0.1012
23000W        W39074   0.659  14.593   3.128  0.1878 -0.2910  0.0435
23001W        W39075  16.581   6.777  14.263 -0.0754 -0.0348  0.1182
23002W        W39076   8.211  17.044  13.873  0.0428 -0.2408  0.2432
23003W        W39077  12.155   3.539  14.136  0.0651 -0.0757  0.1556
23004W        W39078  13.309   8.011  12.363 -0.2446  0.1421  0.1412
23005W        W39079   7.505  13.891   3.252  0.0114 -0.2165 -0.0536
23006W        W39080   2.963   1.816  11.550  0.2754  0.1330 -0.3100
23007W        W39081   4.960  16.203  13.419 -0.2386 -0.0788 -0.2406
23008W        W39082  13.381   1.327  15.674  0.0166 -0.1962  0.0505
23009W        W39083   1.761   2.455  13.046 -0.1146  0.0059  0.0918
23010W        W39084  15.210  18.072  10.348 -0.0469  0.0617  0.1360
23011W        W39085   1.909   2.654   2.761  0.1026 -0.0537  0.3154
23012W        W39086   4.119   8.276   0.098  0.1836 -0.0018 -0.0494
23013W        W39087   0.174  10.156  15.452 -0.1143 -0.2723  0.3090
23014W        W39088   7.894   6.233   2.477  0.0007  0.1216 -0.0584
23015W        W39089  16.382  10.233   1.256  0.1036  0.0327  0.0233
23016W        W39090  16.015  12.261   2.683 -0.0949 -0.1377  0.3055
23017W        W39091  12.585  14.638  15.455 -0.0635 -0.0696  0.1357
23018W        W39092   3.172   9.005  15.080 -0.1028 -0.4361  0.0554
23019W        W39093   8.880   0.814  11.566  0.0614  0.1026 -0.1586
23020W        W39094   5.759  17.498  14.463 -0.0070 -0.3776  0.2499
23021W        W39095   8.949  18.552  11.262 -0.1445  0.0756 -0.2727
23022W        W39096   0.258   3.591   3.148 -0.0374 -0.2264  0.1640
23023W        W39097   3.582   0.744  14.248  0.0829  0.0215 -0.1212
23024W        W39098   1.607   6.037  14.421 -0.2957  0.2283  0.1091
23025W        W39099   1.622  11.087  12.504 -0.2758  0.1040 -0.4595
23026W        W39100  15.729   7.989  11.914  0.1221  0.0340  0.3584
23027W        W39101   8.237   4.309   1.592 -0.3179 -0.3180  0.1904
23028W        W39102   4.126  17.092   2.121  0.1840 -0.0087  0.0000
23029W        W39103   0.662  14.647   1.384 -0.3679 -0.0667 -0.0937
23030W        W39104  13.964   5.645  12.029 -0.2696  0.0528  0.2567
23031W        W39105  13.683  15.157   2.310  0.1065 -0.1160 -0.1344
23032W        W39106   1.719   5.456   3.467 -0.0476  0.0835  0.1334
23033W        W39107   9.741   5.594  14.077 -0.0645 -0.4273  0.0603
23034W        W39108   7.512   8.119   5.454 -0.1490  0.0587 -0.1318
23035W        W39109   4.749  14.870  11.159 -0.0352  0.1861 -0.0080
23036W        W39110   9.001   0.107   2.471 -0.1460  0.1029 -0.0297
23037W        W39111  18.312  13.186  10.928 -0.1634  0.1387 -0.1110
23038W        W39112  13.838   1.335   2.606  0.1902  0.1659  0.2701
23039W        W39113  12.317  10.557  11.946 -0.1070 -0.1629 -0.4425
23040W        W39114  11.160   0.888   0.940  0.0603 -0.1102  0.2788
23041W        W39115  11.552   9.773   0.990  0.1351 -0.0935  0.2330
23042W        W39116   7.591   6.155  12.718 -0.2088  0.2536 -0.2086
23043W        W39117  12.842   4.958  14.234 -0.3228  0.1279  0.2117
23044W        W39118   6.889  12.880   5.695  0.0747 -0.0870 -0.2303
23045W        W39119  14.528  17.211   2.237 -0.2303  0.0236  0.5732
23046W        W39120   4.521   8.775   4.602  0.1561 -0.0166 -0.2845
23047W        W39121  10.902  15.573  14.388 -0.0383 -0.2349 -0.0094
23048W        W39122   6.074  17.008  13.100  0.0344 -0.3097 -0.1423
23049W        W39123  17.347   8.880  15.335  0.2257 -0.2123 -0.0107
23050W        W39124  13.997   5.566   0.508  0.0913 -0.0800  0.4430
23051W        W39125   0.108  12.638  12.641  0.1224 -0.0409  0.2006
23052W        W39126  16.232  16.939  15.921  0.0201  0.0549 -0.4617
23053W        W39127  11.045   2.651   0.086 -0.1005 -0.1871  0.1810
23054W        W39128   5.723  17.800  15.734  0.2172 -0.0178  0.0091
23055W        W39129   5.814  17.566   3.233  0.0337 -0.1952 -0.1978
23056W        W39130  17.436   0.373   1.405 -0.1258  0.2195 -0.0723
23057W        W39131   7.641   2.262   4.637  0.1195 -0.2850 -0.2891
23058W        W39132  13.457   1.432  13.460 -0.1666  0.0960 -0.0340
23059W        W39133   6.002  17.758   4.682  0.0887  0.5476  0.2116
23060W        W39134  12.762   2.309  12.626 -0.1332 -0.2101  0.0190
23061W        W39135   5.714   5.249   0.575 -0.1728 -0.2846 -0.2227
23062W        W39136   8.987   0.781   2.008 -0.0454  0.0855 -0.1195
23063W        W39137  14.972   9.940  15.773 -0.0548 -0.0659 -0.0419
23064W        W39138   6.312   1.952  15.977  0.2011 -0.0516  0.0398
23065W        W39139   7.672  18.003  10.512  0.0097  0.2603  0.3833
23066W        W39140   4.603  12.938   1.841 -0.1559 -0.1011  0.0195
23067W        W39141  16.559  13.266   1.962 -0.0506  0.2452 -0.2039
23068W        W39142  11.880   5.369   0.587 -0.1044 -0.3324  0.0541
23069W        W39143  10.917  18.456  10.999  0.2915  0.4104  0.1004
23070W        W39144   6.528   4.046   3.972  0.1908 -0.0856 -0.1606
23071W        W39145   2.276  14.768   3.155 -0.1012  0.1118  0.2755
23072W        W39146  17.782   5.807   3.434 -0.1886 -0.0463  0.0528
23073W        W39147   6.346   5.323   3.095  0.3239 -0.0360 -0.0482
23074W        W39148  14.579   7.320  13.723  0.2943  0.1859  0.0541
23075W        W39149   9.537   8.822  11.787 -0.1552 -0.2513  0.1584
23076W        W39150  15.199  14.825  12.530 -0.1320  0.0287  0.0188
23077W        W39151   1.933   5.972   3.055 -0.0486 -0.0265  0.1835
23078W        W39152  11.940  16.224  12.977  0.0603  0.0195  0.0268
23079W        W39153   7.845   3.661  15.027  0.3340 -0.0771 -0.1424
23080W        W39154   4.790   4.115  14.819 -0.2800 -0.1211  0.0696
23081W        W39155   6.422   2.561  14.538 -0.0245  0.0468 -0.1483
23082W        W39156  16.489   3.078   3.403 -0.0146 -0.2445  0.2067
23083W        W39157  15.640   8.809  14.761 -0.2241 -0.0143 -0.0627
23084W        W39158  13.690  14.688   3.373  0.0947 -0.0110  0.0341
23085W        W39159  10.411   8.712   3.426 -0.2102  0.0897 -0.1765
23086W        W39160  16.064   8.754   0.280 -0.2447  0.1252  0.0602
23087W        W39161   0.102   6.388  13.923 -0.0687 -0.0116  0.1802
23088W        W39162  13.391   6.400   1.188 -0.1940 -0.0690  0.0898
23089W        W39163   2.754   2.513   4.775  0.0696 -0.0230 -0.0640
23090W        W39164  16.682  12.719   3.940  0.0647 -0.2944  0.0273
23091W        W39165   8.865  11.719  12.063 -0.0968 -0.1845 -0.2333
23092W        W39166   7.550  12.345  10.692 -0.2195 -0.2258 -0.0000
23093W        W39167  12.983  11.598  11.157 -0.1020 -0.3754 -0.0676
23094W        W39168   6.241   7.292   4.171  0.0241 -0.0771 -0.0804
23095W        W39169   9.758   0.070   5.806  0.0380 -0.2105  0.2079
23096W        W39170   8.943  12.442   2.529 -0.2078  0.0219  0.0753
23097W        W39171   8.357   9.838  14.449 -0.0197 -0.1976 -0.1702
23098W        W39172   4.646  18.419  10.589 -0.2726  0.0941  0.0689
23099W        W39173   2.466   5.591   3.064  0.1370 -0.0688 -0.3772
23100W        W39174   8.743  12.801   4.917 -0.3089 -0.2344  0.0448
23101W        W39175   0.701   3.430   4.628 -0.0029  0.2711 -0.2229
23102W        W39176  14.693  18.336   4.453  0.0377 -0.0947  0.0214
23103W        W39177   7.700   6.875   0.554  0.0870  0.0759  0.0390
23104W        W39178   0.364  11.200   3.784  0.1919 -0.0447 -0.0559
23105W        W39179   0.691   1.830   5.022  0.1346 -0.5180  0.0518
23106W        W39180  12.458   0.528  11.486  0.0283 -0.2525 -0.1711
23107W        W39181   7.436   3.806  12.549 -0.0696 -0.2477 -0.2046
23108W        W39182  14.057  12.385   0.356 -0.3174 -0.3157  0.0476
23109W        W39183  12.219   1.921  14.591 -0.0914  0.1584 -0.2536
23110W        W39184   5.608  14.852  13.661 -0.1320 -0.0132  0.1649
23111W        W39185   0.866  15.160  13.183 -0.2544  0.0425 -0.1217
23112W        W39186  17.505   9.806   2.509  0.2529 -0.3875  0.1052
23113W        W39187   4.189  11.812   3.391  0.0784  0.1606  0.1468
23114W        W39188   3.759   1.651  11.796 -0.0322  0.0739 -0.1531
23115W        W39189  11.388  13.377  14.207  0.0727 -0.1664  0.0571
23116W        W39190  11.787   0.994  10.708  0.2120  0.1289  0.1415
23117W        W39191   7.974   5.761   0.236  0.2029 -0.1213 -0.1122
23118W        W39192  11.421   6.635   5.152  0.0019  0.3576 -0.2022
23119W        W39193  12.092   2.838  15.953 -0.3150  0.0272 -0.2289
23120W        W39194   5.618   4.255   5.027  0.0187 -0.0851 -0.0673
23121W        W39195   0.957   0.644  15.641  0.0210 -0.1362 -0.1703
23122W        W39196   3.647  18.356  15.117 -0.1351 -0.0472  0.3548
23123W        W39197  12.102  10.292  14.328 -0.2156 -0.2423 -0.1825
23124W        W39198  12.386   2.210   4.697 -0.0434 -0.0173  0.0982
23125W        W39199   8.012  13.704   0.908  0.2853 -0.2086  0.1873
23126W        W39200  15.134   4.477   4.803  0.1235 -0.2661  0.4302
23127W        W39201   8.477   6.557  13.280  0.0114  0.2095  0.0081
23128W        W39202  17.205  17.877   4.475 -0.2471 -0.2970 -0.0931
23129W        W39203   1.632   0.592  15.892 -0.2064 -0.0683  0.3413
23130W        W39204  13.566   9.143   2.032 -0.1739  0.3145 -0.0687
23131W        W39205  15.791  17.464  14.757  0.1737 -0.1194  0.1825
23132W        W39206   7.080  11.611  15.643  0.1023  0.0049 -0.0825
23133W        W39207   7.045   3.852  14.916 -0.0313 -0.1201 -0.2260
23134W        W39208   7.081  10.217   5.460 -0.1481  0.0007  0.0267
23135W        W39209   2.509   7.157   3.800  0.4368  0.1141  0.0468
23136W        W39210  16.043   0.994   2.997 -0.2101  0.0048 -0.1068
23137W        W39211   0.971  14.145   1.556 -0.0875 -0.0373  0.0963
23138W        W39212   4.769   3.112  10.620  0.0053  0.2270 -0.0964
23139W        W39213  11.038  14.740   0.104  0.1222  0.1034 -0.1331
23140W        W39214   4.827  17.289   0.932 -0.2889  0.0270  0.0584
23141W        W39215  14.668   8.689   1.021 -0.0895  0.0571 -0.0795
23142W        W39216   2.856  14.205   4.367 -0.1553  0.0393 -0.0091
23143W        W39217   8.937  12.685   4.513  0.0322  0.1631  0.2755
23144W        W39218  13.308  16.731   5.117  0.2158  0.1536  0.3585
23145W        W39219   8.617  16.604  13.586 -0.2633  0.1024  0.1152
23146W        W39220   3.836   2.939   1.498  0.0464 -0.0091 -0.1231
23147W        W39221  11.212   3.342   1.643 -0.2746  0.0156 -0.0428
23148W        W39222   7.250   2.236   1.555 -0.3313  0.0103  0.5395
23149W        W39223   3.138   5.757  12.084 -0.0751 -0.1274  0.3084
23150W        W39224   3.651  14.642   0.161  0.0351  0.1934  0.0783
23151W        W39225  13.675  12.272   1.805 -0.2915 -0.3355  0.1350
23152W        W39226   3.691  13.301   1.388 -0.2233 -0.0445  0.0076
23153W        W39227   4.710  13.828   1.470 -0.1953  0.2830 -0.0260
23154W        W39228   9.402   9.521  13.178 -0.0400 -0.0030  0.1334
23155W        W39229  10.793  10.154   3.637  0.2280  0.1010  0.1014
23156W        W39230   3.677  11.329   4.141  0.2762  0.1259 -0.1491
23157W        W39231   9.595  14.376  11.863 -0.5028 -0.2650 -0.0094
23158W        W39232   0.060  13.148  13.431 -0.0373 -0.0927  0.0833
23159W        W39233  12.446   7.699  15.466  0.0984  0.1037  0.3027
23160W        W39234  18.114   2.022   3.108  0.5071 -0.1092  0.0255
23161W        W39235  11.919  17.560   0.068  0.1932  0.2516 -0.2021
23162W        W39236   1.870  11.342  11.701  0.0879  0.2643  0.2250
23163W        W39237   1.886  16.962   1.972  0.1860 -0.0639  0.2095
23164W        W39238  17.495   9.855  15.548  0.4282  0.0702  0.0520
23165W        W39239  13.320  14.324   3.361 -0.0106 -0.0954  0.1552
23166W        W39240   8.257  17.320   1.015  0.0685 -0.0558  0.1861
23167W        W39241   0.918   0.002   5.600 -0.0264  0.1136  0.0698
23168W        W39242   2.111   7.325  15.941  0.0119  0.0578  0.0473
23169W        W39243  18.367  14.943   0.255 -0.0341 -0.0781 -0.1996
23170W        W39244   1.419   2.936   2.673  0.0967 -0.1801 -0.0638
23171W        W39245   7.119   0.140  10.856 -0.1408  0.1322 -0.1307
23172W        W39246  18.324  10.694  13.525 -0.2468  0.2707 -0.2439
23173W        W39247   6.241   6.162   4.065  0.1235  0.2323 -0.2272
23174W        W39248   1.942  11.411   5.104 -0.3512  0.0567 -0.1515
23175W        W39249   5.544   9.180  15.123 -0.1918  0.2733 -0.0742
23176W        W39250  13.334   0.107  11.378 -0.0541 -0.1528  0.0174
23177W        W39251   6.659   8.838   0.014 -0.2249  0.0982  0.0394
23178W        W39252   7.487  16.328   5.079 -0.1109 -0.1676 -0.1791
23179W        W39253   3.517  11.324   1.752 -0.1107 -0.0119 -0.0362
23180W        W39254   3.449  13.347  15.232 -0.0029  0.1678 -0.2373
23181W        W39255   9.233  15.364  11.873 -0.1295 -0.0873 -0.3855
23182W        W39256  17.997  17.274   1.546 -0.1974 -0.0376 -0.0265
23183W        W39257  10.456  10.167   1.753 -0.2924 -0.1911  0.3871
23184W        W39258  11.825  15.354  13.980  0.0694  0.0731 -0.2961
23185W        W39259   1.656  11.997   5.990 -0.1242 -0.0996 -0.0503
23186W        W39260  16.352   2.338   1.871  0.1226 -0.2571 -0.3459
23187W        W39261   3.983   4.250  15.896 -0.0719 -0.1406  0.0309
23188W        W39262  18.467   2.869   0.749 -0.1918 -0.3067  0.3930
23189W        W39263   6.823   6.287  14.902  0.0430 -0.1042  0.1321
23190W        W39264   8.768  11.077   4.042  0.0455 -0.4500  0.3693
23191W        W39265   0.036   5.321   2.337 -0.1123 -0.0467  0.1397
23192W        W39266   4.498   4.385   4.889 -0.0861  0.0465  0.2763
23193W        W39267   0.664  11.173   4.186  0.1174 -0.0108  0.0239
23194W        W39268  14.289  13.850   4.032  0.1091 -0.0938  0.0265
23195W        W39269  12.477   0.490  14.629 -0.1831  0.1591  0.4026
23196W        W39270  17.863   2.638  14.736  0.1233  0.0240 -0.1426
23197W        W39271   8.188  16.881   3.572 -0.1924 -0.2037 -0.2723
23198W        W39272   2.058   9.775   2.660  0.2295  0.0309  0.2317
23199W        W39273  11.857   1.216  12.866 -0.1999  0.1724  0.0324
23200W        W39274  12.064   6.296  15.798  0.1371  0.2788 -0.1065
23201W        W39275  13.493  17.339   2.962 -0.0285 -0.3551  0.1653
23202W        W39276   6.337   0.779   0.035  0.2358 -0.1569  0.0370
23203W        W39277   4.750   9.743   0.851  0.1449  0.1181  0.0616
23204W        W39278  14.638  13.794  11.702 -0.2986 -0.0290 -0.1745
23205W        W39279  15.591  18.037   1.930  0.2997 -0.1781  0.0845
23206W        W39280  13.141   2.364   5.789 -0.1304  0.0651  0.2606
23207W        W39281   4.993   1.534   0.044  0.0450 -0.1733  0.0125
23208W        W39282   2.533   4.629   1.466 -0.1004  0.2067  0.0504
23209W        W39283   3.179   0.109  15.371 -0.0586 -0.0921 -0.4588
23210W        W39284  17.979  12.478  13.499  0.2031 -0.0728  0.6233
23211W        W39285   9.278   3.190   0.357 -0.0717  0.0819  0.1418
23212W        W39286  14.566   1.037  12.615  0.0455 -0.0249  0.0287
23213W        W39287  12.317  13.251   0.729 -0.0459  0.0232 -0.1825
23214W        W39288   5.926  14.621  14.738  0.0330 -0.0989 -0.1728
23215W        W39289   7.324   2.885   2.625  0.1552 -0.0797 -0.1234
23216W        W39290  11.319  16.551  13.945  0.1986 -0.0825 -0.1377
23217W        W39291   6.186  14.749  15.914 -0.4632 -0.0698 -0.1929
23218W        W39292   7.917  10.143  13.397 -0.3039  0.1836 -0.1642
23219W        W39293   4.567   3.529   1.247  0.2610 -0.3965  0.1272
23220W        W39294  10.115  13.475   4.267 -0.0865 -0.0058  0.0965
23221W        W39295   3.311   7.806   1.737 -0.0038  0.2644 -0.1661
23222W        W39296   0.513   8.224  12.010 -0.0568  0.0136  0.0852
23223W        W39297  15.017   1.399  12.091  0.2124 -0.3134  0.1620
23224W        W39298   6.191   1.129   5.862 -0.0257 -0.2471  0.0755
23225W        W39299  18.211  17.941  13.253 -0.0041 -0.1865 -0.2832
23226W        W39300   5.310  16.130  13.918  0.1640  0.1231 -0.2054
23227W        W39301   6.543   8.409   2.700 -0.2013 -0.0700 -0.1152
23228W        W39302   3.014  16.984   2.400 -0.3005 -0.2616  0.1241
23229W        W39303   8.229  11.928  13.183  0.1290  0.0931 -0.0599
23230W        W39304  16.610  14.261   1.460  0.1602 -0.0314  0.2730
23231W        W39305  16.776  13.170   6.134 -0.1029  0.5180  0.0688
23232W        W39306   7.193   1.706   2.132 -0.2611 -0.2562  0.1189
23233W        W39307   9.850  17.020  13.803 -0.0679 -0.2222 -0.0556
23234W        W39308   7.099  18.549  15.653  0.5974  0.1658 -0.0466
23235W        W39309  11.837  14.753   4.695  0.2132  0.0894 -0.1635
23236W        W39310   6.619   6.561  11.761 -0.1889 -0.0823  0.3246
23237W        W39311   7.648   1.227  11.310  0.1437 -0.3180 -0.0453
23238W        W39312   3.605   4.604   4.533 -0.0714 -0.1488  0.1385
23239W        W39313  10.574  11.176   1.331 -0.1203 -0.0006 -0.0329
23240W        W39314   0.661   2.843  10.187 -0.3240  0.3169  0.0844
23241W        W39315  12.638   4.091  13.591  0.1255  0.1537  0.2129
23242W        W39316   9.093  10.768   2.306 -0.1460  0.0954 -0.2672
23243W        W39317  15.696  10.856   2.941 -0.2931  0.0603  0.0948
23244W        W39318  11.870  17.158   4.894 -0.0092 -0.0979  0.1077
23245W        W39319   6.850  16.936   1.318  0.3216  0.1587 -0.2158
23246W        W39320  16.812  10.392  11.584 -0.3692  0.0021  0.1650
23247W        W39321  10.390   1.772   1.912  0.2209  0.0598 -0.2240
23248W        W39322  16.169   9.141   0.005 -0.2478  0.3813 -0.1540
23249W        W39323   7.151   0.962   2.253  0.2406 -0.1188 -0.2557
23250W        W39324   6.731  16.365  13.672 -0.0811  0.3023 -0.0036
23251W        W39325   8.983  11.899   4.723  0.3573 -0.1027  0.0164
23252W        W39326   5.751  13.295  14.979 -0.1327  0.1477 -0.4426
23253W        W39327   4.294   6.882   5.919  0.3245  0.0550 -0.0531
23254W        W39328   8.075   2.120  14.965 -0.1695 -0.1392  0.1325
23255W        W39329  10.809  14.032  10.031  0.1930  0.1788  0.1299
23256W        W39330   5.230   5.789  11.714  0.0909  0.0435 -0.1929
23257W        W39331  12.471  18.359  15.554  0.0844 -0.2048  0.4114
23258W        W39332   7.126  17.883  12.816 -0.1289 -0.6133 -0.0490
23259W        W39333  11.336  10.955  10.218 -0.1021  0.1921 -0.0882
23260W        W39334   2.230  11.134   2.052 -0.2954  0.1597  0.0060
23261W        W39335  16.191   6.536   1.666  0.0241 -0.0956 -0.0993
23262W        W39336  17.192  16.775  15.420 -0.0268 -0.0917  0.1105
23263W        W39337  13.674   9.765  14.430  0.0770 -0.0323 -0.0139
23264W        W39338   3.779  12.958  13.546  0.3274  0.1186  0.0535
23265W        W39339   3.949  10.346   2.267  0.1604 -0.1046 -0.0417
23266W        W39340   0.424   8.683   2.746 -0.0457  0.2464 -0.2159
23267W        W39341  17.078  10.950  12.239  0.0112 -0.1935 -0.2211
23268W        W39342   2.603   2.283  11.877  0.2229 -0.0481 -0.0334
23269W        W39343   5.722   0.819  11.257  0.0494 -0.0526 -0.1004
23270W        W39344  17.292  15.573   0.052  0.0992 -0.1729  0.4472
23271W        W39345   5.907  12.018  15.450  0.1569 -0.3327 -0.1907
23272W        W39346  16.800  17.845   3.798 -0.0297  0.1231 -0.2185
23273W        W39347   0.242   6.204  14.869 -0.2956  0.1005 -0.1396
23274W        W39348   2.757  14.907   0.265  0.2576 -0.0033 -0.0424
23275W        W39349   2.182   6.132  15.267  0.2542 -0.2523  0.1489
23276W        W39350   1.403  15.987   2.048  0.1937  0.3003 -0.0472
23277W        W39351   5.107  14.731  12.831 -0.0108  0.0172 -0.0287
23278W        W39352  10.859   4.721   0.394 -0.1687  0.1510 -0.0659
23279W        W39353  18.036  12.599  12.879 -0.3437 -0.1330  0.4410
23280W        W39354  18.448  18.294   2.480  0.2445 -0.2364  0.5555
23281W        W39355   7.811  10.999   2.726  0.2093 -0.0764  0.2562
23282W        W39356  11.367   4.839  15.454 -0.1635 -0.1488  0.0774
23283W        W39357   8.978  16.045   3.523  0.1057 -0.0972 -0.2723
23284W        W39358   9.271  11.648  13.514  0.1107 -0.2160 -0.0694
23285W        W39359  11.850  13.068  15.805 -0.1460  0.0742 -0.3746
23286W        W39360  11.985  13.463   3.407 -0.2796  0.1637  0.0874
23287W        W39361  16.600  14.354   0.582 -0.0622 -0.1700  0.0763
23288W        W39362   2.991   6.080   2.282  0.3621 -0.0809 -0.1023
23289W        W39363   8.395   6.174   0.587 -0.1901 -0.0427  0.0533
23290W        W39364   0.674   1.706   1.309  0.1568  0.1137 -0.1882
23291W        W39365   5.684   7.544  15.449  0.4608  0.3690  0.2730
23292W        W39366   9.525  11.493  11.425 -0.0332 -0.2545 -0.0902
23293W        W39367   3.011   7.327   1.841 -0.0842 -0.2665  0.0462
23294W        W39368   3.330  10.071   2.176  0.0986  0.3259  0.3532
23295W        W39369  12.282   4.368  13.006 -0.1703 -0.2996 -0.2636
23296W        W39370  13.933  14.359  11.000 -0.2757  0.1613 -0.1236
23297W        W39371   1.704  14.291   3.885 -0.2396  0.1514  0.1759
23298W        W39372  16.325  13.150   0.223  0.4530 -0.1767 -0.5227
23299W        W39373   9.781   5.431  15.826  0.0599  0.1611  0.1575
23300W        W39374  16.545   7.157  13.958  0.2884  0.0203 -0.0906
23301W        W39375   2.535   8.555  12.169  0.0655 -0.1485 -0.0346
23302W        W39376   5.467   2.220   0.283 -0.1591 -0.0260  0.0490
23303W        W39377  14.365   8.579  14.296 -0.3104 -0.1788 -0.1959
23304W        W39378  17.682   2.228   3.050  0.0979 -0.1829  0.0773
23305W        W39379   4.160  14.251   2.013  0.0365 -0.1976  0.0542
23306W        W39380   7.592  17.354   5.974  0.0782 -0.1088  0.2876
23307W        W39381  16.383   9.727  14.562 -0.0449 -0.3383 -0.2569
23308W        W39382  10.384  15.730   4.345 -0.0388 -0.1086 -0.1404
23309W        W39383  15.302   4.300   5.200 -0.0175  0.1734 -0.1460
23310W        W39384   6.725   6.215   6.264  0.0543  0.1748  0.4224
23311W        W39385   6.525   0.480  13.490  0.1695  0.0150  0.1500
23312W        W39386  12.241   3.040  11.285  0.0351  0.1634 -0.0719
23313W        W39387  10.051   7.412   2.783  0.1771 -0.1741 -0.2697
23314W        W39388  13.802  16.888  12.038 -0.0581 -0.2564 -0.3220
23315W        W39389  12.795  14.867  14.564  0.0614 -0.1710  0.0312
23316W        W39390  15.004  16.677  10.203  0.0257 -0.2941  0.0509
23317W        W39391  10.740   1.361   4.055  0.0461 -0.0806  0.0481
23318W        W39392   2.060   9.082  13.358  0.1505  0.2061 -0.1984
23319W        W39393   1.677  13.576   2.560 -0.0505 -0.0127  0.0634
23320W        W39394  10.055   9.336  11.949 -0.1846 -0.2011  0.1411
23321W        W39395   3.971   7.647  11.687 -0.2858 -0.2530 -0.0048
23322W        W39396  16.957   5.503  13.942 -0.3591  0.0692 -0.0473
23323W        W39397  11.077  17.203   5.094 -0.3653  0.1173 -0.2085
23324W        W39398  10.998   2.906   2.459  0.2283 -0.2785 -0.0700
23325W        W39399  11.584  16.793  13.577 -0.0689 -0.1031 -0.0949
23326W        W39400  11.642   7.927  12.169 -0.1714 -0.0518  0.3953
23327W        W39401  15.523  10.098   0.443 -0.2297 -0.1260  0.0381
23328W        W39402  17.941   1.492  12.979  0.0758 -0.0494 -0.1063
23329W        W39403  18.379   1.244  12.957  0.1510 -0.0580  0.0606
23330W        W39404  15.023   9.393   3.338 -0.2429 -0.0992  0.0666
23331W        W39405  13.364  18.025   4.758  0.1158  0.0548  0.1928
23332W        W39406  17.171  15.099   1.570 -0.0994  0.0259 -0.2283
23333W        W39407   1.194  12.833   0.965 -0.0140  0.3235  0.0178
23334W        W39408  18.491  16.873   4.227  0.0499 -0.2154  0.1762
23335W        W39409   6.263   3.922  12.823 -0.2398  0.0400 -0.0499
23336W        W39410   0.011   2.041  12.849 -0.3337  0.0995  0.1066
23337W        W39411   5.232   3.837  14.817  0.2557 -0.1212 -0.0536
23338W        W39412   5.621  13.464  12.743 -0.0404  0.2153  0.2016
23339W        W39413  11.673  11.910   1.875  0.5056 -0.0709 -0.3445
23340W        W39414   6.171  14.489   0.354 -0.3030 -0.0756  0.1608
23341W        W39415   8.881  18.563   1.496 -0.0207  0.0326 -0.1788
23342W        W39416  18.114  11.562  11.984  0.2765 -0.3323  0.0652
23343W        W39417  17.819  13.273  12.074 -0.2977  0.1276 -0.3199
23344W        W39418   3.233   3.108   3.726  0.0187  0.0019  0.0846
23345W        W39419   9.920   9.453  12.967 -0.0436 -0.0530  0.0414
23346W        W39420  10.134  10.342   1.292 -0.3707 -0.0142 -0.0473
23347W        W39421   6.288  17.686   3.323  0.1070  0.2993 -0.0451
23348W        W39422   2.597   0.895  12.559  0.1782  0.1791  0.0752
23349W        W39423   8.762   8.680   2.137 -0.2883 -0.0136  0.1404
23350W        W39424  13.460   7.907  12.826 -0.2468  0.1459 -0.3283
23351W        W39425   7.617  15.214   4.127 -0.0314 -0.1239 -0.0154
23352W        W39426  11.765   7.659   2.757  0.0746 -0.1816 -0.3959
23353W        W39427  17.519  14.885   3.607  0.1054  0.0618 -0.0890
23354W        W39428  15.936  13.367  13.290 -0.0302 -0.3299  0.0486
23355W        W39429  14.646  13.924  15.571  0.1131  0.0168 -0.0131
23356W        W39430  17.476   8.115  14.746 -0.0337 -0.0214 -0.0909
23357W        W39431   0.969   8.759   6.044  0.0937  0.2634 -0.3633
23358W        W39432   8.773  17.542  15.188  0.0231 -0.1527  0.1252
23359W        W39433   9.096   9.985   1.415 -0.0920 -0.2066 -0.2110
23360W        W39434  15.065   8.112   3.388 -0.0399  0.1345  0.1047
23361W        W39435  14.655  12.966   4.879  0.0678  0.1231  0.1889
23362W        W39436   4.158  14.729   1.013  0.1315 -0.2479 -0.0320
23363W        W39437   4.055   6.105   4.682  0.2543 -0.0725  0.1509
23364W        W39438  18.045  13.220  14.211  0.1400  0.2953  0.3231
23365W        W39439   5.808  16.518   2.821  0.1212 -0.3086  0.0197
23366W        W39440  12.099  12.183   4.739 -0.1478 -0.1819  0.1111
23367W        W39441  12.530  13.305  15.584 -0.4530  0.1184  0.1740
23368W        W39442  14.822   2.470   4.706 -0.1104 -0.0161 -0.0240
23369W        W39443  12.264  11.811   1.314  0.2333  0.1820 -0.0960
23370W        W39444   3.935   0.847   4.805  0.1277 -0.0293 -0.1031
23371W        W39445   6.491   5.981  15.588  0.1245 -0.0373 -0.0189
23372W        W39446   9.337  11.699   0.851  0.1570 -0.5860 -0.0609
23373W        W39447   9.665   7.737  12.588  0.0105  0.1277 -0.5030
23374W        W39448   9.759   5.380  11.272  0.0579  0.1696 -0.3027
23375W        W39449  14.351  14.670  12.918 -0.0774  0.3059  0.1848
23376W        W39450  10.076   0.380  11.813 -0.4723  0.2572  0.1224
23377W        W39451  15.761   9.166   5.247  0.1342  0.0119  0.0218
23378W        W39452   1.662   4.866  15.557  0.1430  0.2061 -0.0857
23379W        W39453   4.621  14.163   2.188 -0.0276  0.1176 -0.0722
23380W        W39454  14.624   9.486  13.209 -0.3782 -0.0533  0.0547
23381W        W39455   5.352  16.086   4.699 -0.2667  0.0084 -0.2767
23382W        W39456  12.964   8.892  11.433 -0.2136  0.0409  0.1970
23383W        W39457   4.088  17.256   3.543  0.0406 -0.1841  0.2142
23384W        W39458  11.530  15.779   4.903 -0.0319 -0.1635  0.0364
23385W        W39459  10.032  16.936  11.877  0.0369 -0.0832 -0.3345
23386W        W39460  10.026  18.275  11.041 -0.1829 -0.0432  0.1151
23387W        W39461   8.043   8.915  11.354 -0.0788  0.1374 -0.0970
23388W        W39462  15.624   6.210   0.215 -0.0264  0.3802  0.1405
23389W        W39463   5.898   5.959   5.529 -0.2680 -0.5023 -0.1517
23390W        W39464   0.497  17.128  11.426  0.0736  0.2717 -0.1450
23391W        W39465  18.536  10.813  15.209 -0.2708 -0.0125 -0.0289
23392W        W39466   4.386   6.113   4.032  0.0074  0.1113  0.2356
23393W        W39467  13.275   5.954   1.748  0.2162 -0.2768 -0.0229
23394W        W39468   9.747  16.318  13.387  0.1255 -0.2612 -0.1186
23395W        W39469  12.764   2.448   4.081  0.0126  0.0243  0.0046
23396W        W39470   5.445   7.590   6.224 -0.1796 -0.0262 -0.0011
23397W        W39471   7.837   7.572  11.546  0.3774  0.0325  0.0257
23398W        W39472  18.099  14.138  13.839  0.1731  0.2125  0.0058
23399W        W39473  12.694  16.388  14.215  0.0956  0.1730 -0.2686
23400W        W39474   2.340   8.294   5.186  0.2101 -0.0799  0.3073
23401W        W39475   5.279   2.575  12.225  0.1903 -0.2993  0.1027
23402W        W39476   1.397  11.360  12.038  0.2542 -0.0607 -0.2156
23403W        W39477  14.152  17.831   0.281  0.0661  0.1083  0.2178
23404W        W39478  13.225   5.517   2.153 -0.0342 -0.2023  0.2730
23405W        W39479   1.750  12.533  12.474 -0.1437 -0.1381 -0.1977
23406W        W39480   2.761  16.026   2.424  0.0174 -0.1633  0.0724
23407W        W39481   3.748   3.280  11.234 -0.0565  0.3430  0.2412
23408W        W39482  11.725   0.718   2.464  0.2507 -0.3257  0.1378
23409W        W39483  11.804  10.484   2.602 -0.2615  0.0299  0.0781
23410W        W39484  13.906   7.128   1.616 -0.2244  0.1767  0.3471
23411W        W39485   6.702  14.067   2.841  0.3266 -0.5223  0.1255
23412W        W39486  11.895   0.759  12.228 -0.1844 -0.0230  0.0493
23413W        W39487  16.520  14.299  14.555  0.1587 -0.0471  0.1974
23414W        W39488   5.378   0.800  11.682 -0.1511  0.1188  0.4203
23415W        W39489   7.554   3.828   5.219 -0.2820  0.1430  0.0401
23416W        W39490   8.636  16.875   2.251  0.2989 -0.1931 -0.1867
23417W        W39491  12.495   5.320  14.244 -0.0387 -0.0140  0.1575
23418W        W39492  11.167   0.448  12.941  0.0096 -0.3666 -0.0781
23419W        W39493  16.768  10.112   5.685  0.4375  0.2487 -0.0922
23420W        W39494  13.031   4.944  15.823 -0.0838 -0.1539  0.2483
23421W        W39495  14.357   9.831  12.672  0.0417 -0.1310 -0.3994
23422W        W39496   0.162   0.071   1.645  0.0794  0.0296 -0.1102
23423W        W39497   5.404   2.269  13.030  0.2647  0.0911 -0.1197
23424W        W39498   9.000  10.259  11.571  0.1850  0.2835  0.5130
23425W        W39499   9.505   1.210   1.135  0.0580 -0.0370 -0.1689
23426W        W39500   3.321   0.137  11.710 -0.2725  0.2471  0.2171
23427W        W39501  11.860   2.934  14.537  0.0554  0.1420 -0.1351
23428W        W39502   6.025  13.062   5.248 -0.1229  0.0423  0.2031
23429W        W39503   1.874  12.897  15.994  0.1507  0.1235  0.0318
23430W        W39504  10.116   4.858   3.493 -0.0408 -0.0649 -0.0735
23431W        W39505   3.049  13.242   2.125 -0.2295 -0.3175 -0.0023
23432W        W39506   9.924   1.547  11.393 -0.1657 -0.1310 -0.0103
23433W        W39507   8.922   6.568  13.724  0.1415  0.0540 -0.1893
23434W        W39508  13.937   1.686   0.293 -0.2299 -0.1558  0.1064
23435W        W39509   2.632   2.603  12.773  0.0108 -0.3519  0.5325
23436W        W39510   4.008  11.533   1.720 -0.0908 -0.0056 -0.4150
23437W        W39511  10.429   2.751   2.176  0.0148 -0.0403 -0.3513
23438W        W39512   2.623   9.609   0.212 -0.0909 -0.2487 -0.2139
23439W        W39513  14.107  13.003  11.767 -0.0737 -0.1199  0.2259
23440W        W39514   9.028  18.429   5.128  0.3430 -0.0281 -0.0404
23441W        W39515   2.929  14.592   3.746  0.3368  0.0174  0.1447
23442W        W39516   9.089   3.981  12.170  0.0244  0.0187  0.0227
23443W        W39517  10.018  14.254   0.936 -0.0955 -0.1830 -0.0493
23444W        W39518   8.566   2.020   1.941 -0.3095  0.0095 -0.2154
23445W        W39519  11.089   1.204  11.520 -0.0669  0.1273  0.1782
23446W        W39520   8.725  12.079   5.180 -0.2557  0.1692 -0.2007
23447W        W39521  15.896  11.248   1.178  0.0315  0.1823  0.0614
23448W        W39522  10.658   7.751  12.024  0.0879 -0.2275  0.0304
23449W        W39523  18.187  13.439  14.820 -0.1160  0.0142  0.1098
23450W        W39524  11.203   4.003   5.319  0.1253  0.3991 -0.1344
23451W        W39525  18.078   6.744  11.253  0.1862 -0.0901 -0.3551
23452W        W39526   4.072  16.775  14.269 -0.1292  0.0099  0.2330
23453W        W39527  16.898   2.770  15.160 -0.3097  0.0918  0.4081
23454W        W39528   5.942  17.221   2.851 -0.0800 -0.0540  0.0261
23455W        W39529  12.528  11.966  13.879 -0.0430  0.2002 -0.2617
23456W        W39530   7.543   8.620  10.981  0.2119 -0.1452  0.0410
23457W        W39531  11.772  15.851  13.905 -0.0489 -0.4573  0.0986
23458W        W39532   4.758   5.489  15.699  0.2300  0.0046 -0.2323
23459W        W39533   3.016  12.086   0.458  0.0299 -0.1996 -0.0712
23460W        W39534   6.635  10.395   4.767  0.1108  0.0848 -0.0038
23461W        W39535   2.819  14.492  15.719  0.2201  0.0246 -0.0824
23462W        W39536  12.298  15.058  15.394 -0.1897 -0.2159 -0.0132
23463W        W39537  12.999   5.497   1.660  0.0546  0.0111  0.0126
23464W        W39538  16.280   6.988   5.948 -0.0845  0.1480  0.2361
23465W        W39539   2.375   9.847  12.427  0.1266 -0.3370 -0.1716
23466W        W39540  14.079   8.560   4.037  0.1092 -0.0509  0.0266
23467W        W39541  10.842  16.547  11.629 -0.0790  0.0534  0.0834
23468W        W39542  13.651  13.966  14.015 -0.3353 -0.0372  0.0946
23469W        W39543   7.206  16.667   4.741  0.1486 -0.0895 -0.2790
23470W        W39544   7.653   9.271   0.512 -0.1669 -0.1887 -0.0665
23471W        W39545   2.433   6.241   5.282  0.0148  0.2377 -0.3164
23472W        W39546  17.602  12.519  13.843  0.2623  0.1523 -0.3375
23473W        W39547  17.344  17.998   5.024  0.0467  0.0924  0.2702
23474W        W39548   6.312  10.916  14.040  0.2346 -0.4499 -0.1304
23475W        W39549   4.713   4.756  15.914  0.1652 -0.0405  0.0335
23476W        W39550  10.270  10.980   4.101 -0.3432  0.0421  0.2128
23477W        W39551  16.889   0.820  14.811  0.1396 -0.0456  0.1119
23478W        W39552   0.315   9.422   1.424 -0.3199  0.1801  0.4062
23479W        W39553   3.235  18.183  15.471 -0.1821 -0.3145  0.0015
23480W        W39554  11.238  12.175  13.303 -0.0507  0.4607 -0.2702
23481W        W39555  15.095  12.593   3.606  0.2880 -0.0422  0.0483
23482W        W39556   6.651   2.155  13.701 -0.0315  0.0991  0.0052
23483W        W39557   9.412   2.175   3.874  0.0973  0.2605 -0.1929
23484W        W39558   3.314   4.721   2.930 -0.0905 -0.1690  0.0131
23485W        W39559   2.616  12.442  10.284 -0.1639  0.1220 -0.1486
23486W        W39560   8.774  15.020   2.081  0.0392  0.0680 -0.0519
23487W        W39561  13.291  14.914   1.232  0.3421  0.0842 -0.0504
23488W        W39562   4.046   8.543   5.049 -0.0269 -0.2638 -0.0566
23489W        W39563   6.535  10.449   1.533 -0.0983 -0.1647  0.2047
23490W        W39564   4.942   4.089   2.466 -0.0164 -0.2829 -0.0464
23491W        W39565   4.719   8.124   3.497  0.3444 -0.1816 -0.0318
23492W        W39566   8.852  15.161  14.252 -0.0287  0.1938  0.0825
23493W        W39567   4.906  12.819  14.925 -0.2269  0.0950 -0.2286
23494W        W39568   4.232  11.488  12.708 -0.0924  0.1049  0.0104
23495W        W39569  18.021   6.457  12.065 -0.2778 -0.3591  0.1973
23496W        W39570  17.755   1.989  11.476  0.0839 -0.0020 -0.0316
23497W        W39571  15.327  18.151  12.817  0.0420  0.0824 -0.0831
23498W        W39572  11.116  17.437  13.286 -0.2706 -0.1770  0.0063
23499W        W39573   5.438   5.752   3.026  0.1651  0.1067 -0.0129
23500W        W39574   2.470   0.783  13.455  0.1008 -0.3813  0.0649
23501W        W39575   5.505  13.736   3.618  0.1420  0.0808  0.3187
23502W        W39576  17.963   2.370  13.532 -0.2350 -0.0325 -0.1957
23503W        W39577   8.350   8.708  12.835  0.0593 -0.0303 -0.1178
23504W        W39578   9.302   6.433  14.048 -0.4656 -0.0438 -0.1487
23505W        W39579   5.537   0.266   3.354  0.0405 -0.0937 -0.1475
23506W        W39580  12.417   2.465   3.441  0.0623  0.1419 -0.2541
23507W        W39581   0.753  14.929   4.016 -0.2896  0.0911  0.2910
23508W        W39582  10.913   2.121  15.353  0.0113 -0.0407 -0.1278
23509W        W39583  11.489   0.921  11.561  0.0714  0.4628  0.0752
23510W        W39584   4.974  12.881   5.119  0.0399 -0.1776 -0.2477
23511W        W39585  14.793  13.785   0.631 -0.1078 -0.2207 -0.1450
23512W        W39586   9.037  13.560  15.037  0.1394 -0.1502 -0.2474
23513W        W39587  11.319   1.965  15.005 -0.2707 -0.1415  0.1629
23514W        W39588  17.576   2.592   4.697 -0.0544  0.0732 -0.0363
23515W        W39589   2.485  14.929   1.676  0.3784 -0.2503  0.0641
23516W        W39590   4.030   7.284   0.994 -0.1196  0.0582 -0.2840
23517W        W39591  14.476  11.963  15.762 -0.0775 -0.2046 -0.0057
23518W        W39592  10.883   7.239  13.339 -0.0104  0.0943  0.3068
23519W        W39593  10.645  12.547  14.428  0.4423 -0.2797  0.0356
23520W        W39594  16.067  14.837   2.507  0.0688 -0.1687 -0.0184
23521W        W39595  13.300   7.530  13.281 -0.0465 -0.1875 -0.1424
23522W        W39596  11.060  18.443  13.617 -0.0636 -0.0983 -0.1035
23523W        W39597   0.220   0.646  15.701  0.2078  0.2467 -0.0957
23524W        W39598  11.167  17.076  14.732 -0.1506 -0.1155  0.0771
23525W        W39599  16.411   6.589   0.171 -0.3101  0.2112 -0.1830
23526W        W39600   1.729   2.461   0.314  0.0700  0.3909  0.2265
23527W        W39601  11.069   5.465   4.348 -0.2836  0.2463 -0.1594
23528W        W39602   2.370   4.627  11.567 -0.2432 -0.0974 -0.0333
23529W        W39603  10.978  10.116   2.374 -0.0005 -0.0032 -0.3890
23530W        W39604  16.432   1.713  14.253  0.1198  0.1851  0.2445
23531W        W39605  15.647   2.034   2.977 -0.3092  0.0156  0.4432
23532W        W39606   0.376   0.560   1.685 -0.0224  0.3550  0.0505
23533W        W39607  16.427   3.335  11.458  0.0647  0.0301 -0.0922
23534W        W39608  10.125   3.550   3.099  0.0228  0.1352 -0.2421
23535W        W39609   8.059   5.415   0.593 -0.0093  0.4090 -0.0282
23536W        W39610  12.819   6.443   3.471  0.5246  0.1305  0.0864
23537W        W39611   3.314  16.532   1.136  0.0742  0.1962 -0.1216
23538W        W39612  18.399   7.983   4.106  0.2446 -0.0403 -0.2698
23539W        W39613  15.707   4.013   2.405 -0.0151 -0.1562  0.2675
23540W        W39614   1.392  17.495   4.147  0.1910  0.2448 -0.1693
23541W        W39615  14.722   7.175  15.589  0.0891  0.0221  0.1267
23542W        W39616   5.130   9.782  14.059 -0.2309 -0.0415 -0.1820
23543W        W39617   0.273  15.666   1.024 -0.0925  0.1859 -0.1959
23544W        W39618  12.323  15.688  11.264  0.3603  0.0863 -0.0412
23545W        W39619   3.687   8.056  14.768 -0.0396  0.1232 -0.1528
23546W        W39620   5.119  15.253  11.340 -0.3103 -0.0883  0.0745
23547W        W39621  17.500   6.251   3.272 -0.1955  0.1999  0.0783
23548W        W39622   2.028   0.641  13.641  0.0784 -0.3787 -0.0289
23549W        W39623   4.914  13.228   2.992 -0.2179  0.2301  0.0038
23550W        W39624  14.193   7.011   5.613 -0.0264 -0.0355 -0.0261
23551W        W39625   3.530  11.273   1.196 -0.1694 -0.0644  0.2628
23552W        W39626  14.462   5.017  15.417  0.0047 -0.3053 -0.0890
23553W        W39627   4.355  11.927   0.475 -0.0648  0.0076  0.5363
23554W        W39628  13.249   5.759  13.810 -0.0654  0.0648  0.1288
23555W        W39629   1.897  10.693  13.751 -0.0528 -0.1002  0.0188
23556W        W39630   1.062   4.744   0.418  0.3207 -0.0228  0.1152
23557W        W39631   5.551  17.408   0.802 -0.0676 -0.0740 -0.2502
23558W        W39632   7.417  17.017   5.069 -0.0550 -0.0587 -0.1313
23559W        W39633  16.215   8.437  15.968  0.2153  0.3040 -0.3549
23560W        W39634   1.293  14.438  12.150 -0.3949 -0.1374  0.0613
23561W        W39635   5.302   4.340  10.681  0.1049  0.1546  0.1325
23562W        W39636   5.775  10.012  15.439 -0.0321  0.2308 -0.0095
23563W        W39637   0.902   6.218   1.751 -0.1155 -0.4303 -0.0403
23564W        W39638  16.035  16.366  10.210  0.2002  0.3269 -0.1623
23565W        W39639   9.850   5.620   1.609 -0.1105  0.1604  0.0929
23566W        W39640  18.416  11.889   0.082 -0.1290 -0.1127 -0.0123
23567W        W39641   2.450   2.813   4.416  0.1039 -0.3703 -0.1290
23568W        W39642  17.245   1.084  11.947  0.0759 -0.0661  0.2221
23569W        W39643   2.693   2.664  14.621  0.1077 -0.0994 -0.3618
23570W        W39644   8.808   5.471  15.875  0.0133  0.1282  0.1089
23571W        W39645   5.482  11.100   4.250  0.0436 -0.1296 -0.5560
23572W        W39646  16.915   0.973   4.055  0.2198  0.0985 -0.0173
23573W        W39647  14.665   8.666   2.540  0.0431  0.2259  0.1175
23574W        W39648  11.031   3.815   1.627 -0.1081 -0.1727 -0.0130
23575W        W39649   5.841  16.530  11.440  0.0679  0.1341  0.0792
23576W        W39650  15.247   8.640   1.756  0.0762 -0.1317  0.1230
23577W        W39651  15.064   0.524   5.350  0.1850  0.2326  0.3385
23578W        W39652  14.719   2.334  11.386  0.1668  0.2392  0.2629
23579W        W39653  13.799   4.822  13.616  0.2235 -0.4905  0.1021
23580W        W39654  15.863   4.711  11.124  0.0213  0.1276 -0.1063
23581W        W39655  13.175  10.963  15.075  0.1711 -0.0789 -0.0083
23582W        W39656   4.869   3.879  12.014  0.0960 -0.1320  0.0492
23583W        W39657   3.600  13.944  15.964 -0.3778 -0.1153 -0.1418
23584W        W39658  18.037  10.979   3.495 -0.3380  0.3123  0.2798
23585W        W39659   1.709  17.772   1.890  0.0504 -0.0817 -0.0137
23586W        W39660  13.241  11.811   1.073 -0.1625  0.0691  0.0442
23587W        W39661  17.805  10.077  14.580  0.0962 -0.5092  0.1714
23588W        W39662  15.139   2.497   5.207 -0.4277 -0.1833 -0.1163
23589W        W39663  11.653   8.707  15.112  0.0363 -0.2631  0.2581
23590W        W39664   2.370  13.862  13.120  0.0396 -0.0345  0.4690
23591W        W39665  17.520   7.550  14.804  0.1284  0.0033  0.2272
23592W        W39666   1.326   6.212  13.987 -0.0864  0.2544 -0.3056
23593W        W39667   7.943   0.708   3.567 -0.0741 -0.2638  0.0125
23594W        W39668   8.703  17.744   3.941 -0.0329 -0.0883  0.2334
23595W        W39669   2.632  12.133   3.763 -0.4269 -0.3409  0.1725
23596W        W39670   0.342  17.592   0.681 -0.2742  0.3136  0.4336
23597W        W39671  14.629  18.067  14.478  0.1696 -0.2146 -0.0608
23598W        W39672   6.788  17.158  14.639  0.0390  0.0428 -0.0504
23599W        W39673  16.991   5.261  16.018 -0.0344  0.2121 -0.1178
23600W        W39674   5.800   7.811   3.349 -0.0478  0.0312 -0.4286
23601W        W39675  17.066   9.489   2.466  0.1482 -0.0919 -0.1316
23602W        W39676  11.522  17.016   2.788  0.3497 -0.1453 -0.0834
23603W        W39677   3.351   0.156  12.590  0.3590 -0.0301 -0.0771
23604W        W39678  13.634   8.834  15.712 -0.0991  0.2504 -0.2667
23605W        W39679   1.581  12.704   3.522 -0.1360  0.0871  0.1593
23606W        W39680  13.926   1.201   3.711  0.3525  0.4360  0.0196
23607W        W39681  14.243  17.505  13.379  0.0709  0.3407 -0.1666
23608W        W39682   3.685   5.447   2.714 -0.1225  0.2128  0.0476
23609W        W39683   0.098   2.350   3.998 -0.1550 -0.0168  0.3963
23610W        W39684  16.689  17.049  14.126 -0.2804 -0.1620 -0.0620
23611W        W39685   0.195  10.919   2.933 -0.3093 -0.3500 -0.0875
23612W        W39686  11.794   4.938   0.866  0.1201 -0.0257  0.1251
23613W        W39687  10.771   2.411   2.656 -0.1597 -0.3438 -0.1861
23614W        W39688   8.380   9.894  13.392  0.1020  0.2212  0.3025
23615W        W39689   6.794   7.348   0.547  0.0490  0.3699 -0.1416
23616W        W39690  17.516   5.857   4.534  0.1150  0.0821  0.2186
23617W        W39691  14.800   2.881   4.368  0.2475 -0.4133 -0.0981
23618W        W39692   6.833  15.289  14.729  0.2881  0.0363  0.0084
23619W        W39693   3.293   0.068  15.982  0.0824  0.3077  0.3999
23620W        W39694  16.390   0.160  12.406 -0.0809 -0.0231 -0.1955
23621W        W39695  15.492   5.502  13.418 -0.0572 -0.0060  0.2659
23622W        W39696   4.643  13.256   1.381 -0.1153 -0.1890  0.3529
23623W        W39697  10.754   4.655   3.904  0.0271  0.0703  0.1389
23624W        W39698   0.777  11.674   2.201  0.1454 -0.0947  0.0388
23625W        W39699   3.226  14.779  15.586 -0.0734 -0.1901 -0.3551
23626W        W39700   6.372   2.652   0.382 -0.2742  0.1878 -0.2429
23627W        W39701  17.434  12.614   0.331  0.0213  0.2411  0.1104
23628W        W39702   7.874   9.180  13.870  0.0316 -0.2887 -0.2882
23629W        W39703  11.124  10.951   4.760  0.1515 -0.1905 -0.1877
23630W        W39704  12.990   5.963   6.000 -0.1755  0.0248  0.1369
23631W        W39705  17.087   6.225   1.494  0.0997 -0.0368  0.0165
23632W        W39706  10.873  14.457  11.228 -0.0813 -0.1000  0.2963
23633W        W39707  12.590   3.178   2.449 -0.0915 -0.0208  0.0435
23634W        W39708   5.527   4.111  13.715 -0.1138  0.1755  0.1582
23635W        W39709   2.993   6.615   5.109 -0.0534  0.1692 -0.1684
23636W        W39710   8.614  15.135   1.528 -0.0334  0.1109 -0.2295
23637W        W39711   2.597  17.159   0.841 -0.0733 -0.0351 -0.3934
23638W        W39712  13.881  15.193   1.341  0.1992  0.2893 -0.2047
23639W        W39713  18.166  18.459   5.621 -0.0470 -0.4789 -0.2186
23640W        W39714  14.722   2.581   5.487  0.3043 -0.1143  0.3210
23641W        W39715  16.461   1.578  13.778 -0.0411 -0.2671 -0.1557
23642W        W39716   9.581  11.491  15.139 -0.2276  0.1111  0.3447
23643W        W39717  16.972   1.877  11.381  0.0154  0.1448 -0.4500
23644W        W39718   8.268  16.485   3.973 -0.1095  0.2444  0.1468
23645W        W39719   9.808   3.531   2.283 -0.4444  0.3010 -0.0871
23646W        W39720   1.006   7.272  13.187  0.0791  0.1408 -0.0334
23647W        W39721  11.149  13.466  11.360  0.2195 -0.0786 -0.2539
23648W        W39722   8.004   0.954  15.335 -0.3421 -0.3549 -0.0674
23649W        W39723   4.460  12.380  14.653 -0.2193 -0.3171  0.1659
23650W        W39724  17.313  13.405   0.796  0.1725  0.2226  0.4351
23651W        W39725   7.563  14.389   3.363 -0.2384 -0.2502 -0.3920
23652W        W39726   4.776   1.071  13.248  0.1070 -0.0040  0.3998
23653W        W39727   4.634  17.408   5.451  0.1253 -0.0039  0.0111
23654W        W39728   0.435  14.998   1.886 -0.0477  0.1187  0.1173
23655W        W39729  18.120  14.895  14.611 -0.0677 -0.1145  0.0259
23656W        W39730   6.037   0.419  11.635 -0.0474 -0.0769  0.0950
23657W        W39731   2.334  11.518   2.399 -0.0538 -0.0282 -0.0937
23658W        W39732   9.483   5.783   5.717  0.2140 -0.2803 -0.0276
23659W        W39733  11.648  14.943   3.238  0.0179  0.2662 -0.1709
23660W        W39734  18.497   2.007  12.266 -0.1375 -0.0442 -0.1294
23661W        W39735  18.040   4.657  12.478 -0.2900 -0.1068  0.1093
23662W        W39736   6.127  10.245   4.576 -0.1824 -0.0785 -0.0866
23663W        W39737   2.700  11.488  12.968 -0.0576 -0.0621  0.0114
23664W        W39738  15.096  14.842   2.406 -0.0439  0.1559 -0.2396
23665W        W39739  14.235  14.200  14.159 -0.0655  0.1533  0.0249
23666W        W39740  18.411   1.314  15.114  0.0117  0.4283  0.0842
23667W        W39741   0.032   7.252   6.014  0.0159 -0.0925  0.3510
23668W        W39742   0.622  13.171  13.967 -0.0348  0.1047 -0.2435
23669W        W39743   8.025   3.944   6.227  0.1947 -0.2152 -0.0587
23670W        W39744   7.004  17.601   3.231  0.2367 -0.0581  0.0185
23671W        W39745   3.606   5.792  13.176  0.0853  0.3084  0.1337
23672W        W39746   9.144   0.920   0.389 -0.2541 -0.0908  0.0815
23673W        W39747  10.604  16.815   5.026  0.0521 -0.0747 -0.3475
23674W        W39748   6.422   1.918   3.773 -0.0219  0.3338 -0.0149
23675W        W39749  10.936   7.525   3.095 -0.3757 -0.2701  0.1486
23676W        W39750   8.007  12.104  11.401 -0.1283 -0.1171 -0.1274
23677W        W39751   5.689   6.529   0.342  0.0836  0.0043 -0.5421
23678W        W39752  13.845   4.211  12.967 -0.1925  0.0129 -0.2621
23679W        W39753   9.748  11.842   0.437 -0.0238 -0.4711  0.1011
23680W        W39754   3.859   8.863  12.406  0.4691  0.0627  0.0807
23681W        W39755  12.610   5.139  13.444  0.0781  0.0653 -0.0353
23682W        W39756   4.896  14.419   2.465  0.0720 -0.2327  0.2034
23683W        W39757   9.670  16.528  12.155  0.2610  0.1318  0.2498
23684W        W39758  10.042   3.644   0.469 -0.1223  0.0707 -0.2863
23685W        W39759  11.082   4.428  12.080  0.0425  0.0864 -0.2130
23686W        W39760  17.686   9.555   1.643 -0.2898 -0.0566  0.0383
23687W        W39761  14.295   7.356   3.675  0.2745 -0.1410  0.0826
23688W        W39762   4.156  12.616   4.580 -0.0411  0.2036  0.2469
23689W        W39763   6.896   9.462  15.462  0.1212 -0.0238 -0.1405
23690W        W39764   6.193   6.050   1.980 -0.1166 -0.2413 -0.1945
23691W        W39765  16.784   7.797  15.936 -0.0662  0.0046 -0.2385
23692W        W39766   9.297  11.211   3.920  0.3166 -0.0715 -0.1761
23693W        W39767   0.360   3.479   9.644 -0.1885 -0.4776  0.0219
23694W        W39768  10.289   0.549  15.355 -0.1131  0.3359  0.1925
23695W        W39769  12.362  13.610   2.338 -0.3379 -0.2927  0.0194
23696W        W39770   1.854  10.237  12.033  0.0265  0.2554  0.0484
23697W        W39771  14.087   7.587  12.009  0.0150  0.2625  0.1830
23698W        W39772  10.704  11.176  15.174  0.1768 -0.2143 -0.0741
23699W        W39773   6.155  14.000   5.566 -0.0076  0.2666  0.1286
23700W        W39774  15.858   7.843   0.501  0.1537  0.0085 -0.0854
23701W        W39775   3.260   9.359   1.544 -0.4854 -0.2850  0.0928
23702W        W39776  18.532   1.508   4.336 -0.1977  0.2060  0.2335
23703W        W39777   8.603   5.571   5.504 -0.1659  0.0994  0.1525
23704W        W39778   2.477  13.718   0.749  0.0427  0.0999  0.2316
23705W        W39779   2.003  13.714  11.410 -0.1172 -0.0746 -0.1383
23706W        W39780  18.544   6.699  11.381  0.2128 -0.2593 -0.0757
23707W        W39781   9.559   7.589  12.102  0.1465 -0.1677  0.0758
23708W        W39782   9.423   7.059   4.411 -0.1477  0.2340  0.1908
23709W        W39783   9.098  11.163  11.798  0.0442 -0.2437  0.0593
23710W        W39784  10.439   1.346  16.030 -0.1829  0.2332  0.0101
23711W        W39785  12.274  14.813  14.391 -0.2023  0.1876 -0.1835
23712W        W39786  11.664   2.014   2.213 -0.1397  0.0653  0.0075
23713W        W39787  17.238   8.312   2.488  0.2625 -0.1467  0.1082
23714W        W39788   5.781  12.814   0.336  0.3178  0.1205 -0.1838
23715W        W39789  11.293   2.256   5.889 -0.0604 -0.5797  0.2086
23716W        W39790   2.709   3.646   2.912  0.0481  0.1909 -0.1013
23717W        W39791  16.966  13.202   1.612 -0.0792  0.0096  0.1219
23718W        W39792  17.471  13.475   0.278 -0.0373 -0.1618 -0.1510
23719W        W39793   7.569  11.286   4.523  0.1700 -0.1118  0.3250
23720W        W39794   1.615   6.252   1.376  0.1524  0.0176 -0.0734
23721W        W39795   8.133   5.729  14.161  0.3252 -0.0601  0.0158
23722W        W39796  12.531  11.857  12.426  0.2490 -0.0774 -0.2314
23723W        W39797  14.852   8.689  12.030  0.0218  0.1291  0.1628
23724W        W39798   3.497   3.114   3.275 -0.0893  0.1786  0.0519
23725W        W39799   5.908   2.064  11.406 -0.0182  0.0707 -0.0997
23726W        W39800   4.412   4.323  15.114  0.0528  0.2051  0.1374
23727W        W39801   2.744  15.919  13.350 -0.3496 -0.1405 -0.0039
23728W        W39802  11.981   1.625  13.250 -0.2421  0.0994  0.0855
23729W        W39803  16.697   4.153  14.271  0.1047 -0.3178  0.1230
23730W        W39804   1.822   1.763  14.987  0.1003  0.0897  0.1117
23731W        W39805  17.446   5.231   1.512  0.0436 -0.1724 -0.0144
23732W        W39806  16.178   9.777   4.831 -0.0203 -0.3343 -0.0022
23733W        W39807   5.856   0.347   2.746 -0.0429  0.0424  0.1232
23734W        W39808  17.205   5.572  11.257 -0.1335 -0.0205 -0.2722
23735W        W39809  14.111   4.117   0.983  0.0834 -0.0179 -0.0328
23736W        W39810   2.501  17.001   2.777  0.1438  0.0789  0.5395
23737W        W39811  11.710   6.621   3.776  0.1382 -0.1856 -0.1753
23738W        W39812   9.704   4.616  15.242  0.5069  0.0504 -0.0927
23739W        W39813   7.404  17.522  11.773 -0.0282  0.1587 -0.1949
23740W        W39814   5.566   1.730  12.605 -0.1346 -0.0533  0.2309
23741W        W39815   2.012  16.747   2.923 -0.3932  0.2536  0.1493
23742W        W39816   3.420   7.083   5.201  0.1250 -0.2156 -0.4141
23743W        W39817   8.736  17.829  15.703  0.0861  0.0797 -0.3796
23744W        W39818   2.140  15.325   4.682  0.2458 -0.0988  0.0804
23745W        W39819   2.416   6.261   0.938 -0.1126 -0.3599 -0.1035
23746W        W39820   6.043   6.542   1.973  0.1507 -0.1790 -0.1981
23747W        W39821  10.703   5.543  12.208 -0.0664 -0.1537  0.5272
23748W        W39822  11.153  16.216  11.288  0.1512 -0.2474 -0.0146
23749W        W39823  13.809  10.034  15.977 -0.1802 -0.0131 -0.1411
23750W        W39824   4.227  16.540   1.951  0.0267 -0.0937  0.4304
23751W        W39825   9.752   5.171   3.539  0.0088  0.0772 -0.1896
23752W        W39826  12.530  15.633   1.043  0.1583  0.0505  0.0564
23753W        W39827   9.446  10.770   0.547  0.0182 -0.1327 -0.0491
23754W        W39828  14.366  17.120   4.266  0.0398 -0.0686 -0.2575
23755W        W39829   4.459  11.723   1.504 -0.1009  0.1018  0.1654
23756W        W39830  14.660  15.605   2.093  0.1446 -0.0695  0.0732
23757W        W39831   2.654   1.826   3.572  0.1868 -0.1478  0.0716
23758W        W39832  16.400   9.695  11.892  0.4165  0.1490  0.0210
23759W        W39833  11.302   3.623   0.713 -0.0859  0.0363  0.3646
23760W        W39834  11.601  15.862  11.685 -0.4284 -0.0097 -0.0359
23761W        W39835   8.698   9.159  14.292 -0.2422 -0.0258  0.1136
23762W        W39836  12.798   9.825  11.689 -0.0597 -0.2208 -0.1407
23763W        W39837  17.758   3.766  15.073 -0.1525 -0.1028  0.0108
23764W        W39838  12.817   9.293   1.864 -0.0770 -0.4418 -0.1488
23765W        W39839  17.166  15.279   4.644 -0.1134 -0.0151 -0.1929
23766W        W39840   3.672  18.506   2.829  0.3297  0.2437  0.1903
23767W        W39841  17.289  10.170  15.126 -0.2218  0.1787 -0.0814
23768W        W39842   9.717  15.017  13.156 -0.0918 -0.1002 -0.3392
23769W        W39843   2.239  12.976   3.337 -0.0516  0.2191  0.0639
23770W        W39844   9.578  17.797   1.390 -0.1640  0.4477 -0.0294
23771W        W39845  15.401  13.316   3.982 -0.0730 -0.0112  0.2679
23772W        W39846  13.203   0.885  13.837  0.1231 -0.3336 -0.2387
23773W        W39847  12.045  10.988   2.721  0.0080  0.0348 -0.3112
23774W        W39848  12.278   8.392   0.784 -0.1307  0.0251 -0.2099
23775W        W39849  14.372   6.741  13.962  0.0103 -0.0475 -0.2957
23776W        W39850  10.401   3.953  12.900  0.1392  0.3132  0.2231
23777W        W39851   8.855   0.701  14.496  0.3097  0.2559 -0.0843
23778W        W39852   3.549  10.784   5.909  0.2705 -0.0532  0.0231
23779W        W39853   7.087  12.653  14.775 -0.1388 -0.3505  0.0154
23780W        W39854   7.466   9.480   0.140 -0.4818 -0.2916 -0.0089
23781W        W39855   4.229   1.509   5.941  0.1024  0.1958  0.0586
23782W        W39856  13.749  15.042  13.207 -0.0549 -0.1730 -0.0988
23783W        W39857   3.178   6.305   2.687 -0.0673 -0.0225 -0.2642
23784W        W39858   7.572   4.222   0.344  0.0285 -0.3410  0.0372
23785W        W39859   9.058  15.809  15.988  0.0261 -0.0395  0.1671
23786W        W39860   8.565   8.069  15.872 -0.1052 -0.1352 -0.3141
23787W        W39861  11.590  15.949   0.802  0.1243 -0.2001  0.3001
23788W        W39862  17.923  11.951  14.586 -0.1843  0.0585  0.0690
23789W        W39863  12.079   1.190  15.268 -0.3213 -0.2474  0.0173
23790W        W39864   4.117   1.014   1.393  0.3141  0.3281  0.1051
23791W        W39865   3.842   6.269   4.281  0.0734  0.1207 -0.0547
23792W        W39866  14.040   8.119   1.978 -0.1518  0.0237 -0.0760
23793W        W39867   2.934   1.057   5.900  0.3345 -0.1418  0.1716
23794W        W39868   0.448   8.697  12.204  0.1749 -0.1959  0.1651
23795W        W39869  15.860  13.149   2.006 -0.0073 -0.0196 -0.0843
23796W        W39870  12.883   3.338   3.478  0.2488  0.0370 -0.1052
23797W        W39871  13.907   9.773   4.531 -0.1989  0.1427  0.1200
23798W        W39872   2.594   6.581   4.814  0.1077 -0.1320  0.0517
23799W        W39873   6.958  10.083  12.695  0.0132 -0.1293  0.0641
23800W        W39874  14.982   5.688   2.530  0.1900 -0.0607  0.0649
23801W        W39875  17.527   3.891  14.635 -0.1005  0.2574 -0.2140
23802W        W39876   5.313   3.798  10.802  0.0520  0.2801 -0.3359
23803W        W39877   5.919  11.689  11.299 -0.2605  0.1222 -0.0318
23804W        W39878   1.598   1.487  12.825  0.0571 -0.1386 -0.1502
23805W        W39879  14.389   3.070  12.056 -0.0930 -0.1401 -0.3049
23806W        W39880   4.027   4.151  14.842 -0.1954 -0.0074 -0.2305
23807W        W39881   5.189   5.741   0.771  0.0482 -0.0752  0.1671
23808W        W39882  18.081   9.791  10.739  0.3682 -0.1519 -0.2958
23809W        W39883   2.460   5.738   5.125 -0.0024 -0.0987  0.2818
23810W        W39884   9.842   4.230   4.194  0.2533 -0.1283  0.0967
23811W        W39885   8.477  11.929   3.031 -0.0789  0.1112 -0.0651
23812W        W39886  10.868   8.751  13.568 -0.0480  0.0683  0.0247
23813W        W39887  13.308  10.766   3.658 -0.0864 -0.2810  0.1432
23814W        W39888  12.338   8.284  15.741 -0.4021 -0.1675  0.4331
23815W        W39889  13.235   0.891   5.054  0.3124 -0.0123 -0.0432
23816W        W39890  17.321  16.475  12.859  0.1608 -0.1533 -0.3553
23817W        W39891  11.893   2.732  11.466 -0.0946  0.1402 -0.0412
23818W        W39892  16.623   2.118  13.482  0.2384 -0.2111 -0.0437
23819W        W39893  16.037  12.429  12.574 -0.3461  0.0410  0.0563
23820W        W39894   6.778  15.033  13.512  0.3765 -0.1317  0.1106
23821W        W39895  12.982  18.167  13.797  0.0939 -0.0757  0.0387
23822W        W39896   9.888  10.759   4.504 -0.1829 -0.2508 -0.1632
23823W        W39897  13.788   2.114   1.740 -0.3365 -0.2171 -0.0750
23824W        W39898  15.504  12.255   3.572  0.2164 -0.1382 -0.1332
23825W        W39899   1.614  18.073  13.660  0.1696 -0.0644 -0.1655
23826W        W39900  16.671   6.729   1.023 -0.3738  0.2553 -0.0631
23827W        W39901   8.263  16.354   0.205  0.0394 -0.0189  0.0228
23828W        W39902   1.246   2.765   2.003  0.1807  0.1165 -0.1826
23829W        W39903   0.707   1.906   1.774  0.1022  0.0087  0.0122
23830W        W39904   9.962  15.870   5.654 -0.0547  0.1513 -0.1295
23831W        W39905  10.686   0.432  12.744  0.2433  0.0876 -0.3480
23832W        W39906   7.591  15.111  13.192  0.0069  0.1431  0.1214
23833W        W39907   4.087  11.393   2.942 -0.0019  0.2523  0.0577
23834W        W39908   9.150   2.852  14.900 -0.2807  0.2439 -0.1657
23835W        W39909  15.985  16.422  11.737 -0.0919 -0.2082 -0.1751
23836W        W39910  12.079  14.105   5.340 -0.3538 -0.1377 -0.2613
23837W        W39911  16.945  15.514   3.428  0.0908  0.1179  0.0045
23838W        W39912   4.075   0.788   0.519 -0.0021  0.4436 -0.1139
23839W        W39913   2.531  12.526   4.553  0.3321 -0.0962  0.0754
23840W        W39914   3.628  15.190   5.349 -0.0720  0.0845  0.2343
23841W        W39915   2.741  11.240  13.937  0.2132  0.0560  0.0164
23842W        W39916   0.541   2.385   1.713 -0.1784 -0.4079 -0.0988
23843W        W39917   3.494   4.594   3.664 -0.2812  0.2947  0.0638
23844W        W39918   0.467   2.394  14.654  0.3162  0.2436 -0.3076
23845W        W39919  12.781  12.646   2.557 -0.3886  0.0973  0.0902
23846W        W39920  10.836  16.338  13.808  0.1141 -0.1915  0.0664
23847W        W39921   8.228  17.765  11.124 -0.0209  0.1910 -0.0518
23848W        W39922  11.643   4.634   4.848 -0.2489  0.0225  0.1989
23849W        W39923  17.856  17.923  13.653 -0.0332  0.0788  0.0533
23850W        W39924  16.524  13.918  14.950  0.1647  0.0924  0.1245
23851W        W39925  12.283   9.573  11.021  0.2581  0.0320  0.0565
23852W        W39926  17.928   1.378  15.880 -0.0082  0.3091  0.1914
23853W        W39927  14.481  13.543   5.225 -0.1790  0.0037  0.1336
23854W        W39928   5.018  11.467   5.150 -0.2581  0.0019 -0.2185
23855W        W39929  12.008  16.046  11.445 -0.0197  0.0642  0.3000
23856W        W39930   4.825  16.862  14.868  0.1114  0.1730  0.1579
23857W        W39931  15.820   9.407   2.613 -0.1165 -0.0896 -0.0405
23858W        W39932   2.879   3.389  11.757  0.1355 -0.3114 -0.1689
23859W        W39933  11.945   4.614  13.852  0.0163 -0.2448 -0.0451
23860W        W39934   9.840  11.909  14.372 -0.2919 -0.0596  0.1312
23861W        W39935   6.055   4.871   3.978  0.0948  0.1397 -0.0701
23862W        W39936  13.915  18.268   5.589  0.0530 -0.0685 -0.0560
23863W        W39937  15.456   1.632   3.279  0.0562 -0.1704 -0.0189
23864W        W39938  14.923   8.964  13.432 -0.1996  0.2440 -0.0684
23865W        W39939  15.981   0.167   1.601  0.1249 -0.0485  0.0876
23866W        W39940   8.159   2.250   4.868  0.1543 -0.2113  0.1176
23867W        W39941   9.968   3.700  10.995 -0.0860 -0.2642  0.1451
23868W        W39942  13.955   0.961   2.195  0.1055 -0.2660  0.3102
23869W        W39943   0.088  11.840   2.696  0.1166 -0.1753  0.1365
23870W        W39944  18.240   4.400   2.518  0.2074  0.0487  0.0374
23871W        W39945  10.348  15.549   1.554 -0.1099  0.2588  0.2690
23872W        W39946  16.553  11.972  11.771 -0.2033 -0.3170  0.0557
23873W        W39947   7.092   2.131   3.662 -0.0126  0.1297 -0.1220
23874W        W39948   4.115   7.825  14.802 -0.0265  0.0212  0.1390
23875W        W39949  10.973   7.824  11.595 -0.2788 -0.1756  0.1477
23876W        W39950   4.841   4.628  14.601 -0.1279 -0.2263  0.1205
23877W        W39951   5.754   2.034   1.991  0.1326  0.0758 -0.3188
23878W        W39952   3.985  11.155   2.032  0.1785 -0.0175  0.3215
23879W        W39953   4.469   2.164   3.844 -0.0491 -0.0732  0.0538
23880W        W39954  15.476   2.251   0.108 -0.2653  0.1301 -0.1534
23881W        W39955  13.261  15.143  13.518 -0.2245  0.0205 -0.0813
23882W        W39956  14.003   1.189  15.071  0.1542 -0.2234 -0.2800
23883W        W39957  13.748  14.256   4.723  0.0457 -0.1716 -0.0305
23884W        W39958   2.553  16.500  15.538 -0.2406  0.0918  0.0024
23885W        W39959  15.774   6.768  10.124  0.0059  0.0336  0.1175
23886W        W39960   8.399  13.098  14.510  0.2900  0.1131  0.0568
23887W        W39961  13.823  12.720  10.149 -0.2648  0.0668  0.1302
23888W        W39962   6.321  12.790   2.401  0.2619  0.4925  0.0638
23889W        W39963   0.412  10.954   5.854  0.0677 -0.0949 -0.1429
23890W        W39964  11.754  14.684  15.706 -0.1099 -0.2710  0.0224
23891W        W39965  13.427  13.145  15.148 -0.2953 -0.0179 -0.1704
23892W        W39966   7.690  11.772  12.229  0.2720  0.1578 -0.2743
23893W        W39967   6.977  12.430  12.209 -0.2561 -0.1833  0.1769
23894W        W39968   2.323  11.156  15.784 -0.0724  0.1107 -0.2411
23895W        W39969  10.726  10.734  12.780 -0.1086  0.1651 -0.0991
23896W        W39970  11.703   0.370  15.284  0.1108  0.0054 -0.0231
23897W        W39971  16.434   5.126   3.368 -0.4794  0.1733 -0.2539
23898W        W39972   1.398  16.539  13.382 -0.0149 -0.0954  0.2161
23899W        W39973   1.444  17.207  11.472 -0.0309 -0.1196 -0.1149
23900W        W39974   2.475   6.741   0.679 -0.3047 -0.0100 -0.1440
23901W        W39975   7.534  13.871   2.740  0.3136 -0.3491 -0.0980
23902W        W39976  17.752   2.808  13.390 -0.1318  0.0786 -0.1728
23903W        W39977   3.378  13.690   4.768  0.0775 -0.0466 -0.2086
23904W        W39978  13.193   0.026  12.449  0.0802  0.0878  0.0634
23905W        W39979  14.568  13.895  14.454  0.1679  0.2354  0.2977
23906W        W39980   3.358   0.773   5.730 -0.0128 -0.4515  0.1473
23907W        W39981   2.605   6.266  13.982  0.0491  0.0640  0.0870
23908W        W39982  10.601   8.491   0.690  0.2527  0.0165 -0.0017
23909W        W39983  16.133   2.819  11.644 -0.2879 -0.0667  0.3889
23910W        W39984   7.564   7.940   0.660  0.0112 -0.0316  0.0725
23911W        W39985   5.078   7.007   4.345 -0.2267 -0.0674 -0.0590
23912W        W39986  17.267  13.838  14.333 -0.0160  0.1811  0.1881
23913W        W39987  14.219   5.030   1.346 -0.2418  0.3890 -0.1998
23914W        W39988   2.679  14.770  13.236  0.0281 -0.0835 -0.1018
23915W        W39989  14.894   9.153   0.640  0.1178 -0.0157 -0.0988
23916W        W39990  15.458  14.634  14.593 -0.1764  0.1870  0.1549
23917W        W39991   8.715  12.779  12.386 -0.0972  0.1636  0.0134
23918W        W39992  13.546  14.843  10.822  0.1049  0.2172  0.0279
23919W        W39993   3.790   3.782   4.747 -0.0286  0.1074 -0.2970
23920W        W39994   6.214  15.746  15.099 -0.2515  0.0967 -0.2069
23921W        W39995   4.259   8.268   1.280  0.1742  0.0522 -0.2589
23922W        W39996  12.218   7.808   1.495 -0.0429 -0.3999 -0.0075
23923W        W39997  17.796   1.587  12.519 -0.2749  0.0129  0.1627
23924W        W39998   3.355  10.518   2.338 -0.4806 -0.1453 -0.1530
23925W        W39999  17.406  16.979  12.823 -0.3756 -0.0245 -0.1084
23926W        W40000  12.327   3.505   1.179  0.1630  0.0039 -0.2252
23927W        W40001  16.542  18.404  12.030  0.0752 -0.0336  0.1298
23928W        W40002  12.519  12.910   4.155 -0.0874  0.3905  0.0552
23929W        W40003   5.597   8.482   4.575  0.1512  0.1260 -0.1605
23930W        W40004  11.310   7.717   1.940 -0.0771  0.0691 -0.2834
23931W        W40005  15.374   3.598  16.019  0.1462 -0.0264  0.1469
23932W        W40006   0.441   7.037   0.107 -0.0926 -0.0469 -0.2740
23933W        W40007   8.224  17.585  15.595  0.0095 -0.2061  0.0942
23934W        W40008   9.691  15.393   3.092  0.1563  0.1957  0.0055
23935W        W40009  14.638  14.188   5.462  0.0196 -0.0814  0.0688
23936W        W40010  11.515   3.783   5.931 -0.0639  0.1071  0.1868
23937W        W40011  18.313   9.846  15.800 -0.2915  0.1707 -0.0781
23938W        W40012   7.940  13.050  11.700 -0.1518  0.2482  0.1696
23939W        W40013  13.467   9.272  14.470 -0.0531  0.1455 -0.2092
23940W        W40014  14.288   5.157   1.892  0.1544  0.1315  0.2815
23941W        W40015   0.635   3.120  10.595 -0.1656 -0.1141 -0.0013
23942W        W40016   5.080   4.120  13.877  0.0352  0.2086  0.0580
23943W        W40017  10.631  10.778  11.110  0.0952 -0.1377 -0.0428
23944W        W40018   9.113  16.080  14.047 -0.2697 -0.0369  0.0308
23945W        W40019   3.940  13.529  13.330 -0.2157  0.0123  0.0330
23946W        W40020  11.885  15.764   0.408 -0.0642 -0.0104 -0.1347
23947W        W40021  13.144  17.561  12.360 -0.2167  0.4896 -0.0308
23948W        W40022   3.286  10.090  12.633  0.3256 -0.0836  0.3245
23949W        W40023  13.448   5.989  11.995  0.1217 -0.1200  0.2394
23950W        W40024  11.557   3.688  15.339  0.1415 -0.2702  0.1498
23951W        W40025   4.371   5.890   1.252  0.0892  0.2719 -0.2999
23952W        W40026   7.213   2.565   5.341  0.0350 -0.0885  0.2016
23953W        W40027   9.511   4.668   0.399 -0.2212 -0.3447  0.0060
23954W        W40028   1.095   7.114  15.189  0.3724  0.2639 -0.2485
23955W        W40029  18.306  13.859   0.303  0.2146  0.0724  0.2307
23956W        W40030  11.424   6.677   4.179  0.0701  0.1419  0.1880
23957W        W40031   1.362  12.602   1.432  0.0679 -0.1928  0.0166
23958W        W40032   0.672  11.583  10.757 -0.0615  0.1931 -0.0518
23959W        W40033  11.294   2.300   3.137  0.2079  0.0434 -0.3204
23960W        W40034   7.755  15.539  12.962  0.3958 -0.0282  0.0132
23961W        W40035   6.359  11.680   0.024 -0.1882 -0.4270 -0.0982
23962W        W40036  15.945   8.047   0.998 -0.0301 -0.1128  0.0879
23963W        W40037   1.104  10.680  13.247  0.0120  0.1642 -0.0186
23964W        W40038  15.282   9.718   0.147  0.0470  0.2733  0.1008
23965W        W40039  14.871   1.510  10.879 -0.2245 -0.1802  0.0265
23966W        W40040  15.979   7.066  15.820  0.0927  0.0680 -0.4895
23967W        W40041   3.446   9.401  15.126 -0.0256 -0.1099 -0.0446
23968W        W40042  11.187   7.538  13.590  0.5418  0.0830  0.0127
23969W        W40043   4.670  16.652  15.340 -0.0121 -0.2257 -0.0475
23970W        W40044  14.296   4.528  11.221  0.4336 -0.1575  0.0231
23971W        W40045  14.689  16.668   2.417 -0.2448 -0.2765  0.0098
23972W        W40046  16.567   6.333   1.363 -0.0739  0.0777 -0.1575
23973W        W40047  14.708   7.223  12.703  0.0782  0.0469  0.0407
23974W        W40048   9.665   8.053   5.646 -0.2568 -0.0732 -0.4988
23975W        W40049   9.978   9.138   0.273 -0.2530  0.1186 -0.1284
23976W        W40050   5.918   0.608   0.620 -0.0233 -0.1154 -0.0429
23977W        W40051  16.946   6.995  12.532  0.0146 -0.0848 -0.2082
23978W        W40052   3.859   2.118  12.071 -0.0978 -0.1754  0.2115
23979W        W40053   5.419  11.638   4.310 -0.0067 -0.2261 -0.3359
23980W        W40054  13.653   0.425   5.310  0.1164  0.2218  0.0426
23981W        W40055   8.727  14.053  15.159  0.0894 -0.0828 -0.0267
23982W        W40056   6.171   4.632   0.517 -0.2021 -0.1892 -0.0668
23983W        W40057  11.398  11.277   2.926  0.1039  0.0921  0.2470
23984W        W40058   9.099   0.648   1.499 -0.1572  0.2763 -0.2349
23985W        W40059   3.373  17.868  12.510 -0.2773 -0.2828 -0.0228
23986W        W40060   5.476   0.836   2.581  0.0749 -0.1470  0.2605
23987W        W40061   2.839   6.484   0.936  0.0083  0.0574  0.1556
23988W        W40062   2.226  17.920  15.632  0.0168  0.1594  0.0937
23989W        W40063   5.965  17.848  15.250 -0.0735 -0.0547  0.2343
23990W        W40064   8.822  16.391  13.142 -0.3750 -0.1791 -0.1148
23991W        W40065   6.177  12.964   3.548 -0.2161  0.2640  0.0240
23992W        W40066   2.379  10.175   2.259  0.1031 -0.0004 -0.3304
23993W        W40067   6.270   2.762  13.035  0.1066 -0.1286 -0.0679
23994W        W40068  15.262   4.827   3.984  0.0645 -0.3592 -0.2615
23995W        W40069   7.744  16.904  12.148  0.1173  0.1165  0.0114
23996W        W40070  17.294   9.788   4.225  0.2087  0.3662  0.0750
23997W        W40071   4.612   4.310  12.166 -0.3502 -0.3257  0.1192
23998W        W40072   7.714   8.392   0.751 -0.2703 -0.0675 -0.0353
23999W        W40073   7.353  18.042   3.972  0.2794  0.1084  0.2722
24000W        W40074  11.350  12.914  14.404  0.4603  0.2532 -0.2537
24001W        W40075   2.678  15.142   2.929  0.2444 -0.1272 -0.1157
24002W        W40076  10.305   8.242  14.254 -0.3012 -0.0295 -0.0645
24003W        W40077   0.844  16.597   1.843 -0.0149 -0.0226  0.2164
24004W        W40078  10.180  13.787  15.728  0.1628 -0.2230 -0.0392
24005W        W40079  16.919   1.857   4.548 -0.1955 -0.4449 -0.1332
24006W        W40080  14.708   6.404   4.218 -0.6016  0.2492 -0.0666
24007W        W40081  13.276   9.021   4.285 -0.0735 -0.2152  0.0024
24008W        W40082  13.435  18.167  12.615  0.1006 -0.0569 -0.2109
24009W        W40083  17.717  10.053  13.770  0.0993  0.2092  0.1304
24010W        W40084   4.591   7.397   0.242 -0.0013 -0.0929  0.1070
24011W        W40085   7.487   0.530  10.969 -0.3258 -0.1388 -0.1964
24012W        W40086  14.530   3.963  12.264  0.0420  0.0803 -0.0484
24013W        W40087  10.783   0.671   0.625 -0.0599  0.0649  0.2415
24014W        W40088   1.774  14.766   3.123  0.0563 -0.0323  0.0992
24015W        W40089  15.736   1.421   2.891  0.1421 -0.2916  0.0743
24016W        W40090   3.125  12.280  14.672  0.0367  0.0736  0.0929
24017W        W40091   7.642  18.373   0.858  0.0449 -0.0124 -0.0488
24018W        W40092   4.490   0.740   0.138  0.1321  0.0044  0.0209
24019W        W40093   7.363  12.755   4.058  0.0931 -0.0651 -0.0101
24020W        W40094   8.455  13.546   0.108  0.1205  0.2297  0.0208
24021W        W40095   8.627   6.557   1.947 -0.1413 -0.1280 -0.0210
24022W        W40096   8.383  12.236  11.114  0.0405  0.1087  0.2139
24023W        W40097   4.457  17.951  11.096  0.3159 -0.0185 -0.0094
24024W        W40098  13.758   3.168   0.037 -0.1920  0.1816  0.0902
24025W        W40099  13.107   5.582   5.107 -0.1969 -0.1293 -0.1956
24026W        W40100   8.410   1.352  14.703  0.0360 -0.5110  0.1999
24027W        W40101  12.432   8.413  13.763 -0.2089  0.0909 -0.0390
24028W        W40102  18.257  13.324  13.709  0.2861  0.1840 -0.2194
24029W        W40103  17.762  15.250   2.260 -0.3652 -0.2687  0.1748
24030W        W40104   1.944   9.093   4.149  0.1748  0.0610 -0.3562
24031W        W40105   5.170  17.975  14.044 -0.1866  0.0119 -0.0023
24032W        W40106  15.756  15.603   3.916  0.3627 -0.3292 -0.1258
24033W        W40107   1.504   1.796  14.009  0.1078  0.3819  0.2543
24034W        W40108  16.695   5.109  15.606 -0.0892  0.0149  0.0284
24035W        W40109   0.508   3.522  11.889 -0.0201 -0.2046  0.1760
24036W        W40110  13.312   1.713   3.002  0.1452 -0.1060  0.4690
24037W        W40111   2.244  14.981  13.038  0.1932 -0.2036 -0.2208
24038W        W40112   6.215  15.924   3.518 -0.1020 -0.0655 -0.0630
24039W        W40113  10.775  15.640   0.221  0.1393  0.2731 -0.1354
24040W        W40114   4.533  16.750   3.405  0.0067  0.1895  0.0626
24041W        W40115  10.943   2.710   5.546  0.2311 -0.0345 -0.1971
24042W        W40116  18.198   5.675   1.161  0.0895  0.0372 -0.1938
24043W        W40117   8.523   1.364  15.216 -0.1927 -0.3404 -0.1265
24044W        W40118  15.046  15.699   4.865 -0.0589 -0.0232 -0.1072
24045W        W40119  14.771   9.996   4.821  0.2432 -0.2366 -0.1318
24046W        W40120  10.689   0.746  15.098  0.2068  0.1923  0.0308
24047W        W40121  11.200   4.658   2.244 -0.1203 -0.2809  0.0705
24048W        W40122  17.540   6.047   5.172 -0.1725  0.2628  0.0318
24049W        W40123  16.680  14.099   2.349 -0.0666  0.0995  0.0384
24050W        W40124   1.283  18.460  14.423 -0.1598 -0.3235  0.0113
24051W        W40125  16.991   6.486   5.683  0.1269  0.2059  0.2775
24052W        W40126  11.705   9.627  13.012  0.3102 -0.1553  0.3201
24053W        W40127  11.467   2.942   1.462  0.2384  0.0093 -0.1500
24054W        W40128  17.810  18.054   3.673 -0.0579  0.3608 -0.1529
24055W        W40129   2.291  13.216  15.855 -0.0862 -0.0384 -0.0946
24056W        W40130   1.890  17.740  12.114 -0.0012 -0.0127  0.1844
24057W        W40131  11.755  10.030   5.290  0.1061  0.2234  0.1632
24058W        W40132  11.648   7.252  14.348 -0.1540  0.1876 -0.0557
24059W        W40133   9.212  14.250   6.174 -0.0307 -0.0400  0.2426
24060W        W40134   6.060   8.242   0.031  0.0935  0.0935  0.0461
24061W        W40135  17.354   1.581  12.730 -0.1148  0.0323 -0.0914
24062W        W40136  14.388  15.174  12.148  0.1906  0.1147 -0.2617
24063W        W40137  18.102  14.193  12.019  0.0238 -0.3231  0.0287
24064W        W40138  13.534  14.685   2.372 -0.0814 -0.1470 -0.1366
24065W        W40139  10.795  11.852   4.816  0.0021 -0.2994  0.0804
24066W        W40140   8.215   7.777  11.253  0.1005 -0.3355 -0.0749
24067W        W40141   3.482   6.205  13.911  0.0110 -0.1605 -0.0595
24068W        W40142   1.424   6.210   3.045 -0.2864 -0.0008 -0.2293
24069W        W40143   0.328   9.257   5.097 -0.0444 -0.3882  0.0673
24070W        W40144   9.803   2.103  12.480 -0.3275  0.3007 -0.1634
24071W        W40145   3.234   7.513   5.094  0.0266  0.2573  0.1074
24072W        W40146  13.947   8.126   2.489 -0.0299  0.0742  0.2229
24073W        W40147  15.573   7.540   5.955  0.1502  0.0893 -0.1750
24074W        W40148   1.408  17.391   2.848 -0.1587  0.0174 -0.3108
24075W        W40149  12.697  18.550   0.745  0.0999  0.1950 -0.1458
24076W        W40150  11.308  13.798  14.744 -0.1573 -0.2880 -0.2432
24077W        W40151   6.517  15.036   0.676  0.1744  0.1631 -0.2203
24078W        W40152  12.523   9.715   3.438  0.1796 -0.0502  0.5585
24079W        W40153   2.263   2.071   5.481 -0.0210 -0.1229 -0.0336
24080W        W40154  17.167   6.161  13.133 -0.2737 -0.1631  0.1781
24081W        W40155   7.442  13.120  11.416 -0.0023 -0.1371  0.0617
24082W        W40156  18.352   7.921   3.100  0.3414  0.1409 -0.0566
24083W        W40157   5.257   8.917   3.717  0.1760 -0.1914 -0.0472
24084W        W40158   8.735  10.445   4.049 -0.1146  0.3448  0.0170
24085W        W40159   8.435   2.269   1.076 -0.4749 -0.1082 -0.1200
24086W        W40160   9.185   1.315   4.038 -0.0992 -0.0505 -0.2877
24087W        W40161  10.619   7.723   4.355  0.4706 -0.0660  0.0410
24088W        W40162   9.309   3.384   2.483 -0.4549  0.1357  0.1485
24089W        W40163  12.511   8.754   0.433  0.7152 -0.0789 -0.2436
24090W        W40164   3.632   6.358  14.400  0.0527  0.1806  0.1788
24091W        W40165   3.077   5.466   3.627 -0.2967 -0.1870  0.0886
24092W        W40166  16.471  13.645  13.361  0.1753  0.4182 -0.1215
24093W        W40167  12.118   3.773   3.687 -0.2833 -0.3014 -0.0663
24094W        W40168  14.541  14.385  14.543 -0.0524 -0.2696 -0.2073
24095W        W40169   0.273   7.762  11.989  0.1413  0.3232 -0.3359
24096W        W40170  13.527  14.168   1.620  0.2355 -0.0643  0.2949
24097W        W40171  15.620   3.356   4.268 -0.0280  0.1571 -0.0963
24098W        W40172  12.235  13.326   3.796  0.0730 -0.2560  0.0954
24099W        W40173  14.021   3.213   3.563 -0.3157  0.0614 -0.1576
24100W        W40174   2.783   3.220   0.919  0.0487 -0.2054  0.1538
24101W        W40175   8.010   9.583  14.744 -0.2034 -0.3180 -0.0314
24102W        W40176   0.861   0.646  12.807  0.1115 -0.1054 -0.2241
24103W        W40177  10.932  15.332  12.606  0.0232  0.4619  0.1006
24104W        W40178   7.861  12.938  11.226  0.4431  0.0256  0.1390
24105W        W40179  13.419   1.027  11.059 -0.2126 -0.0248 -0.0769
24106W        W40180   1.281  11.881   3.465  0.4103  0.2450 -0.3018
24107W        W40181  13.936  14.151   3.964  0.0324  0.3491  0.0366
24108W        W40182  16.157  12.935   0.627 -0.3086  0.1202  0.3734
24109W        W40183   8.993   1.285  15.444  0.0840  0.5513  0.0117
24110W        W40184   0.102   6.815  15.413 -0.0597  0.1642 -0.1217
24111W        W40185   3.154   5.501   0.171 -0.3899 -0.0999 -0.1108
24112W        W40186  11.487   0.408   0.092  0.3211 -0.1149 -0.1758
24113W        W40187   5.113  17.095  12.202 -0.0703 -0.0501 -0.0116
24114W        W40188   9.900   6.957   5.577  0.1053 -0.0441  0.0976
24115W        W40189  15.731   8.545  11.697 -0.4927  0.0218 -0.3122
24116W        W40190   2.082   1.035  15.119 -0.4449 -0.2233 -0.0433
24117W        W40191  12.752  10.854   5.297  0.1021 -0.0022 -0.0161
24118W        W40192   7.461  10.989  15.207  0.0406  0.4617  0.4194
24119W        W40193  18.405  10.132   2.372  0.0860  0.0866  0.1101
24120W        W40194   5.978  13.767  14.844 -0.2404  0.3247 -0.1798
24121W        W40195  14.483   8.397   1.854  0.3490 -0.0179  0.1118
24122W        W40196  18.354  17.948   5.141 -0.0975  0.1068 -0.0712
24123W        W40197   8.084   1.934   1.758 -0.1158  0.2723 -0.3740
24124W        W40198   6.143  17.781  14.127  0.0619 -0.0131 -0.1402
24125W        W40199  14.419  16.174   0.035  0.0741  0.0914 -0.4644
24126W        W40200  18.208  18.200   3.347  0.0543  0.0966 -0.0407
24127W        W40201   3.980  10.841  15.851 -0.1040 -0.0357 -0.3695
24128W        W40202   5.905   8.198  13.635  0.0922  0.2513  0.1353
24129W        W40203   1.309   8.456  11.800  0.1519  0.2053  0.0043
24130W        W40204  13.074  17.625  13.656 -0.3670  0.0019  0.1722
24131W        W40205   5.808  12.669   1.750  0.0508 -0.0822  0.2182
24132W        W40206  15.834  15.651  14.985  0.0939 -0.1763  0.1119
24133W        W40207   2.858   4.570   3.177 -0.1739 -0.1145 -0.3705
24134W        W40208   7.110  14.698   5.176  0.5765  0.1871  0.1838
24135W        W40209   9.254  11.834  12.988 -0.1955  0.2791 -0.0263
24136W        W40210  17.006  11.936   5.603  0.1508 -0.1169  0.2805
24137W        W40211  14.334   4.015   4.785  0.1106 -0.4792 -0.0353
24138W        W40212   1.475  11.646   2.320 -0.2703 -0.0981 -0.1362
24139W        W40213   4.709  17.381  13.591  0.0135 -0.1051  0.0410
24140W        W40214  18.163  11.360   1.461 -0.2151 -0.2488  0.4560
24141W        W40215  18.018   1.389   4.089  0.0132  0.0911 -0.2580
24142W        W40216  17.331  11.196  11.916 -0.1331 -0.1098  0.1732
24143W        W40217   4.834   9.623   2.627 -0.0275 -0.1755 -0.0750
24144W        W40218   3.243  12.599  15.407 -0.0491  0.0254 -0.1205
24145W        W40219  17.001   7.606  15.454 -0.1066  0.0611  0.0545
24146W        W40220   8.284   5.672  14.805 -0.0218  0.4556 -0.2221
24147W        W40221  15.272   6.926  10.949  0.0649 -0.0037  0.0145
24148W        W40222  13.823  12.936   2.756 -0.1837  0.2929  0.1932
24149W        W40223   2.522  12.252   0.368  0.0119  0.3517  0.1435
24150W        W40224  12.579  18.214   4.083 -0.2862  0.0751  0.1859
24151W        W40225   3.697  15.526   3.338 -0.0629 -0.0332 -0.1748
24152W        W40226   9.058  10.116   3.805  0.1546 -0.1132 -0.1462
24153W        W40227  10.126  14.028   5.041  0.0098  0.1764 -0.0249
24154W        W40228   4.567   3.681   0.713  0.2196 -0.2365  0.0577
24155W        W40229  12.295  11.046  15.856  0.1036 -0.1892  0.2726
24156W        W40230   1.426  12.222  12.893 -0.0806 -0.3693  0.1241
24157W        W40231   2.894  12.776   4.381 -0.1241 -0.0115  0.1508
24158W        W40232   4.307  14.877   3.748  0.4101  0.2647 -0.1234
24159W        W40233   2.883  15.127   1.038 -0.2455 -0.3095 -0.1489
24160W        W40234   5.413   7.310   4.742 -0.2804 -0.0206  0.0704
24161W        W40235   9.559  15.886  11.877  0.0320  0.2000  0.2814
24162W        W40236   7.226   3.424  15.907  0.0778 -0.3686  0.0323
24163W        W40237  14.153   4.366  11.988  0.1486  0.1291 -0.5962
24164W        W40238   8.718  13.168   2.385 -0.2702  0.3111  0.0338
24165W        W40239  11.652   5.283   3.658  0.1280  0.0266 -0.3262
24166W        W40240  13.229   5.111   2.479 -0.0473 -0.3496 -0.0412
24167W        W40241  15.301  10.055   4.470  0.0580  0.2096  0.0321
24168W        W40242   0.153   2.571   2.482  0.1232  0.1406  0.1370
24169W        W40243   0.801  16.219   1.520  0.0878 -0.1790 -0.2943
24170W        W40244   4.282  16.282  15.064  0.0771 -0.0291 -0.1220
24171W        W40245   7.976   5.320  14.488  0.1182 -0.1516 -0.0122
24172W        W40246   8.941   0.577   0.703 -0.1278  0.0826  0.1018
24173W        W40247   8.730  15.888  14.988 -0.0711 -0.2557  0.0087
24174W        W40248   7.922   8.920   4.775  0.0190  0.1055  0.0486
24175W        W40249   4.919   7.129   3.493 -0.0809  0.1239  0.0436
24176W        W40250   2.086  17.119  12.971  0.2472 -0.0505  0.0501
24177W        W40251   4.201   5.975  13.152 -0.0662 -0.0711  0.0494
24178W        W40252  11.339   4.105  13.188  0.2208  0.1043  0.1370
24179W        W40253   3.107  10.227  14.651  0.0511 -0.1296  0.1731
24180W        W40254   8.401   4.980   1.507  0.0990 -0.0452 -0.0503
24181W        W40255   4.833   4.510  11.785  0.4105 -0.0603 -0.1926
24182W        W40256   1.919  10.040   4.378 -0.3059  0.0507  0.1455
24183W        W40257   2.613  16.163  11.581 -0.0736  0.0822  0.0870
24184W        W40258   0.846  12.875  13.614 -0.1485 -0.1072 -0.1634
24185W        W40259   3.671   1.639   0.502 -0.0105 -0.1508 -0.3553
24186W        W40260   6.284   9.948  14.029  0.0374  0.0043 -0.1141
24187W        W40261   0.707  15.965  12.652 -0.1180 -0.3177  0.0293
24188W        W40262  17.188  15.966   5.451  0.1503  0.1657 -0.2861
24189W        W40263   5.688   6.892  14.081 -0.0911 -0.0272 -0.0959
24190W        W40264   9.654   9.661   3.182 -0.2815  0.0945 -0.1073
24191W        W40265  17.930  16.698   4.829 -0.0562 -0.4670 -0.1614
24192W        W40266  10.840  15.825  12.377 -0.0683 -0.1303  0.1418
24193W        W40267   6.177  16.454   4.068 -0.1829  0.0431  0.0710
24194W        W40268   1.673   8.402  12.282 -0.0299 -0.1184 -0.1451
24195W        W40269  13.795  14.334  14.919  0.1165  0.1297 -0.0458
24196W        W40270  17.060  14.201   4.510 -0.3804 -0.2057  0.1437
24197W        W40271  11.712   9.026  13.094 -0.0373  0.1977 -0.2283
24198W        W40272   1.564  17.773  15.510 -0.1597  0.0419  0.4200
24199W        W40273   4.692   9.030   4.178 -0.0303 -0.0720 -0.0221
24200W        W40274  13.212  10.154   2.464 -0.2137  0.2357 -0.0410
24201W        W40275  17.516  10.563   0.957 -0.0229  0.0108 -0.2765
24202W        W40276  17.417   3.119   4.963 -0.1688  0.2280 -0.0860
24203W        W40277  13.185   8.639   4.729  0.1780  0.3169 -0.0356
24204W        W40278  15.730   4.846  11.962  0.1034 -0.1424 -0.3753
24205W        W40279  11.318   7.694   4.062  0.0464  0.2753  0.1815
24206W        W40280   9.010   3.744   1.752  0.1384 -0.3850 -0.2328
24207W        W40281   0.666  18.319   2.577 -0.0169  0.0409  0.1474
24208W        W40282  18.215  12.092  15.501 -0.4417  0.2757  0.0347
24209W        W40283   4.097  18.542  12.181 -0.1828  0.3693  0.1363
24210W        W40284   6.532  11.457   1.331  0.0648  0.1486 -0.1543
24211W        W40285  17.284   3.606   2.856  0.0815 -0.1265  0.0884
24212W        W40286   0.836   9.872  15.123  0.2064  0.1661 -0.0823
24213W        W40287   2.972  15.859   0.414 -0.3402  0.3738  0.2381
24214W        W40288  15.550   4.577  11.599 -0.0903  0.3913 -0.0261
24215W        W40289  11.274  11.547   3.611 -0.1615 -0.1385  0.1718
24216W        W40290  17.917   0.167  12.456  0.1332 -0.1464 -0.2751
24217W        W40291   5.257   8.285   4.939 -0.0120 -0.5183  0.1808
24218W        W40292   7.030  15.145  14.060  0.0299 -0.3097 -0.0262
24219W        W40293   9.505  16.871  12.584  0.0259  0.2676  0.1260
24220W        W40294  16.607  17.692   0.405  0.2909 -0.0784  0.2283
24221W        W40295  17.190   2.879   4.597 -0.1045  0.1303  0.1589
24222W        W40296   7.550   8.039   4.956  0.0183 -0.0906  0.2201
24223W        W40297   9.076   1.977  14.331 -0.0685 -0.2514 -0.0033
24224W        W40298   3.781   4.957  13.162  0.0859  0.1845  0.1124
24225W        W40299   2.616   5.045  13.894 -0.1058  0.0017 -0.0140
24226W        W40300   3.620  14.464  14.298 -0.1651  0.1950  0.1041
24227W        W40301  13.700   5.092  10.760 -0.0271  0.2793  0.1064
24228W        W40302  11.667  12.992  13.533 -0.1650 -0.1485  0.1038
24229W        W40303   4.049   3.682   2.706  0.0379 -0.0890  0.2034
24230W        W40304  15.689  12.629   4.052  0.0034  0.0572  0.0398
24231W        W40305  15.775  18.176  13.121  0.2354 -0.0535  0.0121
24232W        W40306  12.737  14.918   1.126  0.3307 -0.0111  0.0827
24233W        W40307   1.203  10.660   4.458  0.2514  0.0794  0.3943
24234W        W40308   3.745   1.310   0.082 -0.2192 -0.1103 -0.1995
24235W        W40309   9.518   7.242  13.024  0.3205  0.1393  0.0733
24236W        W40310  17.044  10.607  16.008 -0.1983 -0.0067 -0.0528
24237W        W40311   6.806  10.890   1.683  0.1514  0.0278  0.1085
24238W        W40312   2.693   6.144   0.013  0.2800 -0.1735 -0.2553
24239W        W40313   4.929  18.534  11.775 -0.1389  0.0900  0.1387
24240W        W40314  14.374  14.409  10.061 -0.2624  0.1270  0.0048
24241W        W40315  16.927   5.026  11.974  0.1830 -0.0982  0.0066
24242W        W40316   6.195  11.580  13.587  0.0833 -0.2764  0.2353
24243W        W40317  10.205   3.307  15.433 -0.3947  0.0626 -0.1202
24244W        W40318   4.315   3.561  12.796  0.1109  0.0108  0.0644
24245W        W40319  15.071   5.178  13.338 -0.0398  0.1040  0.3892
24246W        W40320   9.415  18.376  15.312  0.1925 -0.1221  0.2847
24247W        W40321  18.053   9.544  12.032  0.1684  0.0550 -0.3338
24248W        W40322   4.582  10.021  12.827 -0.0049 -0.1581  0.0553
24249W        W40323  11.356   4.899   1.217  0.1672  0.2198 -0.0759
24250W        W40324  10.800   1.504  11.879 -0.3252  0.1905  0.0992
24251W        W40325   9.882  12.658   5.996 -0.2665  0.0554 -0.0235
24252W        W40326  15.916   5.503   1.305  0.0411  0.0081  0.0163
24253W        W40327  14.689   1.814  11.295 -0.0148  0.0407  0.1106
24254W        W40328  16.935   3.630  15.959  0.1593  0.2548  0.1336
24255W        W40329   9.837  14.983  11.930 -0.2113  0.1292  0.1183
24256W        W40330  18.018  10.400  14.936  0.0796  0.0883 -0.0246
24257W        W40331  11.200   2.089   2.009  0.3021 -0.0398  0.0649
24258W        W40332   2.293   0.484   0.362  0.0247 -0.0326 -0.3084
24259W        W40333  10.456   9.558   1.857  0.1534  0.0573 -0.3147
24260W        W40334   6.362   0.979   1.580 -0.0642 -0.0323  0.2465
24261W        W40335   2.367   4.771   3.911  0.1542 -0.2677 -0.1124
24262W        W40336   9.912   5.464   2.197 -0.0773 -0.0352 -0.1424
24263W        W40337   5.144   6.052   0.363 -0.3605 -0.5812  0.2706
24264W        W40338   4.171   3.111   1.925  0.0114  0.4391 -0.0392
24265W        W40339  10.938  14.236   2.259  0.1191  0.1877  0.1780
24266W        W40340   2.982  12.445   3.356  0.1912  0.1730  0.0531
24267W        W40341   4.422  12.130   2.344 -0.4614  0.2008  0.2154
24268W        W40342   9.308  11.992  14.405  0.0087 -0.3612  0.1728
24269W        W40343  15.791   2.747  13.898  0.1519 -0.0541 -0.1323
24270W        W40344  13.993  15.573  13.181  0.2452 -0.1890  0.0153
24271W        W40345   0.075   5.947   3.019  0.2997  0.0623  0.0332
24272W        W40346  15.741  10.325  15.540  0.1332  0.1600 -0.1524
24273W        W40347   4.986   8.666   0.633 -0.1019  0.1594 -0.2681
24274W        W40348  18.123  18.358  10.779  0.1402 -0.1443 -0.1542
24275W        W40349  13.445   1.494  10.763 -0.1380  0.2864  0.3228
24276W        W40350  17.569  16.993  10.971  0.3492  0.0770  0.0677
24277W        W40351  16.713  14.705  13.648 -0.1773  0.2650 -0.0743
24278W        W40352   6.751   3.516   2.328 -0.0846 -0.2739  0.0982
24279W        W40353   0.801  17.539  15.650 -0.1862 -0.0054 -0.0850
24280W        W40354   1.873   6.505   1.757  0.1079 -0.0875 -0.2648
24281W        W40355   2.953  12.110   4.169 -0.0066 -0.1885  0.2310
24282W        W40356  14.819   6.374   2.379  0.2075 -0.1754  0.0582
24283W        W40357   2.178   7.739   1.414  0.0562  0.4365 -0.0604
24284W        W40358   8.212  17.296  16.026 -0.0086 -0.0069 -0.0755
24285W        W40359   5.735  17.399   5.001  0.1271  0.0740  0.2331
24286W        W40360   4.434  17.782   0.175 -0.2006  0.1374  0.1089
24287W        W40361  10.844  12.663  12.394  0.0599 -0.0242 -0.0682
24288W        W40362  15.118   1.703  15.336 -0.1497 -0.0514  0.5298
24289W        W40363   7.279   5.111   0.239  0.2726 -0.0192  0.1647
24290W        W40364   9.905   1.706   4.310 -0.3109  0.2349  0.2245
24291W        W40365  15.931   1.789   2.620  0.3063  0.0217 -0.1444
24292W        W40366  16.087   3.684   0.787 -0.0168 -0.3254 -0.1695
24293W        W40367  12.304   6.637   2.264 -0.2318 -0.2510 -0.2007
24294W        W40368  13.922  11.818  11.341  0.1007 -0.1190 -0.3817
24295W        W40369  15.670  16.227   0.567  0.0324 -0.1240  0.0737
24296W        W40370   0.951   8.116   4.196  0.0702 -0.1557 -0.2644
24297W        W40371  11.387  15.780   2.127  0.0519 -0.1634 -0.3338
24298W        W40372   5.224   2.284   1.732  0.3375  0.0715 -0.1939
24299W        W40373   6.190   5.628  14.704  0.1420  0.3826  0.4695
24300W        W40374   6.235   1.834  13.294 -0.0535 -0.2466  0.1986
24301W        W40375  11.222   5.323  11.248 -0.1869 -0.0305 -0.0665
24302W        W40376  12.745   1.753  12.509  0.0073  0.2094  0.1996
24303W        W40377  11.820   6.404   2.909 -0.0981 -0.2181  0.1282
24304W        W40378   8.265   8.434  15.651  0.2521  0.0768  0.2125
24305W        W40379  15.162  10.494   2.340  0.0256  0.1143  0.0868
24306W        W40380  13.508   4.240   0.857 -0.0476 -0.0171  0.2592
24307W        W40381   5.068  11.334   4.154  0.1872  0.2284  0.4107
24308W        W40382  15.243   4.796  14.927 -0.1863 -0.2544 -0.0825
24309W        W40383   0.483   1.501  14.042  0.0537  0.2015 -0.3742
24310W        W40384   2.496  13.863   5.097  0.0422  0.0003 -0.2857
24311W        W40385  16.575  17.066   2.737 -0.1897  0.3493  0.0609
24312W        W40386   4.229   2.267   2.567  0.3736 -0.2720  0.0311
24313W        W40387   6.553  13.495  12.556 -0.0078 -0.1381 -0.1732
24314W        W40388   8.782  13.680  15.524 -0.2943  0.1110  0.0503
24315W        W40389  15.400  16.872   2.101  0.2523  0.3202 -0.0941
24316W        W40390  15.377  12.301  13.285 -0.2737  0.3215  0.1822
24317W        W40391  15.342  16.058  14.260  0.1452  0.0052 -0.1931
24318W        W40392   9.435  15.523   2.143  0.0044  0.1977  0.3332
24319W        W40393   7.885   9.896   3.478 -0.1038 -0.1828 -0.2949
24320W        W40394   7.417   5.615  12.533 -0.1839  0.0339  0.0033
24321W        W40395  17.422  17.670   3.609 -0.1352 -0.1732 -0.0837
24322W        W40396   1.378   9.397   4.141  0.0435 -0.0337  0.0671
24323W        W40397   1.315   7.802  15.674 -0.1587  0.0508 -0.1513
24324W        W40398  15.466   0.635   2.162  0.0276  0.3580 -0.1909
24325W        W40399  12.255   3.119   2.024  0.0292 -0.0101  0.0623
24326W        W40400   9.974   1.001   0.734  0.2356 -0.0912 -0.3581
24327W        W40401  12.170  10.392  12.910 -0.0431 -0.1353  0.1135
24328W        W40402   4.733   6.666   5.045  0.3866 -0.0438 -0.0606
24329W        W40403  16.320  11.921  13.249 -0.0080  0.0644  0.0148
24330W        W40404  15.036   3.396  12.959  0.3341  0.1009 -0.1287
24331W        W40405  12.861   1.912   2.866 -0.1360 -0.1410 -0.3434
24332W        W40406   4.769  15.023   3.201  0.1406  0.0463  0.0894
24333W        W40407  14.431   7.334   2.358 -0.4527 -0.1102  0.2569
24334W        W40408  16.490   7.661  12.527  0.2548 -0.1057  0.1323
24335W        W40409   7.840  14.386  13.506 -0.0349 -0.0481  0.4450
24336W        W40410   8.780   7.717   3.202 -0.1628 -0.0699 -0.0408
24337W        W40411   0.867  16.228   1.044 -0.2264 -0.0118  0.1098
24338W        W40412   2.344  18.548   3.239 -0.0652  0.0812  0.1572
24339W        W40413   9.427   2.700   4.030  0.0110 -0.3388  0.0181
24340W        W40414  12.652   1.773   1.113  0.2443 -0.1698 -0.1586
24341W        W40415  13.221   3.193  13.301  0.0090 -0.2777 -0.0171
24342W        W40416   4.100  10.718  12.778  0.1246  0.0334 -0.1429
24343W        W40417  16.287  18.452   4.630 -0.0563  0.0976  0.0063
24344W        W40418   1.346   7.978   1.540 -0.0045  0.0976 -0.0868
24345W        W40419  12.269  11.335  15.101 -0.1119  0.2706 -0.1982
24346W        W40420   6.100   0.464   3.737 -0.0876  0.2095 -0.0159
24347W        W40421   2.895   5.951   4.365 -0.0388 -0.0364 -0.2504
24348W        W40422  12.476   8.389  12.199 -0.1661 -0.0742 -0.0012
24349W        W40423  12.107   6.919  10.875  0.0204 -0.0097 -0.0855
24350W        W40424  11.092   8.768   0.412  0.0992  0.1836  0.3622
24351W        W40425  14.929  10.743  15.881  0.1823  0.2909 -0.2631
24352W        W40426   9.251  14.579   5.791  0.1156  0.1126 -0.0968
24353W        W40427   2.213   5.953  11.863 -0.1137 -0.1400 -0.0356
24354W        W40428   2.838   4.715  13.014 -0.1881  0.0532 -0.1410
24355W        W40429  11.616  15.712   2.891  0.2591 -0.0351  0.1604
24356W        W40430   1.540   4.339   3.512 -0.0745 -0.0171  0.2144
24357W        W40431  11.879   3.517   2.161  0.0006  0.1378 -0.0233
24358W        W40432  16.812   8.542   4.743  0.0705  0.3840  0.1710
24359W        W40433   2.328   9.876   4.631  0.0352 -0.1424  0.0953
24360W        W40434   5.807   6.072   4.561  0.0092  0.1863 -0.1086
24361W        W40435  15.960   2.881   3.594 -0.1307  0.1369 -0.0097
24362W        W40436  13.134   6.963   2.023  0.0531 -0.0034 -0.0443
24363W        W40437  18.504  11.931   3.980 -0.2289  0.1310  0.2450
24364W        W40438  15.320   2.846   0.630 -0.0312  0.0801 -0.0241
24365W        W40439   4.502   5.083   1.773  0.2748 -0.1751  0.1187
24366W        W40440   6.139   3.550  14.737 -0.1836  0.2699 -0.0229
24367W        W40441   0.227  17.219   4.547  0.2963 -0.0028 -0.0754
24368W        W40442   5.695  18.425   2.555  0.1363 -0.0512 -0.1594
24369W        W40443  10.887  17.458   2.452 -0.0380 -0.1814  0.2832
24370W        W40444   0.808   3.864   0.906 -0.0730  0.2463  0.1559
24371W        W40445   5.236  18.174   1.157 -0.0086  0.0876  0.3631
24372W        W40446   8.049   7.981  15.787  0.0755 -0.1802 -0.0576
24373W        W40447  15.745  14.326   0.244 -0.2299  0.0920  0.2144
24374W        W40448   1.153   6.087  14.862 -0.1237 -0.4013  0.1312
24375W        W40449   9.250   0.033  13.968  0.0027  0.0727  0.0042
24376W        W40450   3.459   6.915  12.651 -0.2324 -0.5343 -0.0863
24377W        W40451   2.574   3.651   4.263 -0.1228 -0.3785 -0.0559
24378W        W40452   5.491   6.957   1.195  0.1822 -0.2636 -0.3022
24379W        W40453  18.320   1.816  15.173 -0.1088 -0.0850  0.1168
24380W        W40454   3.269   4.224  14.206  0.0325 -0.1652  0.2415
24381W        W40455   2.792   0.328  14.391  0.3616  0.0337  0.0224
24382W        W40456  17.137  17.130   0.297  0.0724 -0.0226  0.2777
24383W        W40457  17.220  15.553  12.780 -0.3149  0.0837  0.1112
24384W        W40458  12.278   8.245   1.729  0.0705 -0.1221 -0.1304
24385W        W40459   2.819   1.525   3.239 -0.1432  0.0463  0.1075
24386W        W40460   3.306   7.834   0.001 -0.1726  0.0025  0.2005
24387W        W40461  14.060  14.380  12.073 -0.3882  0.2321  0.2532
24388W        W40462   8.622  15.052   5.029 -0.1526 -0.0981  0.4348
24389W        W40463   0.108   8.752  12.614  0.2845 -0.0328 -0.2034
24390W        W40464   3.067  18.264   4.929 -0.0106 -0.0944 -0.2263
24391W        W40465  13.327  13.342   4.550  0.3365  0.3125  0.1579
24392W        W40466   4.319   5.238  14.100  0.0077 -0.0200 -0.3522
24393W        W40467   5.890   4.906   5.614  0.2446  0.0975  0.1796
24394W        W40468  13.433   5.189  14.967 -0.1972 -0.1416 -0.0568
24395W        W40469   8.252  10.159   4.853 -0.1154 -0.0506 -0.0528
24396W        W40470   2.730  13.547   1.823 -0.0271 -0.1317 -0.3580
24397W        W40471   7.078   1.319  14.211 -0.0847  0.0930 -0.1671
24398W        W40472   0.316   9.717  13.416  0.0587 -0.0625 -0.2179
24399W        W40473   0.938   1.960  16.016 -0.1708  0.0079  0.0235
24400W        W40474   3.876  15.372  14.434  0.2403 -0.2392 -0.1219
24401W        W40475  18.176  17.492  14.399  0.0717  0.0351  0.1636
24402W        W40476   1.941   8.088   1.688 -0.1772  0.2172 -0.0153
24403W        W40477  10.067   3.380  11.824 -0.1036 -0.0155  0.2491
24404W        W40478  10.121   9.943   4.103 -0.2142 -0.0272 -0.0424
24405W        W40479   4.555   9.324   0.616  0.2743  0.5091  0.1579
24406W        W40480   1.245   2.639   3.039  0.1683 -0.1244  0.0642
24407W        W40481   3.478  13.283  13.691  0.2054 -0.1310  0.0847
24408W        W40482   4.169   1.073  15.992  0.1508 -0.1155  0.1165
24409W        W40483  18.273  10.963   1.174  0.4003  0.5738  0.0542
24410W        W40484  11.801  17.868   1.555 -0.0307  0.0771 -0.0384
24411W        W40485   4.154  16.429  12.475  0.0021 -0.2688 -0.1904
24412W        W40486   6.352   2.080   2.131 -0.1552 -0.2977  0.0391
24413W        W40487  15.475   5.357  12.323  0.0719  0.2844  0.3232
24414W        W40488   0.605  10.484   5.626 -0.0985  0.0396 -0.0668
24415W        W40489  15.901   7.917  15.916  0.2015 -0.2158  0.4747
24416W        W40490  12.568   5.153   4.140  0.2611 -0.0200 -0.2676
24417W        W40491   4.283   4.439  12.535 -0.3210  0.0655  0.0927
24418W        W40492  14.447   4.708   0.367 -0.0028 -0.2252 -0.1016
24419W        W40493  16.791  12.264  13.216 -0.3069 -0.0214 -0.0766
24420W        W40494  17.325  11.647  15.212  0.1297 -0.1875  0.1575
24421W        W40495   7.473   3.480   6.041  0.1861  0.2917  0.2873
24422W        W40496   3.329  10.089  13.637 -0.0461 -0.1521  0.0574
24423W        W40497  17.354  13.959   0.243  0.1563  0.2327  0.2669
24424W        W40498   3.914   3.236   2.952 -0.2550 -0.3260 -0.2781
24425W        W40499  10.827   7.389   4.025  0.2306 -0.1957 -0.1096
24426W        W40500  11.354  12.704   0.485 -0.2063 -0.1133  0.0710
24427W        W40501  10.745  16.425  15.921  0.0306  0.2174  0.3099
24428W        W40502  11.127  13.895   3.264  0.2779 -0.1078  0.0530
24429W        W40503   1.907  13.756  11.913  0.0885  0.2270  0.2638
24430W        W40504   9.031   5.660   2.535  0.1167  0.0955 -0.0440
24431W        W40505   4.638   9.848   4.659 -0.3109  0.1268 -0.2505
24432W        W40506   0.731   7.301   4.901  0.0768 -0.1176 -0.2470
24433W        W40507  18.428  14.319   2.305  0.0107 -0.1127  0.0406
24434W        W40508   5.354   8.299   5.455 -0.0328  0.1331 -0.1895
24435W        W40509  12.238  10.870  12.680  0.0493 -0.1180  0.2258
24436W        W40510  15.148   5.374  15.963  0.1901  0.0548  0.0942
24437W        W40511  13.627  14.522   0.139 -0.0951 -0.0653  0.0945
24438W        W40512   1.900   1.489  14.158 -0.1271 -0.0070 -0.0353
24439W        W40513   1.753  11.137  15.929 -0.1594 -0.2687  0.2137
24440W        W40514  10.192  17.896  12.093  0.0146 -0.0203 -0.1051
24441W        W40515   0.532  11.940  14.981  0.1346  0.0656 -0.0219
24442W        W40516   7.002   1.756  14.447  0.1502  0.0573  0.1043
24443W        W40517   9.931   0.405  15.018  0.3248  0.5975  0.1921
24444W        W40518   4.227  13.984  12.651  0.1285 -0.4900  0.1029
24445W        W40519   3.583  13.868  12.066  0.0846  0.0233 -0.3614
24446W        W40520   0.749  10.783  11.611 -0.1113 -0.2009  0.5179
24447W        W40521   2.964  13.879   0.633  0.0945 -0.1151  0.0261
24448W        W40522  13.715   8.961   4.028  0.0326 -0.1242  0.0839
24449W        W40523  18.549   8.138   4.746 -0.0164  0.0075 -0.2037
24450W        W40524  11.612  12.108   3.022  0.5173 -0.1499  0.0885
24451W        W40525  13.629   2.681  14.482 -0.0694 -0.0328 -0.0661
24452W        W40526  16.823  14.934   0.673 -0.1648 -0.0828  0.1779
24453W        W40527   4.038  11.762   2.263 -0.0613 -0.0705  0.0251
24454W        W40528  11.310  18.503  11.344  0.1725  0.0382 -0.0082
24455W        W40529  14.737  18.192   3.982 -0.1891  0.0568 -0.1986
24456W        W40530  16.787   4.178  15.237 -0.0479 -0.0534 -0.0523
24457W        W40531   9.759  15.505  11.646  0.0943 -0.1175  0.0746
24458W        W40532   5.752  12.217   3.655  0.2458 -0.4367  0.0897
24459W        W40533   7.727   6.404  13.536  0.0918  0.1315  0.2960
24460W        W40534  16.892   3.183   0.181  0.0667 -0.0199 -0.2444
24461W        W40535   9.626   3.384  12.162  0.0567 -0.0388 -0.0661
24462W        W40536   1.921  11.786  14.415 -0.2903  0.1450 -0.0115
24463W        W40537   6.785   8.928  13.338  0.2136 -0.1245 -0.3462
24464W        W40538  10.119  15.963   2.767 -0.0677  0.1790 -0.0713
24465W        W40539  16.162  13.411  15.708 -0.1330 -0.0764 -0.1121
24466W        W40540   1.560  10.368   5.119 -0.1273  0.0985 -0.2793
24467W        W40541  17.218   4.886   3.210  0.2135 -0.1032  0.2259
24468W        W40542  10.072  15.454  11.071  0.0948  0.0775 -0.1148
24469W        W40543  15.334   7.815  11.673  0.1961 -0.1307 -0.3920
24470W        W40544   2.672   7.794  14.566  0.0942  0.0903 -0.0252
24471W        W40545   8.646   2.774  15.574 -0.1213  0.0641 -0.2132
24472W        W40546   7.798  15.721   2.717 -0.0598  0.4124  0.2635
24473W        W40547  17.802   8.550   4.735 -0.3049  0.0779  0.2587
24474W        W40548   7.082  14.298  15.570  0.1116 -0.1578 -0.1775
24475W        W40549  12.816   0.437   1.659 -0.0464 -0.1680  0.1345
24476W        W40550   8.649   9.984   4.088  0.2923 -0.0914 -0.1684
24477W        W40551   1.168   3.817  15.231 -0.1357 -0.0414  0.2102
24478W        W40552  17.104   4.850   1.853  0.0880 -0.2180 -0.2391
24479W        W40553   0.639  11.199   3.335  0.2253  0.0275 -0.0865
24480W        W40554   5.058  10.614   3.563 -0.1551  0.0776  0.3760
24481W        W40555  13.908  13.676   0.743 -0.0505 -0.3288  0.0558
24482W        W40556   3.112   7.235  13.735 -0.1482  0.1397  0.0911
24483W        W40557   2.165  17.182   5.036  0.3603  0.3542 -0.3214
24484W        W40558   6.440   8.641   1.222  0.0186 -0.1265  0.2000
24485W        W40559  12.718   8.200   0.602 -0.1403 -0.0593  0.2494
24486W        W40560   9.198   4.763   1.996 -0.0022  0.2612  0.0234
24487W        W40561  14.877  10.094  12.487 -0.4892  0.0474  0.3936
24488W        W40562  11.010   0.315   0.844 -0.3614  0.1063 -0.0454
24489W        W40563  10.784  11.629  14.512 -0.0372 -0.1188 -0.1806
24490W        W40564  16.684   0.676  15.812 -0.2944 -0.1340 -0.2871
24491W        W40565   9.149   2.033   3.435 -0.1476  0.2634  0.3197
24492W        W40566  13.004  14.526   0.316 -0.2206 -0.0397 -0.0024
24493W        W40567   0.327  13.636  15.287  0.0172  0.1166  0.2587
24494W        W40568  10.559   5.842   0.228 -0.2921 -0.2671  0.1632
24495W        W40569   9.231   6.134   0.275  0.2451 -0.1444 -0.0294
24496W        W40570   3.404  17.896   2.631 -0.0435  0.2160 -0.1535
24497W        W40571  17.121  13.050   2.511 -0.1427  0.1304  0.0691
24498W        W40572  13.869   9.228  12.623  0.1227 -0.4887  0.2080
24499W        W40573  13.802  11.792   4.532 -0.1356 -0.1950  0.0293
24500W        W40574   3.485   7.760   0.614 -0.0115  0.0680 -0.6641
24501W        W40575   1.829  13.132  14.491  0.0305  0.3295  0.1155
24502W        W40576   2.886   8.391   3.982 -0.1793 -0.2752 -0.3464
24503W        W40577   5.071   1.395  13.004  0.1220 -0.0030 -0.0074
24504W        W40578  12.119  17.824   1.927 -0.3293  0.3599  0.1738
24505W        W40579   3.251   6.383   0.597 -0.1250  0.1706  0.0392
24506W        W40580  12.977   7.724   4.148  0.0724 -0.0632  0.1316
24507W        W40581   5.110   8.937  12.183 -0.0282 -0.1563  0.0755
24508W        W40582   0.126   7.798   2.771 -0.0324 -0.1378 -0.2241
24509W        W40583  14.534   8.768  14.880  0.1814 -0.0886 -0.1109
24510W        W40584  10.191  12.242  14.856  0.2210  0.1249 -0.1083
24511W        W40585   0.826  10.823   1.970 -0.0258  0.1941  0.0303
24512W        W40586   0.374   0.417   2.512  0.0912  0.0223 -0.0257
24513W        W40587  17.609  14.967   4.750 -0.1116 -0.0316 -0.0295
24514W        W40588  18.560  17.030  15.843  0.3150 -0.1060  0.3065
24515W        W40589  14.888   0.866  14.138 -0.0976  0.1310 -0.1020
24516W        W40590  10.985   8.026   4.377  0.1561 -0.0319  0.1664
24517W        W40591   1.226  16.829   4.981  0.0089 -0.1823  0.1569
24518W        W40592  12.788   8.114  12.519  0.1280  0.0421 -0.0059
24519W        W40593  11.420   0.618  12.510 -0.1958  0.0571 -0.0379
24520W        W40594  16.765   4.460   0.897  0.1331 -0.1356  0.0372
24521W        W40595  10.757   4.592  14.269  0.1778 -0.1230  0.0856
24522W        W40596   1.714  15.621  14.523  0.0735  0.0007 -0.1670
24523W        W40597   5.626  17.847   1.170  0.0669 -0.0675  0.0785
24524W        W40598   1.707   4.243  11.999 -0.5663  0.2145  0.2980
24525W        W40599   6.052   5.804  13.681 -0.1640  0.1577  0.0370
24526W        W40600   8.202  13.130   0.111  0.2289  0.2773  0.2037
24527W        W40601  16.222  17.484   2.331  0.1764  0.3020 -0.1570
24528W        W40602   6.765   8.724  12.163  0.0206  0.2399  0.6340
24529W        W40603   9.551   7.429   3.086  0.1535 -0.1379 -0.1488
24530W        W40604  15.806   2.109  11.491  0.2397  0.3481 -0.4108
24531W        W40605  17.601  14.904  12.186  0.1232  0.1500  0.0337
24532W        W40606   7.345  17.217  10.609 -0.2321 -0.1141 -0.0101
24533W        W40607  18.036  14.222   5.927 -0.0647 -0.0379  0.2592
24534W        W40608   0.928   6.048   0.876  0.3465 -0.0255 -0.0130
24535W        W40609  13.014   0.204   4.495  0.0236  0.2750 -0.1052
24536W        W40610   6.692   5.357   2.593 -0.0298  0.0853 -0.0157
24537W        W40611   4.538   1.653   0.365  0.1286 -0.1354  0.1499
24538W        W40612  14.936  17.621   4.778 -0.3450  0.1701  0.0480
24539W        W40613  15.274  17.377  12.696  0.0066 -0.2729 -0.0673
24540W        W40614  16.852  11.692  15.247  0.0474 -0.0564  0.0469
24541W        W40615   2.154   5.512  12.419  0.1683 -0.0949  0.2799
24542W        W40616   9.940  15.575  13.202 -0.0483  0.1354 -0.0201
24543W        W40617   9.372  14.761   2.080  0.2684  0.0008 -0.2685
24544W        W40618   4.974   7.964  12.767  0.0667  0.0194  0.2289
24545W        W40619   6.545   7.458  15.256 -0.2015 -0.0701 -0.0102
24546W        W40620   3.348  16.507   3.027  0.0739 -0.1630 -0.0592
24547W        W40621   1.206  10.516   3.895 -0.0361  0.0374 -0.0694
24548W        W40622   1.602   8.536   5.369 -0.0137  0.1666 -0.5820
24549W        W40623  14.798   2.605   3.580 -0.0092  0.2907 -0.2604
24550W        W40624  15.233   5.542   5.230  0.3091 -0.2785  0.0059
24551W        W40625   3.319  10.217   4.150  0.1228  0.2736 -0.2440
24552W        W40626  12.279  13.974  11.041  0.0330  0.1905 -0.1123
24553W        W40627   1.210   2.918   3.471  0.1155 -0.1871 -0.1609
24554W        W40628  17.351   9.339   4.491 -0.0795  0.2232 -0.0258
24555W        W40629  14.767   5.281   5.324  0.0829  0.1925 -0.0117
24556W        W40630   6.705  16.683  14.698  0.1098  0.0204  0.0646
24557W        W40631  11.482   0.065   2.796  0.0601 -0.2427  0.2597
24558W        W40632   7.272  12.380   0.720 -0.3450  0.2630  0.2203
24559W        W40633  12.639  14.897  12.456 -0.1836  0.3351  0.1943
24560W        W40634  15.654   5.652  12.650 -0.1743  0.1099 -0.0776
24561W        W40635   2.771   2.151  15.072  0.0466 -0.0412 -0.0572
24562W        W40636   0.448   5.035   2.326 -0.1142  0.1921  0.0779
24563W        W40637  10.105  15.275   4.972 -0.2606  0.0274 -0.1461
24564W        W40638  13.332   0.662   1.762  0.0951  0.0235 -0.0905
24565W        W40639  17.640   1.781   3.258 -0.0554 -0.1147  0.0021
24566W        W40640  13.925   5.861  10.544  0.0992 -0.0399 -0.3424
24567W        W40641  15.708   1.048   5.618 -0.1406  0.0972 -0.3628
24568W        W40642   9.165  11.590  11.093 -0.1045 -0.2913 -0.1538
24569W        W40643  11.698   3.003  11.089  0.2191  0.3202  0.0610
24570W        W40644   3.025  10.572  12.847 -0.0077 -0.1901 -0.0589
24571W        W40645  14.612   1.266  13.851 -0.2720  0.0932  0.0156
24572W        W40646   2.926   7.467  15.807  0.1068 -0.1694  0.0022
24573W        W40647  16.606  10.962  13.392 -0.1759  0.3042  0.2635
24574W        W40648   3.858  10.401   3.050  0.1954 -0.1370  0.1274
24575W        W40649   3.539  11.758   1.346 -0.1127 -0.0648 -0.0034
24576W        W40650   3.501   1.183  13.827  0.0745  0.1859  0.1078
24577W        W40651   9.674   4.279  11.589  0.0575  0.2156 -0.0122
24578W        W40652   6.527  16.977  10.864  0.1590  0.1253 -0.2564
24579W        W40653   4.133  10.528  13.659  0.2867 -0.2118 -0.0324
24580W        W40654   4.951   3.697   3.389  0.0458  0.2769  0.1968
24581W        W40655   6.045   9.237  15.804  0.0692 -0.2234 -0.0218
24582W        W40656   5.793  13.505  15.691  0.4424 -0.1446 -0.0222
24583W        W40657   6.754   7.130   4.241 -0.2744 -0.1671  0.0639
24584W        W40658  14.837   6.659   3.204  0.2287  0.0744 -0.0770
24585W        W40659   1.237   0.957  12.381  0.2428  0.0241 -0.0697
24586W        W40660   0.742   9.019   2.476 -0.1367  0.2756  0.0247
24587W        W40661  14.938  16.168  15.978 -0.1048  0.1777 -0.2692
24588W        W40662  11.121  14.105   0.688 -0.1822 -0.1223 -0.1683
24589W        W40663   8.786   1.640   5.903 -0.0219 -0.0442  0.0967
24590W        W40664   3.666   2.735  11.466 -0.2592 -0.0736 -0.1171
24591W        W40665   1.575   8.309   0.325 -0.1106  0.0187 -0.2667
24592W        W40666   8.500  15.599   4.151  0.0369 -0.0488 -0.0405
24593W        W40667  16.163   3.287   1.623  0.5991 -0.1414 -0.0768
24594W        W40668  15.025  14.285  14.539  0.2065  0.1575 -0.0843
24595W        W40669   5.106   7.165   0.618  0.0263 -0.0095 -0.0298
24596W        W40670   4.595   8.961   1.924  0.1004 -0.1925  0.1492
24597W        W40671   8.262   8.903  11.803  0.0891 -0.0863  0.3085
24598W        W40672   7.489   7.080  15.100 -0.0766 -0.3947  0.2815
24599W        W40673   5.528   6.405   1.878  0.2390  0.0341  0.1215
24600W        W40674  12.533   6.987   0.103  0.1262 -0.1550 -0.0272
24601W        W40675  12.884  13.566  12.871 -0.0128  0.0462 -0.3025
24602W        W40676   9.125   2.940   2.191 -0.0483  0.1369 -0.0493
24603W        W40677   9.550  17.090   0.061 -0.1754 -0.0402  0.1573
24604W        W40678  13.028  13.440  15.302  0.1540  0.1204  0.2257
24605W        W40679   4.769  11.596  14.491  0.0297 -0.2588  0.2502
24606W        W40680  17.912  11.389   2.920 -0.2068  0.1076  0.0131
24607W        W40681  10.310   7.443   4.774  0.0443  0.0433  0.3120
24608W        W40682  10.571  13.013   4.011 -0.3334 -0.0409  0.0901
24609W        W40683   1.477   1.250   2.228 -0.1350 -0.2235 -0.2049
24610W        W40684   7.641  14.474   5.242 -0.1725 -0.0761 -0.1891
24611W        W40685  11.985  10.837   1.633 -0.4613  0.0017 -0.0202
24612W        W40686   9.540   2.131   5.418 -0.0038 -0.0043  0.0741
24613W        W40687  11.952  11.520   1.522  0.5041 -0.1905 -0.1727
24614W        W40688  10.311  10.402  12.081 -0.0779  0.0148  0.0162
24615W        W40689  13.977  10.042  13.538  0.1465 -0.1297  0.0667
24616W        W40690  15.771  17.964  12.551 -0.0420 -0.0474  0.3332
24617W        W40691  13.184   6.309  14.771  0.3226  0.0971  0.0899
24618W        W40692   0.318  12.232  13.619  0.0329  0.1023 -0.0398
24619W        W40693   3.743   2.380   2.929 -0.1640 -0.0883  0.2537
24620W        W40694   0.678   1.119   3.851 -0.1425  0.0481  0.0179
24621W        W40695  14.899   7.496  14.577 -0.1180  0.3146  0.0696
24622W        W40696  16.290   2.835   1.864 -0.0370 -0.2196 -0.1361
24623W        W40697  12.245  16.705  15.139 -0.2262 -0.1155  0.2273
24624W        W40698  13.475   8.349  10.750  0.1361 -0.1861  0.4111
24625W        W40699  17.410   5.219   1.992  0.3044 -0.0064  0.0541
24626W        W40700   9.855   1.389  11.929  0.1252  0.1306  0.1723
24627W        W40701  10.822  14.227  15.945 -0.3083  0.0074 -0.3067
24628W        W40702  12.399   0.443   0.892 -0.1177  0.4266  0.0556
24629W        W40703  15.410  17.684  11.736  0.0211  0.0942  0.2802
24630W        W40704  17.190   1.379   3.581 -0.2057  0.0706 -0.1977
24631W        W40705   7.523  14.275   0.775  0.0755  0.4015  0.0462
24632W        W40706   1.246  18.390  12.443  0.1411 -0.1529  0.0465
24633W        W40707   5.275  13.282  12.403 -0.0382 -0.3185 -0.0300
24634W        W40708   7.688  14.655   2.313  0.2699 -0.0711 -0.2002
24635W        W40709   6.152   9.488   0.495 -0.1307 -0.2733  0.1781
24636W        W40710   6.919   0.376  14.351 -0.1788 -0.2497  0.1805
24637W        W40711   3.161   6.127  15.737  0.2769  0.0601  0.0156
24638W        W40712  13.572  16.356  11.201  0.0258 -0.0853 -0.0235
24639W        W40713  14.830  10.331  13.426  0.1912  0.1968  0.0280
24640W        W40714  11.691   8.474   6.119  0.0024  0.1669 -0.0054
24641W        W40715  12.256   2.597   1.235 -0.1989  0.2324 -0.2207
24642W        W40716   8.183  10.685   3.616  0.0437 -0.1051  0.0645
24643W        W40717   2.702   8.622   4.940 -0.3013 -0.0693  0.2038
24644W        W40718   9.886  18.157  12.713 -0.0803 -0.2398 -0.2308
24645W        W40719  14.695  13.803   0.099  0.0729  0.1829  0.0645
24646W        W40720   1.421  10.486   0.298  0.0407 -0.0107 -0.0981
24647W        W40721  17.753  11.581   0.157 -0.0464  0.1749  0.1445
24648W        W40722   6.916  14.523  13.597  0.0804 -0.1638 -0.2308
24649W        W40723   1.589  10.014  14.462 -0.0204 -0.2735  0.1898
24650W        W40724  14.978   1.860  14.365  0.0888 -0.2776 -0.1253
24651W        W40725   9.559   8.441  11.178  0.0349  0.1681  0.1589
24652W        W40726  13.806   5.824  13.839  0.0839 -0.0546 -0.2884
24653W        W40727   7.231  14.771  11.741 -0.0953  0.0929  0.0246
24654W        W40728   0.755   6.006   3.276  0.3263 -0.0981 -0.2016
24655W        W40729  15.683  16.468   2.791 -0.5654 -0.0370 -0.1419
24656W        W40730   1.477  14.586   4.227  0.2260  0.0299 -0.1267
24657W        W40731  17.820  18.244  14.499  0.0450 -0.0639  0.0287
24658W        W40732   5.587   5.030   1.049 -0.1744 -0.0910  0.3912
24659W        W40733   6.206   7.870   2.890 -0.2882  0.2673  0.0511
24660W        W40734   1.815  16.760   3.876 -0.0036 -0.0056 -0.2041
24661W        W40735   6.143  14.155   1.202  0.2868  0.2681  0.0579
24662W        W40736  13.006  13.637   4.052 -0.1647 -0.1819 -0.0561
24663W        W40737   6.266  11.174   0.011  0.5232 -0.1054  0.0462
24664W        W40738  13.360  15.604  11.231  0.0661  0.0702  0.3379
24665W        W40739   2.891  16.363   1.326 -0.0870 -0.0731  0.1351
24666W        W40740   2.762   3.463  11.289  0.1215 -0.2216 -0.0303
24667W        W40741   3.948   3.168   0.525 -0.0174  0.0147 -0.1818
24668W        W40742  13.366   8.497  15.953  0.0746 -0.0634  0.0003
24669W        W40743  17.845  15.518   3.301 -0.3749  0.1185  0.1006
24670W        W40744   0.207  18.016  14.876  0.0522  0.1807 -0.1244
24671W        W40745   8.220   7.822  13.874 -0.3283 -0.1982 -0.0625
24672W        W40746   4.814  15.375  14.405  0.2015  0.3555 -0.0825
24673W        W40747  13.067   7.268  13.738  0.1959  0.2205  0.1472
24674W        W40748  14.589   4.322  11.594 -0.1441 -0.0997 -0.1504
24675W        W40749  18.484  12.134  13.932 -0.1712 -0.1980 -0.0001
24676W        W40750   3.419   3.219   1.631 -0.0800  0.0353 -0.0010
24677W        W40751  12.456   8.143   4.227 -0.1422  0.2171 -0.2728
24678W        W40752   4.343  15.009  13.897  0.2371  0.0589  0.0555
24679W        W40753   4.605  12.271  13.131 -0.0520 -0.0926 -0.2815
24680W        W40754  18.086  15.551   5.552 -0.1918 -0.3872  0.2271
24681W        W40755   1.634   8.842  14.555 -0.0700  0.2202  0.1716
24682W        W40756   1.424  13.576  15.594  0.2625 -0.2927 -0.0433
24683W        W40757   3.946   9.008  14.500  0.1094 -0.2213  0.0535
24684W        W40758   6.430  14.233   5.890 -0.3074  0.4227 -0.0544
24685W        W40759   7.569  13.366  11.930  0.0522  0.0476  0.3221
24686W        W40760  12.679   6.771  15.530 -0.0557 -0.2913 -0.1938
24687W        W40761  15.738   5.644  14.390  0.2703 -0.1027  0.3418
24688W        W40762   5.514   4.760   4.719 -0.2060 -0.3888 -0.0984
24689W        W40763   4.229  13.470   1.543 -0.0571 -0.1844 -0.3063
24690W        W40764   5.730   6.462  12.767  0.1931  0.1561  0.1239
24691W        W40765   7.611   9.176   2.744  0.1039  0.0864  0.0040
24692W        W40766  17.082   6.743   4.673  0.2880 -0.1848 -0.0816
24693W        W40767  18.384  14.359  14.841  0.2127  0.3042 -0.0844
24694W        W40768   6.568   9.067  14.576  0.0854  0.1081 -0.1633
24695W        W40769  12.789   4.737   4.196 -0.4844  0.2539 -0.2058
24696W        W40770   8.032  16.299   1.358  0.1159  0.3533 -0.1116
24697W        W40771   1.184  14.065   4.980  0.0768 -0.0552  0.0576
24698W        W40772   8.736   5.426   2.236 -0.1261  0.0513 -0.1640
24699W        W40773  15.591   4.221   1.955 -0.2330  0.0650  0.0682
24700W        W40774   4.210  13.889  13.819 -0.0327 -0.0866 -0.0009
24701W        W40775   0.342  13.122   1.328 -0.0504  0.2153  0.3512
24702W        W40776   2.998   9.671   3.339 -0.0804 -0.0705 -0.2206
24703W        W40777   7.373  11.984  15.548  0.3133  0.1688 -0.1241
24704W        W40778  11.919   8.133   0.377 -0.1051 -0.0713  0.0349
24705W        W40779   0.272  16.386  11.475 -0.0186 -0.2122  0.1007
24706W        W40780   5.990  16.753  14.082 -0.1788 -0.0381 -0.2044
24707W        W40781   9.261  13.934   0.216  0.1005 -0.0091 -0.0669
24708W        W40782  16.553  12.999  14.116 -0.4079 -0.0288  0.2577
24709W        W40783   0.917  13.000   5.396  0.1321 -0.2660 -0.0850
24710W        W40784  13.612  10.876  12.576 -0.3437  0.2048  0.0990
24711W        W40785  14.801   7.157  13.204  0.0441  0.0630 -0.1745
24712W        W40786  10.109   3.310  11.340 -0.2360 -0.2364 -0.2164
24713W        W40787  17.168  12.880   4.089 -0.2134 -0.1286  0.0290
24714W        W40788   6.380  10.179  15.682 -0.2314 -0.3027 -0.0940
24715W        W40789  15.979  11.049   5.580 -0.0313  0.0244 -0.1352
24716W        W40790  15.753  18.398  11.377  0.0508  0.1366 -0.0221
24717W        W40791  12.952   6.325   0.925  0.0273  0.1334  0.0229
24718W        W40792   6.033   5.123   0.179 -0.5016  0.2013  0.0601
24719W        W40793   3.319   6.331   4.155 -0.0837 -0.0344  0.0875
24720W        W40794  16.139   3.689   4.946  0.0300  0.2070  0.1091
24721W        W40795   9.449  14.972   2.736  0.0771 -0.1925  0.0024
24722W        W40796  15.535   1.054   0.753 -0.3778  0.0569 -0.2541
24723W        W40797   9.373   5.329   2.866 -0.0994 -0.1427 -0.5483
24724W        W40798  18.450   3.045   4.989 -0.2526  0.3777  0.1018
24725W        W40799   6.502  17.686  13.291  0.1415  0.0229  0.2881
24726W        W40800  15.690   8.877  12.606 -0.0619  0.1144  0.0487
24727W        W40801   2.247  17.045   4.145 -0.0788  0.1785  0.0776
24728W        W40802  14.474  17.400  11.745  0.1004 -0.0156  0.0610
24729W        W40803   9.522  16.888  11.799 -0.1775 -0.3673 -0.0908
24730W        W40804   5.883  18.346  11.122 -0.1945  0.0747 -0.0710
24731W        W40805  13.501  12.059   2.364  0.2680  0.0973  0.1017
24732W        W40806  12.862  10.490   4.907  0.0837  0.3215 -0.3715
24733W        W40807  14.361  15.764  13.952  0.3012  0.3472 -0.2551
24734W        W40808   1.488   5.208  15.246 -0.2054 -0.4544 -0.1324
24735W        W40809  18.283   7.701   4.887  0.1050  0.0748 -0.2566
24736W        W40810   1.962  16.512   3.383  0.0706 -0.0759 -0.2348
24737W        W40811  16.061  10.624  14.121 -0.0294 -0.2367 -0.1820
24738W        W40812   4.902  12.032  15.392 -0.0107 -0.0729 -0.3839
24739W        W40813   3.610   4.141  10.696 -0.1820 -0.1580  0.1636
24740W        W40814   4.060  11.491  13.243 -0.1283 -0.1653  0.2198
24741W        W40815  18.442   6.385   5.212  0.1587 -0.2164  0.0806
24742W        W40816  11.927  11.518   2.455  0.1014 -0.0721 -0.2553
24743W        W40817   8.047   2.746   2.057 -0.1725  0.2837 -0.0863
24744W        W40818  13.886  10.585   0.092 -0.3678 -0.5099 -0.2209
24745W        W40819  16.453   0.971   1.183 -0.0180 -0.3993 -0.2293
24746W        W40820  13.959   7.037   0.187 -0.2266 -0.0611  0.2049
24747W        W40821  12.915   4.840   0.701  0.1388  0.0651 -0.0457
24748W        W40822   5.611  11.807  12.036  0.3112 -0.3971  0.1379
24749W        W40823  13.225   2.333  13.897 -0.1172 -0.1091  0.0865
24750W        W40824  14.417  18.455   0.119 -0.2333  0.0336  0.1071
24751W        W40825   7.260   5.646  13.040  0.1414 -0.3558 -0.0802
24752W        W40826  13.194   5.951   4.309 -0.0358  0.2220  0.0075
24753W        W40827   8.866   2.937   4.753 -0.1402 -0.0254  0.0527
24754W        W40828   8.594  11.166  12.001 -0.1851  0.3790  0.0859
24755W        W40829   0.986  17.216   1.948  0.2717  0.2155  0.0201
24756W        W40830  15.679  18.475  14.625  0.1025  0.0229  0.0428
24757W        W40831   1.799  17.790  14.006 -0.1976  0.0478  0.0038
24758W        W40832  11.797   0.483   4.896 -0.0467  0.2661  0.0972
24759W        W40833  18.011  14.524   0.151  0.1140  0.0793  0.0512
24760W        W40834  16.905  18.069  12.159  0.3810  0.1743  0.0578
24761W        W40835   1.494   6.517  13.539 -0.2593  0.0300 -0.1449
24762W        W40836  14.985   9.386   3.856  0.0980  0.0736 -0.0171
24763W        W40837   6.374  11.667   1.772 -0.2133 -0.0367 -0.0157
24764W        W40838   5.717  14.227   2.558  0.1611  0.1542  0.2217
24765W        W40839   5.995   2.379   0.596 -0.0905  0.2092  0.0564
24766W        W40840  15.223   9.150   4.301  0.1438  0.0633 -0.1264
24767W        W40841   7.936  17.131   5.039 -0.1431  0.1031  0.3747
24768W        W40842  13.768  10.135   1.648 -0.2830  0.2057 -0.2458
24769W        W40843   8.795  16.558  15.342  0.1610  0.0242  0.0612
24770W        W40844  18.202  15.478   4.574 -0.1874 -0.3157  0.3626
24771W        W40845  18.467   3.757   2.869  0.6224 -0.2094 -0.1410
24772W        W40846  17.901  12.953  12.478  0.3240 -0.1149  0.1805
24773W        W40847   7.363   2.239   4.105 -0.0949  0.0588 -0.0899
24774W        W40848   4.792   0.697  13.888  0.4018 -0.0439 -0.0596
24775W        W40849   5.077   6.347   4.010  0.4330  0.0487  0.3602
24776W        W40850   8.546  15.050  14.695  0.0236 -0.0375 -0.0212
24777W        W40851  16.331   9.414   0.569 -0.5205 -0.1337 -0.2370
24778W        W40852   3.883  14.268   2.781 -0.1363 -0.1565 -0.1877
24779W        W40853  16.289  17.728   0.001 -0.4044 -0.3320 -0.0683
24780W        W40854   9.684  11.330   2.988  0.1822 -0.2434 -0.0943
24781W        W40855   7.491  10.099  12.983 -0.1460  0.1043 -0.2827
24782W        W40856   3.191  16.191   4.022  0.1358 -0.3722 -0.1949
24783W        W40857  16.206  11.498   1.444 -0.3138  0.1646 -0.0695
24784W        W40858   7.681  17.538  10.772  0.1900 -0.1426 -0.1474
24785W        W40859   1.482  16.702   2.470 -0.1908 -0.0717  0.0867
24786W        W40860  14.362  10.307  13.742 -0.0653  0.1046 -0.1741
24787W        W40861  18.105  17.064   1.010  0.1364 -0.0042  0.0124
24788W        W40862  13.500  10.626  14.206 -0.0156  0.1777 -0.2976
24789W        W40863   6.733  15.792   3.657  0.1075  0.0267  0.0840
24790W        W40864  17.603  15.245   1.260  0.1853 -0.0560  0.1760
24791W        W40865  11.803   2.950  10.609 -0.0081  0.0317 -0.1024
24792W        W40866   5.475   0.593   2.002  0.1076 -0.0417  0.1355
24793W        W40867  14.554   2.842   2.381  0.1330  0.0796 -0.0531
24794W        W40868   9.213  15.486  12.430 -0.0221 -0.2791 -0.0169
24795W        W40869   6.084   7.563   1.715 -0.2140 -0.3077 -0.4218
24796W        W40870   1.751  16.254  15.362  0.1124  0.0702 -0.2578
24797W        W40871   2.737   4.150   2.983  0.3397  0.0316 -0.1790
24798W        W40872   5.376   5.920   4.180  0.0532  0.3620 -0.0056
24799W        W40873  12.533   4.016   0.956  0.2773 -0.0893 -0.2823
24800W        W40874   5.096  13.666   3.987  0.1409 -0.0980  0.2277
24801W        W40875   1.983   4.388  15.597 -0.0718 -0.0832  0.0889
24802W        W40876  16.668   6.295  11.732  0.0920 -0.0983  0.0036
24803W        W40877  13.532   6.411  11.736  0.2568  0.0565  0.2684
24804W        W40878  17.409   9.363  15.387 -0.0841  0.3963  0.0554
24805W        W40879  13.725   3.162   0.575  0.0525 -0.0313  0.0269
24806W        W40880   6.358  12.784   3.988  0.1039  0.0001  0.1302
24807W        W40881  18.237  17.136  11.395 -0.1581  0.0846 -0.1862
24808W        W40882  14.521   8.747   0.578  0.0035  0.2456  0.1094
24809W        W40883  15.495   8.441  12.706  0.0937  0.1247  0.0204
24810W        W40884   6.336   3.993  11.825 -0.1721 -0.2414  0.2474
24811W        W40885  13.204  18.230   4.044  0.0311 -0.0063 -0.1108
24812W        W40886  17.254   6.058  10.991  0.0339  0.1023 -0.2238
24813W        W40887   7.971  15.465  11.560  0.0107 -0.2237 -0.2371
24814W        W40888   1.398  10.247   4.666 -0.3137 -0.2339 -0.0626
24815W        W40889   4.079   1.319  14.014 -0.1328  0.1343 -0.0188
24816W        W40890   9.202   1.434  12.089 -0.4145  0.2176  0.0399
24817W        W40891  18.418  11.433  13.273  0.2426  0.2339 -0.1674
24818W        W40892   8.597   2.273  14.468 -0.1205 -0.0695  0.0032
24819W        W40893   2.242  11.361  13.843  0.0173  0.0898  0.0075
24820W        W40894   2.748  15.610  12.440  0.0745 -0.2265 -0.5471
24821W        W40895   4.258   2.864  15.115  0.0976  0.0293 -0.2369
24822W        W40896   2.833   7.733  13.737  0.1985 -0.0391 -0.0102
24823W        W40897  12.100   0.583  14.960 -0.1022  0.0819  0.2858
24824W        W40898  11.459   6.244  14.252  0.0948  0.1350 -0.4340
24825W        W40899  14.377  12.219  15.252  0.2414  0.1548  0.0341
24826W        W40900   0.421  15.571  13.720 -0.1554  0.1323  0.0043
24827W        W40901  14.123  14.798  12.463 -0.1442 -0.0855  0.1000
24828W        W40902   2.190  12.034   3.465  0.1999  0.0571  0.2737
24829W        W40903   3.006   2.625   0.529  0.0891  0.0322  0.0397
24830W        W40904  16.066   5.015   5.289 -0.0865  0.0922 -0.1833
24831W        W40905  11.643   7.406   2.278 -0.3259 -0.3031 -0.0506
24832W        W40906   8.336  14.881   2.790  0.2697 -0.2750 -0.0068
24833W        W40907   5.332   7.835   5.331  0.2463 -0.0393  0.5124
24834W        W40908   6.623   5.193  12.754 -0.2585 -0.2417  0.0487
24835W        W40909  14.053   9.877  14.748 -0.1013 -0.2681 -0.1246
24836W        W40910   6.864  11.794   0.004  0.0428  0.2543 -0.1685
24837W        W40911   9.532   8.868  15.432 -0.0459  0.0863 -0.2385
24838W        W40912  10.472  12.411  13.946 -0.2458  0.0997  0.1068
24839W        W40913   2.905   1.317   0.890 -0.0995 -0.1198  0.0618
24840W        W40914  14.139  11.881  13.636  0.3112  0.1361  0.3501
24841W        W40915  16.100   7.765  12.910 -0.1975  0.0611  0.1988
24842W        W40916   2.882  14.908  14.834  0.0323  0.3591  0.1173
24843W        W40917  11.516   4.069   3.984  0.0555 -0.1009  0.0429
24844W        W40918  10.511  15.082  11.625 -0.4164 -0.1944  0.3081
24845W        W40919  15.702  10.446   2.639  0.2407  0.1650 -0.0113
24846W        W40920   2.869  15.761   3.748  0.0398 -0.0066 -0.2308
24847W        W40921   7.004  11.722  11.775 -0.2595  0.0787 -0.1366
24848W        W40922   6.947  11.434   4.079  0.1046 -0.1317  0.0040
24849W        W40923  12.305   6.193  12.777  0.3046  0.1350  0.0061
24850W        W40924  14.641  10.872  13.337  0.3838 -0.2800 -0.2080
24851W        W40925   9.059   7.611  11.561  0.1933  0.0013 -0.4011
24852W        W40926   1.468   4.414  12.446 -0.2799 -0.0068  0.0595
24853W        W40927  12.779  13.104  11.449  0.5358  0.2867  0.0391
24854W        W40928  14.327   8.737   3.451  0.0059  0.1189 -0.0390
24855W        W40929   4.824  13.375  14.514 -0.0075 -0.2257 -0.0775
24856W        W40930  14.413  18.021  15.929 -0.1003 -0.0141  0.1226
24857W        W40931  12.536   1.857  10.875  0.0365  0.1536 -0.1061
24858W        W40932  12.242   6.096   5.853  0.2181 -0.0376 -0.2446
24859W        W40933  14.015   9.283   2.685  0.0087  0.2505 -0.0176
24860W        W40934   5.590   0.597   1.531  0.0751  0.1273  0.1604
24861W        W40935   9.204   6.951   1.017 -0.0249 -0.1493 -0.1631
24862W        W40936   1.328   1.493  16.014  0.2368 -0.0311 -0.0436
24863W        W40937   1.953  13.888  12.397  0.0192 -0.0616  0.0659
24864W        W40938   2.791  10.547   2.677 -0.0878  0.0894 -0.1801
24865W        W40939   2.816  12.835  14.153 -0.3132  0.1567  0.3007
24866W        W40940   7.900  10.992   1.545  0.1635  0.0518 -0.3261
24867W        W40941  18.412  16.087  14.061  0.0052  0.1588 -0.1901
24868W        W40942  13.668  13.098  12.581  0.0201 -0.0670  0.0101
24869W        W40943  11.392   0.518   5.384  0.1579  0.0109 -0.2442
24870W        W40944   6.559   1.308   0.872 -0.1356  0.1647  0.2062
24871W        W40945  12.042  17.105  14.955  0.0199  0.1837  0.1562
24872W        W40946  15.033   5.193   1.787  0.0245 -0.1206  0.0196
24873W        W40947   8.626  14.679  12.264 -0.2030  0.1451 -0.2180
24874W        W40948   8.017   8.164  12.606 -0.1224  0.3550  0.0024
24875W        W40949  14.906   0.506  13.243  0.2494  0.1943 -0.1587
24876W        W40950  10.003  17.547  15.048 -0.1057 -0.0105  0.3759
24877W        W40951  16.682  12.404  13.758 -0.4427  0.4801 -0.2191
24878W        W40952   7.916  14.055   5.607 -0.1582 -0.2869  0.2853
24879W        W40953  18.182   4.948   3.778 -0.2940  0.0635 -0.4671
24880W        W40954   6.219   8.306  15.024  0.4681 -0.2184  0.2197
24881W        W40955  11.049  16.263  12.531  0.1154  0.2703 -0.1597
24882W        W40956  11.914  13.000  14.959  0.0804  0.0352  0.0039
24883W        W40957   9.501  18.081   1.905  0.2948  0.1043 -0.0060
24884W        W40958   7.868  17.424  13.758 -0.1026  0.1473  0.1095
24885W        W40959   3.712   7.608   5.301  0.1914 -0.0907  0.1158
24886W        W40960   3.374   5.124  14.408 -0.2855 -0.2034 -0.0611
24887W        W40961  13.459   5.572   1.422 -0.0498  0.1052 -0.2788
24888W        W40962  13.080  15.705  13.666  0.0635  0.3427  0.0645
24889W        W40963  15.275   5.123  13.777 -0.1599 -0.1622  0.1078
24890W        W40964  15.789  16.659  14.186 -0.0876 -0.3755 -0.0535
24891W        W40965   5.311  16.773  11.836  0.4304  0.1683  0.3571
24892W        W40966  11.222   0.062  12.611  0.0300 -0.0088 -0.1814
24893W        W40967  14.930   0.766  12.843  0.3314 -0.3793  0.0805
24894W        W40968   4.456  11.769  12.367  0.0004 -0.1188  0.0453
24895W        W40969   0.691  12.145  15.936 -0.0514  0.0201  0.0813
24896W        W40970   9.331   8.809   2.897  0.2493  0.1262  0.0180
24897W        W40971   9.756   9.119  13.987 -0.0877  0.2513 -0.0676
24898W        W40972   0.560  12.167   0.539  0.0488  0.0444 -0.0005
24899W        W40973  16.971   4.357   0.424  0.1965 -0.1556 -0.3089
24900W        W40974  12.141   5.518  13.342  0.0792  0.1207 -0.4973
24901W        W40975   6.169   4.803   3.062  0.4876 -0.0849  0.0020
24902W        W40976  15.718  18.257   3.261  0.1816  0.1755 -0.0539
24903W        W40977   9.166   7.902   1.877  0.0439  0.1286  0.2982
24904W        W40978   8.203  14.277   3.742  0.2486  0.1971  0.1709
24905W        W40979  15.274   3.265   2.105  0.1049 -0.0215 -0.2088
24906W        W40980  16.714  12.068  14.482  0.1757  0.3125  0.0043
24907W        W40981  11.500  15.178   4.872 -0.1443 -0.2335 -0.1677
24908W        W40982  11.094  18.546   5.470 -0.0164  0.3025  0.4283
24909W        W40983   6.869  11.981  15.357 -0.1831 -0.3372 -0.0829
24910W        W40984   1.093  14.121  14.039 -0.1323  0.3096 -0.0489
24911W        W40985   4.617  11.131   4.152  0.3040 -0.0244  0.4379
24912W        W40986   4.348   2.133   2.060  0.3422  0.4735  0.2812
24913W        W40987   8.367  12.782  13.390 -0.2104  0.0439  0.1021
24914W        W40988   5.794   8.195   2.936 -0.1423 -0.0549  0.1569
24915W        W40989   5.073  15.022   0.580  0.1406 -0.0204  0.0955
24916W        W40990   7.595  14.929   4.962 -0.1272  0.0349 -0.0588
24917W        W40991   7.404   0.259  12.382 -0.1478  0.0791 -0.1594
24918W        W40992  14.289   9.399  12.403  0.4045 -0.1949  0.2230
24919W        W40993  11.365   1.774  12.285  0.0858 -0.3290 -0.1496
24920W        W40994  10.428   7.265   0.316 -0.0607  0.2871  0.2233
24921W        W40995   2.635  14.495  14.639  0.2259 -0.0290  0.3470
24922W        W40996   5.403  15.649   4.902 -0.0016  0.0088 -0.0518
24923W        W40997  10.870   8.917  12.511 -0.1743 -0.1162 -0.1849
24924W        W40998  12.583   1.689   4.819  0.0458  0.1874 -0.0420
24925W        W40999   5.284  15.804  13.507 -0.3603  0.3575  0.0855
24926W        W41000   7.844  13.067   2.894 -0.0735 -0.0645  0.0441
24927W        W41001  13.191  15.630   0.216 -0.1013 -0.5465  0.0087
24928W        W41002  12.083   1.104   3.746  0.1721 -0.3201  0.1031
24929W        W41003   0.618  17.341  12.735  0.0182 -0.1715  0.2933
24930W        W41004   0.690  13.169  14.925  0.0198 -0.1270 -0.0537
24931W        W41005  11.217  12.384  12.485 -0.2984  0.0495  0.0307
24932W        W41006   2.750  18.369   0.133  0.0542 -0.1083  0.1413
24933W        W41007   4.893  10.799   5.856 -0.3876 -0.2226 -0.1426
24934W        W41008  16.979   8.401   3.901 -0.0748 -0.2445 -0.1763
24935W        W41009  17.291   8.247   1.192  0.2180  0.1525 -0.2700
24936W        W41010  16.179  16.183   5.482  0.1900 -0.0726 -0.0008
24937W        W41011  12.612  12.097  12.938 -0.0724  0.0368  0.0359
24938W        W41012  12.987   1.888  11.666 -0.0780 -0.0442  0.2054
24939W        W41013   6.730  15.649  14.306 -0.1242 -0.0497  0.0645
24940W        W41014  11.139  14.060  13.035  0.2584 -0.0244  0.0962
24941W        W41015  13.282  11.614  12.068  0.0139 -0.2117  0.0940
24942W        W41016   8.114  18.305   1.430  0.0475  0.1100 -0.0899
24943W        W41017   9.914   2.541  14.438 -0.0720 -0.0562  0.1248
24944W        W41018   0.009   7.812  16.018  0.0217  0.1781  0.1546
24945W        W41019   3.336  15.526  15.203  0.3348  0.1781 -0.2714
24946W        W41020  11.225   1.726   2.338  0.1308  0.1885 -0.1396
24947W        W41021   0.277   6.286  12.711 -0.1362  0.2335  0.3936
24948W        W41022  14.660   6.673   5.165  0.0497 -0.0347 -0.1511
24949W        W41023   5.007  13.028  15.377  0.1637 -0.0461 -0.1412
24950W        W41024   1.483  13.140   0.749  0.3921  0.0830 -0.0293
24951W        W41025  14.617   4.249   0.842 -0.0744  0.1195  0.0318
24952W        W41026  10.430   5.111   5.077  0.0613 -0.3227  0.0523
24953W        W41027   8.297   1.060   2.755 -0.3542  0.1148 -0.0744
24954W        W41028   1.559   4.774   0.372 -0.1464  0.1667 -0.2600
24955W        W41029   9.193  16.822   2.152 -0.4457  0.0522 -0.0121
24956W        W41030   2.877   8.012   2.542 -0.1954  0.1469 -0.1774
24957W        W41031   2.293  13.310   0.537  0.4073 -0.0657 -0.0665
24958W        W41032  12.280  17.276  12.118  0.0584  0.4202 -0.1396
24959W        W41033   7.713  15.156   2.068  0.1557  0.1070  0.0630
24960W        W41034  16.197  16.948  13.498  0.0721 -0.1393  0.0916
24961W        W41035   6.680   6.533   0.393 -0.1777 -0.1542 -0.1987
24962W        W41036   4.591  13.162   5.360 -0.0581 -0.4482 -0.1661
24963W        W41037   5.256   1.415   2.555  0.1606  0.1685  0.5581
24964W        W41038  12.379   4.391   6.252 -0.1841  0.0415  0.1486
24965W        W41039   0.892  17.735  13.124  0.0396  0.0307  0.1974
24966W        W41040   2.960  15.549   2.166 -0.3611 -0.3641 -0.0216
24967W        W41041   8.150  15.276  15.496 -0.0270  0.3095 -0.0173
24968W        W41042   9.102  14.480  15.248  0.1433  0.0045 -0.4015
24969W        W41043  14.692  10.285   0.702 -0.3656 -0.1420  0.0747
24970W        W41044   9.334   5.134  11.306 -0.2241 -0.2118  0.0194
24971W        W41045  18.491   1.082   3.998 -0.1333 -0.1208  0.1172
24972W        W41046   7.203  11.631   4.850  0.2235  0.0582 -0.1546
24973W        W41047  11.392  18.063   5.289 -0.3197 -0.0173  0.2719
24974W        W41048   2.008   8.222  13.900  0.0427  0.0421  0.0459
24975W        W41049   0.349   7.663  13.224  0.1640 -0.0100  0.1730
24976W        W41050  17.804  17.960  11.902  0.1343 -0.0043  0.1228
24977W        W41051  12.389  10.452  12.467  0.3088 -0.0778  0.2864
24978W        W41052  18.386   2.368  10.794 -0.0238 -0.1631  0.0606
24979W        W41053  14.322   3.097  11.100 -0.0387 -0.0105  0.1394
24980W        W41054  10.677  12.457  13.418  0.1496 -0.0626 -0.0556
24981W        W41055   9.229   1.201   3.178  0.3068  0.2627  0.1949
24982W        W41056  14.141   4.857  14.947  0.0821 -0.3181  0.0006
24983W        W41057  16.362   8.802   6.009  0.2743 -0.0050 -0.0854
24984W        W41058   2.324  11.377   3.645 -0.2063 -0.1820 -0.1297
24985W        W41059  10.431   8.704   3.961 -0.1238 -0.0468 -0.0904
24986W        W41060  13.112   2.990   1.741  0.0770  0.2594  0.1674
24987W        W41061   6.977   7.015   3.762  0.2265  0.0522 -0.0900
24988W        W41062   0.026   6.940   3.053 -0.2194 -0.0407  0.2484
24989W        W41063  10.942  12.241   3.885  0.2136 -0.1200  0.1354
24990W        W41064  15.298  12.555   3.083  0.2222  0.2152 -0.2702
24991W        W41065  13.770   9.032   5.314 -0.1649  0.2023  0.0926
24992W        W41066  14.418  15.110   1.387  0.0116 -0.1303 -0.1392
24993W        W41067   5.089  16.343  11.984  0.0479 -0.2159  0.4268
24994W        W41068   0.923  15.527   6.228  0.6989 -0.2438  0.1996
24995W        W41069  14.692  15.675  14.650  0.0548 -0.3243 -0.2451
24996W        W41070  16.016   3.251   3.295 -0.0718 -0.2868 -0.0389
24997W        W41071   6.972   3.551   1.852  0.0262  0.2012  0.2330
24998W        W41072   2.370  13.344   3.056  0.2853 -0.1284 -0.1262
24999W        W41073  13.018  13.583  14.154  0.2824 -0.1448 -0.3269
25000W        W41074   1.159   9.630  11.098  0.3337  0.1376  0.2429
25001W        W41075   7.176   6.099  14.606 -0.3331 -0.0569  0.2280
25002W        W41076   3.817   8.129   1.027  0.0775  0.1222 -0.1698
25003W        W41077   6.552   0.995  13.720  0.1806 -0.0072  0.2997
25004W        W41078  14.695   3.424   3.075  0.0816 -0.0711  0.0580
25005W        W41079   8.345   5.620   2.009 -0.1736 -0.0321 -0.0609
25006W        W41080   7.806   8.813   0.460  0.1498 -0.2076  0.2123
25007W        W41081  15.118  13.414   0.782 -0.1076  0.2139  0.2014
25008W        W41082  15.743  14.663   0.604 -0.2589 -0.3405  0.1197
25009W        W41083   6.514  17.422  11.048  0.2245  0.0985 -0.1002
25010W        W41084  15.282   0.105  11.405  0.0838  0.0319  0.0471
25011W        W41085   2.428   1.307   1.064  0.1649  0.1353 -0.3820
25012W        W41086   7.606   1.717   1.890 -0.0997 -0.1319  0.2587
25013W        W41087   4.692  13.233  15.071 -0.0169  0.0722  0.1093
25014W        W41088  11.527  15.348   3.432 -0.1025  0.0793 -0.0335
25015W        W41089  16.770   1.372  12.132 -0.1327  0.1808  0.3198
25016W        W41090  16.435   9.145  12.096  0.2749  0.1074  0.0011
25017W        W41091  14.144   8.138  13.346  0.4011 -0.1176 -0.1113
25018W        W41092   8.569   3.677  14.660 -0.0370 -0.5604 -0.1752
25019W        W41093   1.862  13.039  12.809  0.0893 -0.2123  0.1584
25020W        W41094   9.679  17.855   2.371 -0.0094  0.4126 -0.0813
25021W        W41095  12.583  12.876   3.166  0.2210 -0.0850  0.1158
25022W        W41096   1.101   9.058  15.744 -0.0207 -0.2043 -0.0582
25023W        W41097   6.203  11.834   2.578  0.2292  0.1227  0.1307
25024W        W41098   8.561   7.110   1.913  0.0171  0.0008 -0.1434
25025W        W41099  18.307  16.875  12.897  0.1201 -0.2443 -0.1026
25026W        W41100   4.651  17.210   3.872 -0.1939  0.0829  0.3469
25027W        W41101   1.369   1.320  13.302 -0.0395 -0.2702 -0.1178
25028W        W41102   7.324   5.376   0.828  0.0611 -0.0349  0.1085
25029W        W41103  16.059  11.475  14.777 -0.1458 -0.0023 -0.2694
25030W        W41104  11.314  17.650   1.848 -0.0641 -0.0533  0.1401
25031W        W41105  18.300  10.100   0.924  0.0418 -0.1136  0.0844
25032W        W41106   9.315   9.851  12.711  0.1287 -0.1053 -0.1960
25033W        W41107   8.539  11.915  11.614  0.2614  0.3553 -0.0200
25034W        W41108   2.675   6.119  15.423  0.2802 -0.0220  0.0350
25035W        W41109  18.510  14.386   0.246 -0.0724  0.5752 -0.1644
25036W        W41110  13.925  11.555  13.913  0.0441  0.3827 -0.3382
25037W        W41111   9.659   9.796  13.543 -0.2412  0.1067 -0.3304
25038W        W41112  15.675  10.965   5.254  0.2715  0.0756  0.1594
25039W        W41113   3.140  13.080   0.242 -0.3694  0.0735  0.3411
25040W        W41114   2.693   3.239  12.548  0.4215 -0.0445  0.3372
25041W        W41115   4.555  11.567   0.895 -0.0832 -0.1279  0.3189
25042W        W41116   5.224  13.152   4.812  0.0144 -0.3344 -0.2007
25043W        W41117   5.326   6.332  14.032  0.2961 -0.0374 -0.1902
25044W        W41118  12.522   3.061   4.674  0.1972  0.0442  0.1743
25045W        W41119   1.579   8.615   2.320  0.1911 -0.2457 -0.0298
25046W        W41120  14.057  13.584   0.278 -0.2263 -0.1525 -0.2024
25047W        W41121   0.230  15.511   4.816 -0.0124  0.0585 -0.0851
25048W        W41122   1.879  11.128  11.234 -0.0705 -0.0177 -0.1196
25049W        W41123   8.769  10.549   6.075  0.1430 -0.1171 -0.3491
25050W        W41124  17.181  15.957  14.093 -0.3088  0.1139  0.0724
25051W        W41125  13.641   2.229   5.486  0.0090 -0.4486  0.2346
25052W        W41126  18.056   9.081  11.911 -0.1033 -0.2908  0.0223
25053W        W41127  16.657  16.135   4.691 -0.1236  0.1066 -0.4156
25054W        W41128   3.346   3.100  14.845 -0.2252 -0.1783  0.1319
25055W        W41129   6.288   8.693  11.974  0.1015  0.1216  0.0392
25056W        W41130  14.514  17.836   1.133 -0.1398  0.1122 -0.1235
25057W        W41131   0.971  18.364   3.928 -0.0442 -0.0713  0.2834
25058W        W41132  14.038   1.539   0.759 -0.1522  0.1875  0.1328
25059W        W41133   7.354   8.594  11.804  0.2410  0.0353 -0.1248
25060W        W41134   9.313  10.523  14.913 -0.2861 -0.0063  0.1235
25061W        W41135   3.865   2.522   1.907 -0.0912 -0.1632  0.0085
25062W        W41136   0.848   2.585   5.388  0.1502  0.1916 -0.2729
25063W        W41137   9.730  12.405  15.335 -0.2559 -0.3894 -0.0420
25064W        W41138  12.522   5.057   2.262 -0.2479 -0.1954  0.2950
25065W        W41139  15.266  10.832   3.871  0.5427  0.1145 -0.0142
25066W        W41140  14.102   2.166   0.186 -0.0018 -0.0252 -0.0592
25067W        W41141   4.400  10.663   4.046  0.1244  0.2115 -0.1417
25068W        W41142   8.347  11.299  13.299 -0.1415  0.0704  0.0893
25069W        W41143  11.475   6.479   6.189  0.1994  0.2674 -0.0382
25070W        W41144   8.874   4.324  14.091  0.3284  0.1896  0.1609
25071W        W41145   2.145   4.076  10.769  0.0576  0.3177  0.0459
25072W        W41146   4.700  10.113  15.454 -0.0766 -0.0254  0.1313
25073W        W41147   5.172   1.639  10.955 -0.1240 -0.4241  0.0048
25074W        W41148  13.886  10.149   3.524  0.2681 -0.3523 -0.1969
25075W        W41149   6.495  16.416   4.514 -0.4055 -0.0495 -0.2406
25076W        W41150  11.784  11.162   0.757  0.0309  0.0710 -0.0550
25077W        W41151  18.255   9.161   2.839  0.0878 -0.4669 -0.3101
25078W        W41152   9.652   3.412   5.223 -0.1961 -0.0510 -0.2560
25079W        W41153  18.167   5.108  14.111  0.2981  0.2323 -0.0426
25080W        W41154   2.821   8.462  14.368  0.3935  0.3563 -0.2921
25081W        W41155   9.797  13.240  12.545  0.0612  0.1563  0.4242
25082W        W41156  18.472   7.848  13.905  0.5551  0.0572  0.2469
25083W        W41157  17.288  13.801   1.697  0.0999 -0.2618  0.0635
25084W        W41158  12.635   3.889   4.553  0.2262 -0.0958  0.0068
25085W        W41159   7.611  10.153   5.463  0.1107  0.0702  0.2268
25086W        W41160  17.137  13.614  12.787  0.0466  0.1238  0.0822
25087W        W41161   2.401   2.937   0.116 -0.1221  0.0929  0.3370
25088W        W41162  17.045   1.571   1.626 -0.0440 -0.4154  0.0770
25089W        W41163   1.794  14.043  15.636 -0.0262  0.0798 -0.0985
25090W        W41164   1.773   6.085  13.778  0.2184 -0.3563 -0.1355
25091W        W41165   3.015   0.535  12.631  0.0429  0.0264  0.4095
25092W        W41166  16.431   3.465   2.583 -0.0897  0.1798  0.3299
25093W        W41167   2.520   4.496  15.353 -0.0354  0.0260  0.1898
25094W        W41168  12.890   4.661   4.711  0.3306 -0.3441  0.0397
25095W        W41169  16.812  15.800  11.787 -0.2355 -0.0605 -0.2595
25096W        W41170   2.649  15.272  12.907 -0.1204 -0.0463 -0.1176
25097W        W41171   9.408   9.316   2.778  0.2753  0.2798  0.2728
25098W        W41172  12.053  10.582  15.584 -0.1392  0.2612  0.2594
25099W        W41173   8.808   2.528  13.193  0.1464  0.1101  0.2629
25100W        W41174   8.299  18.174   1.881 -0.0985 -0.1437  0.0708
25101W        W41175  17.271   4.794  10.841 -0.2290  0.1238  0.1452
25102W        W41176   9.840   5.179   4.432 -0.2025  0.1300  0.1957
25103W        W41177  12.729  15.665   4.118  0.1784  0.1161  0.0605
25104W        W41178  12.828  17.072   3.428 -0.1243 -0.2307 -0.1887
25105W        W41179  11.354  13.329   3.592 -0.1939  0.1403 -0.0465
25106W        W41180   3.920  14.606   2.256  0.2985  0.2558 -0.2106
25107W        W41181   4.461  15.349   4.005 -0.0653 -0.1436  0.2755
25108W        W41182  11.159  14.073   0.228  0.0834 -0.0717  0.3517
25109W        W41183  15.942   7.048   2.686 -0.1316 -0.2179 -0.1705
25110W        W41184  15.793  17.877  11.491 -0.1810  0.2963 -0.1216
25111W        W41185  17.502   8.709   2.016  0.2631  0.0766  0.0943
25112W        W41186  18.195  14.777   2.402  0.0489 -0.2491  0.1756
25113W        W41187  14.372   2.590  10.809 -0.1322 -0.1188  0.1375
25114W        W41188   3.072  13.734   4.196  0.1977 -0.3426 -0.3624
25115W        W41189  18.313   6.765  14.043  0.0211  0.0390  0.1252
25116W        W41190  15.306  14.708  10.459 -0.2273 -0.0309  0.0065
25117W        W41191  12.139  11.294   1.104 -0.1252 -0.0152 -0.3337
25118W        W41192   8.210   8.277   5.343  0.1519 -0.2243 -0.1113
25119W        W41193  13.587   7.147   2.957  0.0288 -0.0282 -0.2558
25120W        W41194   0.041   8.809  13.959 -0.1146  0.2848  0.0032
25121W        W41195   6.819   7.264   6.422  0.2096 -0.1098 -0.0801
25122W        W41196   9.620   6.180  10.955  0.0899 -0.1667  0.2530
25123W        W41197   2.858   6.013   5.141 -0.2298  0.0970  0.0538
25124W        W41198  11.659   8.949   2.157 -0.1708 -0.0125  0.1033
25125W        W41199   7.348  10.323   1.976  0.0356 -0.2268  0.0794
25126W        W41200   9.497   2.273  12.098 -0.0168 -0.2869  0.1902
25127W        W41201   3.756   6.920  13.520  0.5016 -0.1446  0.0449
25128W        W41202  17.535  10.571   4.236  0.3277 -0.0448  0.0706
25129W        W41203   4.474   6.401  14.902  0.0147  0.0206 -0.0607
25130W        W41204  18.491  17.870  14.248 -0.3331 -0.2263  0.0033
25131W        W41205   8.126   3.155   4.628 -0.0396  0.0700 -0.4246
25132W        W41206   6.200   8.260   2.061  0.0657  0.5571 -0.1708
25133W        W41207  15.972   1.376  13.162 -0.1088 -0.3843 -0.0071
25134W        W41208  11.248   4.555   3.745 -0.0644 -0.0627 -0.0945
25135W        W41209  11.363  10.485  12.866 -0.1333 -0.0887 -0.1669
25136W        W41210  10.984   1.849   3.913 -0.0098 -0.1278 -0.0088
25137W        W41211   8.639   0.142  15.841  0.2346  0.0021  0.2561
25138W        W41212   1.547  14.719   2.275 -0.1525 -0.0304 -0.1656
25139W        W41213   9.520  15.483   4.290  0.0531 -0.0529  0.0315
25140W        W41214   4.299  14.114  14.927  0.1931 -0.1359 -0.1571
25141W        W41215   4.037   6.037  11.753 -0.0515  0.0341  0.2341
25142W        W41216   5.002  17.385   4.220 -0.1076  0.1245 -0.0087
25143W        W41217  16.480   8.025  14.816 -0.1072  0.0491  0.0020
25144W        W41218   9.733  17.764  12.006 -0.0976 -0.1151  0.1231
25145W        W41219   1.805   6.978   0.246  0.0163 -0.2974  0.3712
25146W        W41220   9.306  12.292   2.053  0.0213 -0.1683  0.1551
25147W        W41221   6.484  12.645  13.528  0.0278  0.0087 -0.0856
25148W        W41222   5.015   7.754   3.870 -0.1556  0.3253  0.4054
25149W        W41223  17.192  11.509  11.510 -0.4024 -0.2637 -0.1114
25150W        W41224   1.638  15.389   1.014  0.0083 -0.3796  0.0176
25151W        W41225   0.610  10.711  13.106 -0.0042  0.0214  0.1137
25152W        W41226   9.032  16.242  15.700 -0.0352  0.1417 -0.0344
25153W        W41227   9.639   4.115   0.459 -0.1036  0.3236 -0.1357
25154W        W41228   4.783  15.459   0.733  0.1449 -0.1710 -0.1770
25155W        W41229  17.499  16.124   4.082  0.0482 -0.1562 -0.2374
25156W        W41230   8.019  10.035   0.509  0.1247 -0.3303 -0.0693
25157W        W41231  14.110  16.611   4.326 -0.1479  0.1674  0.2123
25158W        W41232  17.052   6.339   2.981  0.1655 -0.1119 -0.0344
25159W        W41233   3.300   4.419  12.935  0.3403 -0.0242 -0.0096
25160W        W41234  15.686  17.585  13.967  0.0578 -0.0225 -0.1663
25161W        W41235  13.826   7.086   0.807  0.2541  0.0865  0.2418
25162W        W41236  12.716   0.761   4.456  0.0556 -0.1114  0.0689
25163W        W41237   6.552   3.691   0.200  0.1074 -0.0336  0.0233
25164W        W41238  13.220   0.096   9.672 -0.4593 -0.2083 -0.0827
25165W        W41239   7.787   4.248   4.349  0.1236 -0.0999 -0.1050
25166W        W41240   6.217  15.636  13.708  0.0414 -0.4310 -0.3575
25167W        W41241   0.102   8.448   3.431  0.0114  0.0885 -0.1443
25168W        W41242  15.637  16.449   1.075 -0.2869 -0.0515 -0.0912
25169W        W41243   8.512  13.498  14.286 -0.0103 -0.0509  0.0834
25170W        W41244   9.096   7.674   4.093  0.0151  0.1462 -0.0837
25171W        W41245  10.839   7.379  13.907 -0.5213 -0.1179  0.1604
25172W        W41246   8.681   4.350   3.671  0.2045  0.1224 -0.2782
25173W        W41247   2.196   2.425  12.677  0.0247  0.1881  0.0478
25174W        W41248   1.742   5.146  14.180 -0.0307 -0.3703 -0.1635
25175W        W41249   5.909  14.243   5.913  0.2511 -0.0362  0.0329
25176W        W41250   4.764   8.395   2.940  0.0635  0.0764 -0.0092
25177W        W41251  12.417  11.238   4.533  0.0891  0.3841 -0.3795
25178W        W41252   7.632  18.522   2.739  0.2246  0.0654 -0.0178
25179W        W41253   8.283  13.827   5.390 -0.0375  0.1022 -0.2422
25180W        W41254  13.930  17.656  10.063 -0.2389 -0.1365  0.3378
25181W        W41255  11.243  13.862  13.504 -0.0287  0.1080  0.0299
25182W        W41256  16.092  12.769  12.101  0.0212 -0.0982  0.0978
25183W        W41257   6.001   1.391  13.110  0.2135 -0.1172  0.1168
25184W        W41258   2.778  11.572   1.306 -0.2296  0.0915 -0.1877
25185W        W41259   2.088   3.084   5.159 -0.2174 -0.2479  0.0677
25186W        W41260   4.662   2.652  15.314 -0.3016  0.1294  0.0721
25187W        W41261   4.083  11.588   6.001 -0.2414 -0.1024  0.0954
25188W        W41262   6.649   5.430  15.516  0.3507 -0.0635 -0.0008
25189W        W41263  12.143   1.816   4.925  0.0467  0.1173 -0.1939
25190W        W41264  17.534  14.765  12.677  0.3847 -0.2857 -0.2096
25191W        W41265  17.401  16.860   4.355 -0.0244 -0.0515  0.1192
25192W        W41266  10.048   0.173  12.249  0.0687 -0.1363  0.3108
25193W        W41267  16.958  12.868   3.566 -0.0437  0.0173 -0.3826
25194W        W41268   2.260   7.147  15.084  0.1322 -0.1221  0.0026
25195W        W41269  10.159   4.083   0.307  0.1426  0.1654 -0.2992
25196W        W41270  13.755  15.930  12.153 -0.0855  0.0300 -0.1791
25197W        W41271   2.685  12.095  14.801  0.1870  0.2193  0.0288
25198W        W41272  10.784  17.527   5.819 -0.1070  0.1340  0.3659
25199W        W41273   5.367   6.777   2.741 -0.0080 -0.2876 -0.3170
25200W        W41274  10.238   2.794   3.439 -0.0140  0.0790 -0.0773
25201W        W41275   4.967  15.839  15.046  0.0273  0.4136  0.2320
25202W        W41276  15.245  13.571   5.877 -0.1124  0.0442  0.0585
25203W        W41277   8.208   1.811  14.578 -0.0043 -0.1576  0.0754
25204W        W41278  15.410   1.118  12.862  0.1715 -0.2215  0.0716
25205W        W41279   9.845   3.487   1.041 -0.1560  0.0458  0.1628
25206W        W41280  16.732   3.726   3.852  0.0779  0.2330  0.0131
25207W        W41281  11.558   3.588   1.311  0.4431 -0.0109 -0.1780
25208W        W41282  11.587   6.811  13.027  0.1027 -0.0981  0.1303
25209W        W41283  13.869  12.843  15.007  0.0121 -0.0048  0.0501
25210W        W41284  14.997   6.033   3.449 -0.0648 -0.1666 -0.2396
25211W        W41285  12.391  14.119   0.829 -0.1396 -0.0699  0.0824
25212W        W41286   2.391  17.320   3.704  0.0355 -0.0567 -0.3692
25213W        W41287   0.224  16.423  14.096  0.1343 -0.3387  0.1215
25214W        W41288  16.469   1.188  12.929  0.0590 -0.0483 -0.2984
25215W        W41289   6.480  10.668   4.371  0.0133 -0.1514  0.1439
25216W        W41290  17.254   0.082   5.429  0.0606  0.0844 -0.0020
25217W        W41291  13.723  11.273  12.901 -0.1102  0.1308 -0.0755
25218W        W41292  12.804   4.272   1.699 -0.0502 -0.1596 -0.2440
25219W        W41293  17.466   4.498  14.046 -0.0959 -0.1253  0.2952
25220W        W41294   8.872  13.192  14.706  0.0118  0.1231  0.0243
25221W        W41295  10.193  12.421   2.445 -0.0700 -0.2308  0.1560
25222W        W41296  10.745  16.249   0.996 -0.2242 -0.2156  0.2080
25223W        W41297  11.690   8.143   3.155 -0.1339 -0.3117  0.1216
25224W        W41298   3.077   5.845  15.192 -0.0996  0.0170 -0.1975
25225W        W41299  17.820  18.322   1.897 -0.0063 -0.3085  0.2951
25226W        W41300   4.634  14.468  13.705  0.0079  0.0655  0.1478
25227W        W41301   8.124   3.254   0.369  0.3537  0.3260 -0.1218
25228W        W41302  12.074  17.104   3.567 -0.0855  0.2037  0.1998
25229W        W41303  17.347   2.542  14.958 -0.0549  0.0432  0.2834
25230W        W41304   4.838  15.859   1.059  0.0756  0.1450  0.2227
25231W        W41305  17.425  17.453   3.186  0.0486  0.0441 -0.0802
25232W        W41306  16.193  15.555  11.320 -0.3074  0.4045  0.1115
25233W        W41307   2.708   1.400   0.050 -0.0192 -0.1188 -0.2473
25234W        W41308   0.966  11.535  12.038 -0.2190  0.3186 -0.1376
25235W        W41309   5.676  16.996   1.109 -0.1092  0.1373 -0.1998
25236W        W41310  11.483   6.065   4.946  0.1644 -0.1247  0.4944
25237W        W41311  11.196  18.310   4.269 -0.1251  0.2068  0.0050
25238W        W41312   6.174   6.533   0.152 -0.2669  0.0817  0.0243
25239W        W41313  13.224  10.677   5.652  0.0340 -0.0625  0.1468
25240W        W41314   9.252  15.655   3.266  0.0301  0.1106 -0.0927
25241W        W41315  17.964  15.932  14.587  0.0326  0.1577  0.1197
25242W        W41316   3.390  14.983  12.230  0.1047  0.0566 -0.2103
25243W        W41317  15.762   1.416   4.677 -0.1401  0.0408  0.0492
25244W        W41318   2.309  16.923   3.342  0.0100  0.0054  0.1206
25245W        W41319   0.385   8.437  12.842  0.0493  0.1104  0.0551
25246W        W41320  14.558  16.553   3.741 -0.1672  0.0042  0.1432
25247W        W41321  15.686   7.494  15.684  0.0554  0.1064  0.1228
25248W        W41322  17.681  13.169   2.487 -0.1361 -0.1731  0.0107
25249W        W41323   7.888   8.570  11.762 -0.3219  0.1262  0.1349
25250W        W41324  16.774  17.394   0.050 -0.3913  0.0321  0.0236
25251W        W41325  13.575   4.728   1.481 -0.0758 -0.0169  0.0988
25252W        W41326  10.920  11.257   3.754  0.1589  0.1915 -0.1477
25253W        W41327   8.122  14.938   0.456  0.1398 -0.0534  0.0457
25254W        W41328   0.363  16.930  10.274 -0.0058  0.0948 -0.2549
25255W        W41329  11.281   0.847   3.342  0.1113  0.0462  0.0111
25256W        W41330   4.540   1.102   5.142 -0.3596 -0.0192 -0.0604
25257W        W41331   4.199  16.065  12.800 -0.0410  0.1208  0.2354
25258W        W41332   2.897   2.039   4.015 -0.2064 -0.0931  0.0374
25259W        W41333   6.387   2.658  15.093 -0.1839 -0.1832  0.2658
25260W        W41334  17.158   8.905  14.329 -0.2724  0.1520  0.1165
25261W        W41335  17.097   5.697  12.908  0.1033 -0.0570 -0.1173
25262W        W41336  12.493  18.409   4.616  0.1237  0.5593 -0.0600
25263W        W41337  12.333   4.074   2.881 -0.2371 -0.0594  0.2181
25264W        W41338  12.043  15.618   1.213 -0.0510 -0.0814 -0.0065
25265W        W41339   7.991  17.793   5.339 -0.0149  0.0650 -0.0330
25266W        W41340  15.154   6.267   3.966  0.0918 -0.1136  0.0337
25267W        W41341  15.748  12.443   0.086  0.5775 -0.1397 -0.1251
25268W        W41342  16.255   4.772   3.733 -0.0492  0.0410 -0.0023
25269W        W41343   6.363  11.990  11.391 -0.0284 -0.2052 -0.0896
25270W        W41344   1.071   4.431   2.610  0.4042  0.0029  0.0839
25271W        W41345  16.294  17.140  11.401 -0.0515  0.2469  0.1353
25272W        W41346   0.679   7.405  15.746 -0.1594 -0.1638 -0.3952
25273W        W41347  16.175  11.950   6.042  0.2357 -0.2734  0.0392
25274W        W41348  18.568  12.792   0.194 -0.1020 -0.1747 -0.0080
25275W        W41349   2.811   7.690   2.174  0.1823  0.0405 -0.2493
25276W        W41350   2.717  12.076  13.087  0.3066 -0.0585  0.1303
25277W        W41351   5.249  16.580   4.396  0.1151  0.0571 -0.1649
25278W        W41352   3.239  11.986   2.521  0.4202  0.1959  0.2228
25279W        W41353  17.777  14.856   4.254  0.1800 -0.2738  0.1449
25280W        W41354   3.930  11.043  12.022 -0.2351  0.1519 -0.3314
25281W        W41355  12.010   7.242  11.805  0.3625  0.0737 -0.0174
25282W        W41356   4.409  17.993  10.359 -0.0810 -0.0643  0.3498
25283W        W41357   1.141   3.266  13.098  0.1598  0.1061  0.0777
25284W        W41358   7.636  17.292  12.423 -0.1164 -0.3246 -0.1369
25285W        W41359   3.283   8.127   0.923 -0.2505  0.1720  0.0035
25286W        W41360   6.442   8.993   4.931  0.1370  0.2684 -0.1635
25287W        W41361   3.077  17.777  11.349  0.0697 -0.0823 -0.1536
25288W        W41362  17.647  12.181   1.537  0.0730  0.1873  0.2331
25289W        W41363  10.109   2.284   0.327  0.1649  0.1860  0.2189
25290W        W41364  16.607   3.593   1.488  0.1413  0.1407  0.0942
25291W        W41365   0.523   7.427  11.701 -0.4044  0.2831  0.2257
25292W        W41366  13.431   4.078  12.133  0.0959  0.2375  0.0410
25293W        W41367  14.075   0.689  14.712 -0.2563 -0.2459  0.0359
25294W        W41368  13.914   1.853   1.227 -0.0178 -0.2420  0.0478
25295W        W41369   3.747   3.262   6.181 -0.0386 -0.2149  0.1179
25296W        W41370  10.507  18.246  11.193 -0.0579 -0.2457 -0.0824
25297W        W41371  11.086   2.754  13.406 -0.6443 -0.0100 -0.2137
25298W        W41372   9.362   8.608  13.326 -0.0346 -0.0589  0.0026
25299W        W41373   7.279  11.077   4.883  0.0670  0.1753 -0.1769
25300W        W41374   6.398   6.188   5.467 -0.0629 -0.4949  0.2235
25301W        W41375   1.400  14.223  15.449 -0.3027  0.0579 -0.1416
25302W        W41376  12.881   0.479  15.498 -0.0881 -0.0809 -0.0810
25303W        W41377  16.907   5.075   0.451  0.3916  0.3259 -0.0226
25304W        W41378  11.930   9.554  14.540  0.2147  0.0264  0.0950
25305W        W41379   5.573  15.600  15.061  0.2706 -0.1128 -0.1496
25306W        W41380  14.800   5.158  11.797  0.0493  0.2940 -0.1084
25307W        W41381  12.748   8.637  12.974  0.0527 -0.0281  0.1083
25308W        W41382  13.885   9.684  12.510 -0.0857 -0.0032 -0.3252
25309W        W41383   3.905   0.366  13.484 -0.0871 -0.0856 -0.0036
25310W        W41384   4.126   9.126  12.021 -0.4269  0.1801  0.0463
25311W        W41385   2.429   5.551  13.251  0.0363  0.0749  0.1579
25312W        W41386   2.627   2.440   0.223 -0.0113  0.0868 -0.0768
25313W        W41387   7.856   6.873  13.728  0.3554  0.3022 -0.1351
25314W        W41388  17.750  13.110  11.283 -0.0923 -0.0449  0.1157
25315W        W41389   9.652   0.799   4.316  0.1419 -0.1398 -0.2937
25316W        W41390   9.417  10.590  11.741  0.0901  0.4648 -0.0598
25317W        W41391   3.972   7.376  14.606  0.3924  0.3266  0.2931
25318W        W41392  11.373  17.448   2.292 -0.1617 -0.0013  0.2131
25319W        W41393   2.615   3.010  13.034 -0.0688  0.2712  0.3665
25320W        W41394   7.158  12.746   1.197  0.0211 -0.1184  0.3220
25321W        W41395   0.021  15.761   5.803 -0.1929  0.0611 -0.0391
25322W        W41396  13.653   1.951   4.120  0.1078 -0.1881  0.0120
25323W        W41397   9.568  14.963  15.982  0.2231 -0.1428 -0.0428
25324W        W41398   5.797   5.612   0.088  0.0908 -0.1952 -0.2116
25325W        W41399  14.876   7.839  15.428 -0.1585 -0.0318  0.3001
25326W        W41400  18.239   5.763   3.221 -0.1360  0.0633 -0.0972
25327W        W41401  18.282  15.242   2.284 -0.3486 -0.2676 -0.1744
25328W        W41402   7.958  12.669  12.057 -0.0596 -0.1572  0.0806
25329W        W41403  11.787   2.711  15.566 -0.3460  0.1631  0.0035
25330W        W41404  11.225   1.166   4.605 -0.0096 -0.0134  0.0330
25331W        W41405  13.679   0.465   3.584  0.0872  0.2257 -0.4098
25332W        W41406   6.998  17.946  14.200  0.0906 -0.0103  0.2026
25333W        W41407  12.261   9.709  11.512 -0.1237  0.2904 -0.0191
25334W        W41408  11.006   8.023   3.397  0.2103 -0.0568  0.1514
25335W        W41409  11.791  17.806  15.649 -0.0807 -0.0866 -0.4030
25336W        W41410   7.390   2.388  11.856  0.1919 -0.0159  0.3237
25337W        W41411  12.454  12.772  14.586 -0.2498 -0.0023 -0.0339
25338W        W41412   4.923   6.145  13.729  0.3083  0.3404 -0.5152
25339W        W41413  16.635   4.374  14.790 -0.1305  0.0462  0.0955
25340W        W41414   4.357   1.780  14.141 -0.3257  0.0072  0.0046
25341W        W41415  14.697   4.911   1.519 -0.1067 -0.1406 -0.1047
25342W        W41416   2.274   5.487  15.120 -0.0899  0.1963 -0.0064
25343W        W41417  16.133  18.330  14.178  0.3189 -0.0471 -0.1783
25344W        W41418   4.121   6.589   2.715  0.1647 -0.0525 -0.1979
25345W        W41419  11.953  12.109   3.707 -0.1160  0.0726 -0.0869
25346W        W41420   3.054   1.956  11.072  0.0498  0.1607 -0.0753
25347W        W41421   4.204   9.093   1.125  0.2936  0.1595  0.1695
25348W        W41422  16.590  15.410   5.952  0.3093 -0.0040 -0.1705
25349W        W41423   8.116   3.091  11.830 -0.2507  0.0510 -0.0713
25350W        W41424   2.699  11.855   0.128 -0.0137  0.1262 -0.0617
25351W        W41425  11.434  12.771   1.778 -0.0738 -0.0063  0.0126
25352W        W41426   5.238  10.099  11.830  0.0332  0.0654 -0.1280
25353W        W41427  12.756   1.209  11.029  0.1935 -0.3009  0.0052
25354W        W41428   9.494  14.963   3.299  0.0912  0.0583  0.0540
25355W        W41429  14.341  11.188   0.579 -0.1364 -0.0277  0.1514
25356W        W41430   5.153  10.976   1.393 -0.0399  0.1673  0.0380
25357W        W41431   0.262  13.976   5.276  0.2098  0.0787  0.1904
25358W        W41432   0.982  16.161   4.706  0.3684 -0.0238 -0.2178
25359W        W41433  10.922   4.775   4.353 -0.1534  0.3663 -0.2492
25360W        W41434  16.732  13.444  14.258 -0.2026 -0.3476  0.0914
25361W        W41435  16.789   1.045   9.854 -0.0184 -0.2749  0.1994
25362W        W41436   1.996   8.142   2.220  0.1718 -0.0608 -0.1245
25363W        W41437   3.144  11.777  14.748 -0.0153  0.0368  0.0511
25364W        W41438   1.831   7.846   3.610 -0.3382  0.1380  0.1707
25365W        W41439  17.380  10.765  12.709  0.3875 -0.1782 -0.0633
25366W        W41440   1.372   9.373   2.732  0.3344 -0.2465  0.4385
25367W        W41441  14.559   5.422   1.572 -0.1775  0.0982 -0.0212
25368W        W41442   3.902   4.503  14.462  0.0257  0.0604 -0.2884
25369W        W41443   9.441  17.424   3.988  0.3252  0.0187 -0.1207
25370W        W41444  15.821  13.745   4.085  0.1228 -0.2229 -0.2024
25371W        W41445  10.969   3.022  11.363 -0.1878  0.0478  0.1971
25372W        W41446   7.535  15.896   4.830 -0.2897 -0.0932 -0.1104
25373W        W41447   4.295  14.431   2.516 -0.0417  0.2237  0.0488
25374W        W41448  18.464   7.742  11.578 -0.0506  0.1999 -0.0877
25375W        W41449   2.487   7.330   5.461 -0.1202 -0.2222  0.0710
25376W        W41450  18.212   4.354  11.173  0.1737 -0.2327  0.0380
25377W        W41451   9.247   3.668   5.386  0.0419 -0.4016 -0.0303
25378W        W41452   8.764   2.575   0.624 -0.1121 -0.1869 -0.3018
25379W        W41453   7.393   7.060   4.246  0.3000 -0.0191  0.0965
25380W        W41454   7.034  14.574   2.731  0.3089 -0.0128  0.0926
25381W        W41455   2.803   2.517   3.258 -0.2449  0.0484 -0.2251
25382W        W41456  15.630  10.022   4.073 -0.1959  0.0386 -0.0681
25383W        W41457   6.128  12.861  12.039 -0.0242  0.2071  0.2191
25384W        W41458   1.983  14.617   3.525 -0.2896 -0.2360  0.1921
25385W        W41459  11.296  15.931  15.702 -0.1078 -0.0207  0.1425
25386W        W41460   3.984   7.730  14.281 -0.1453 -0.0684  0.0057
25387W        W41461  13.088  18.527   1.238  0.2753 -0.6039 -0.2366
25388W        W41462   6.353  18.146   1.466  0.1697 -0.0537 -0.0877
25389W        W41463  11.918  14.370  14.322  0.0582  0.2009  0.3344
25390W        W41464   8.614   3.839  13.426 -0.2211  0.2341  0.0851
25391W        W41465   8.519  14.169   2.388  0.1419  0.0716 -0.3121
25392W        W41466   8.003   1.647  15.083 -0.0921  0.1574 -0.0253
25393W        W41467   9.452  16.730   6.041  0.1892  0.0322  0.1118
25394W        W41468   1.397   0.444  14.457  0.1207 -0.0052 -0.1233
25395W        W41469  13.009  14.673   3.743  0.0322  0.1095  0.0342
25396W        W41470  15.461   8.248  12.240 -0.1979  0.1934  0.3035
25397W        W41471   8.646   9.089   4.728  0.0146  0.0730  0.0551
25398W        W41472  16.969   8.022  14.026 -0.0038 -0.0877 -0.0280
25399W        W41473  18.382   8.925   4.151 -0.0682  0.2051 -0.1104
25400W        W41474  17.980  17.427  13.883 -0.1444 -0.3234  0.1600
25401W        W41475   9.362   2.525   2.593  0.1788  0.0172 -0.0152
25402W        W41476   3.082  17.963   0.884 -0.2501 -0.1602 -0.2592
25403W        W41477   7.607  12.672  12.412  0.1018  0.0360  0.1941
25404W        W41478  16.552   8.793  13.700  0.0331 -0.1126 -0.0364
25405W        W41479   6.044   3.823   1.832 -0.5939 -0.1055 -0.0765
25406W        W41480  16.390  13.160  13.601  0.0670  0.0866  0.0260
25407W        W41481   8.405   2.538  11.642 -0.1731  0.0913 -0.0308
25408W        W41482   8.504   5.213  12.930 -0.2738  0.0300  0.1874
25409W        W41483   7.036   5.876  15.317 -0.3271 -0.2803  0.3388
25410W        W41484   1.683  12.377   4.731  0.0315 -0.0589  0.1104
25411W        W41485  16.734   0.671   4.415  0.0531  0.2371  0.1849
25412W        W41486   0.815  14.678  13.087  0.0778 -0.0384 -0.3041
25413W        W41487   8.202   6.323   1.119  0.0518 -0.0547 -0.3631
25414W        W41488   9.591  16.026  14.791 -0.0021 -0.0460 -0.0121
25415W        W41489  17.310   7.385  12.183 -0.0723  0.0773 -0.0530
25416W        W41490   3.958  14.775  12.407 -0.0652  0.3920  0.0456
25417W        W41491   9.727   9.578   0.173  0.0684  0.0560 -0.0081
25418W        W41492   4.084   9.694   3.836  0.0216 -0.0974 -0.2301
25419W        W41493  12.151  12.714   0.040  0.0643  0.1699  0.1648
25420W        W41494   2.929   2.830   5.358 -0.0255  0.2657 -0.0534
25421W        W41495  10.710   9.093  13.214 -0.1347 -0.0246  0.0483
25422W        W41496  17.066  13.917  14.952  0.2151  0.1982  0.1072
25423W        W41497   1.472   5.649   0.224 -0.2698 -0.0079 -0.2388
25424W        W41498   7.724   8.817   2.350 -0.2145  0.0383 -0.0954
25425W        W41499   1.037  16.576  11.070  0.1128  0.1801 -0.0713
25426W        W41500   1.904  15.121  14.785  0.0895 -0.2198  0.0436
25427W        W41501   0.775   8.500  15.126  0.0676 -0.1020  0.2041
25428W        W41502  18.218  12.919   3.856  0.1428 -0.2733  0.0742
25429W        W41503  14.848  11.951   2.392  0.1042 -0.2479 -0.1582
25430W        W41504  12.727  10.565   5.894  0.0277 -0.1050  0.2445
25431W        W41505   2.687   9.390   2.145  0.1516  0.2205  0.1185
25432W        W41506  11.813   4.711  13.358 -0.0324  0.5368  0.1798
25433W        W41507   6.573  10.718   3.405 -0.0866  0.0167 -0.0444
25434W        W41508  13.358  12.319  14.011  0.1413 -0.2791  0.1060
25435W        W41509  17.868  16.244   2.678  0.1707  0.0379 -0.0630
25436W        W41510   1.178   2.741   1.118  0.0815  0.1240 -0.2712
25437W        W41511   3.025  15.669  14.263 -0.3577 -0.0884  0.0591
25438W        W41512   6.650  12.100  11.906 -0.4376 -0.0626  0.0774
25439W        W41513  11.088  13.664   0.404 -0.0914  0.3421 -0.0202
25440W        W41514  14.013  10.048   2.072 -0.2591 -0.0432 -0.0885
25441W        W41515   4.529   8.500   2.152  0.0591  0.1583  0.0093
25442W        W41516   8.563  10.206   0.622  0.1639  0.0589 -0.2659
25443W        W41517   5.498   6.568  12.331  0.2321 -0.4255  0.1856
25444W        W41518   5.832  16.253  13.811 -0.0033  0.0438 -0.1405
25445W        W41519   0.515   1.121   2.428  0.0160  0.0705  0.1908
25446W        W41520   4.208  10.823   2.445 -0.0262 -0.1658  0.2310
25447W        W41521   1.686  10.983  15.458  0.0904  0.0048 -0.3608
25448W        W41522   1.436   8.915   2.914 -0.0222 -0.0808 -0.2454
25449W        W41523   4.553   6.346   2.205  0.0966 -0.1455  0.1738
25450W        W41524   4.945   6.009   1.098 -0.2296  0.0803 -0.1201
25451W        W41525  14.329   1.885   3.011  0.1381 -0.0481  0.2040
25452W        W41526   0.088   1.349   0.542  0.1541 -0.0812 -0.2948
25453W        W41527   7.590   9.594  13.824  0.0013  0.3824  0.1627
25454W        W41528   8.594  11.462  12.408  0.1518 -0.2710 -0.0360
25455W        W41529   7.330   5.367   4.402  0.0294  0.1624 -0.3194
25456W        W41530   2.767  14.108  15.350  0.1011  0.2826 -0.1626
25457W        W41531   7.403   8.581   1.965  0.2192  0.0681  0.0702
25458W        W41532  17.237   0.148  13.164  0.2193  0.0062 -0.1644
25459W        W41533  11.676  18.104  10.484 -0.2314  0.0055 -0.1096
25460W        W41534   2.173   1.664   3.532 -0.2437  0.0157  0.1852
25461W        W41535  11.433   5.875   4.224 -0.3727  0.0657 -0.2238
25462W        W41536   3.047   1.397   3.708 -0.1624  0.0370  0.0280
25463W        W41537   1.523   4.095  14.168 -0.3495 -0.2672  0.0180
25464W        W41538   7.626   7.791   4.551  0.1123 -0.0623 -0.1058
25465W        W41539   3.471   5.452   6.027 -0.0213  0.1415  0.0940
25466W        W41540  18.545  16.445   3.561 -0.2695  0.1884  0.0750
25467W        W41541   8.321  14.418  11.508 -0.1947 -0.0677  0.0298
25468W        W41542   1.957   0.474  15.101 -0.2393  0.1713 -0.0518
25469W        W41543   8.753  10.592  13.363  0.1321  0.0945  0.0668
25470W        W41544   0.116   5.626   4.536 -0.1793 -0.1623 -0.1562
25471W        W41545   0.816  18.036  14.040  0.0076  0.1537 -0.1476
25472W        W41546   2.550   3.943  13.121  0.1134 -0.2117 -0.2210
25473W        W41547  15.928   9.900  11.809 -0.1845  0.0527 -0.0491
25474W        W41548   7.291   8.841   0.442 -0.2266 -0.0614  0.1077
25475W        W41549  17.238   4.453   4.076 -0.2454  0.0108  0.1506
25476W        W41550  11.553  11.079   5.504  0.3754 -0.2364 -0.0250
25477W        W41551   2.398  13.571  11.742  0.2025  0.1979  0.0851
25478W        W41552   5.567   8.635  15.163 -0.0498 -0.0689  0.1606
25479W        W41553  11.177  18.209  12.985  0.3110 -0.0294 -0.1670
25480W        W41554  12.867  16.266  10.761  0.2255 -0.1083  0.3909
25481W        W41555   5.943   2.624  14.315 -0.3111 -0.2777  0.4722
25482W        W41556  14.333   2.257   1.841 -0.2741  0.3397  0.2086
25483W        W41557  15.526   4.109  15.997  0.4478 -0.0025  0.1948
25484W        W41558  17.894  17.898  11.437  0.0034 -0.3505  0.3211
25485W        W41559   4.151  11.741  11.734 -0.1211  0.1269  0.2405
25486W        W41560  17.331  18.158   0.621  0.2980  0.3566  0.4280
25487W        W41561  10.481   6.400   5.287  0.0723  0.0649 -0.2427
25488W        W41562   7.889  10.504  12.956 -0.0756  0.1679  0.0129
25489W        W41563   4.393  10.268   5.173  0.1131  0.0402  0.0453
25490W        W41564   4.027   7.484  12.347 -0.2882 -0.1698  0.0876
25491W        W41565   7.914   9.356   6.141 -0.0269 -0.0378 -0.0516
25492W        W41566  17.325   6.734  12.818 -0.1017  0.2258 -0.3817
25493W        W41567  14.336   0.539  13.379 -0.0542 -0.0403 -0.0131
25494W        W41568   7.020   8.651   5.255 -0.1612 -0.0418 -0.3024
25495W        W41569  14.079  15.233  12.805 -0.1831  0.0564  0.3869
25496W        W41570  14.165  14.716   1.573  0.0632  0.4153 -0.2741
25497W        W41571  13.629  16.383  13.963 -0.1435 -0.2003  0.1217
25498W        W41572  15.621   5.049  13.207  0.3372 -0.0070 -0.3456
25499W        W41573   7.536  14.500  15.348  0.2174 -0.0015 -0.0317
25500W        W41574  14.897   4.612   0.535  0.0726 -0.1267 -0.2042
25501W        W41575  15.711   5.752   0.012  0.4544  0.0694 -0.3915
25502W        W41576   7.229  15.782   3.151 -0.1576 -0.0842  0.5270
25503W        W41577  11.724   1.450   4.048 -0.0811 -0.1413 -0.0325
25504W        W41578   3.217   8.219  12.174 -0.4269 -0.0802  0.2758
25505W        W41579  11.773   1.543  12.157 -0.1109 -0.0798  0.2680
25506W        W41580   8.826   5.044   0.154  0.1146  0.0018  0.0253
25507W        W41581  12.357  10.009   3.793  0.2847 -0.0760  0.5386
25508W        W41582  10.378  12.463   1.631 -0.0216 -0.2491 -0.0718
25509W        W41583   0.265  13.666   1.392 -0.2110 -0.1911  0.4380
25510W        W41584   4.176   2.918  15.622 -0.2440 -0.0164  0.0547
25511W        W41585  14.505  12.986   0.942  0.0550  0.0935  0.2226
25512W        W41586  16.435   8.783  12.997 -0.1157  0.3152 -0.0384
25513W        W41587   3.316   7.768  13.388 -0.0260  0.1336  0.0422
25514W        W41588  17.261   3.014   2.825 -0.0947  0.2288  0.1626
25515W        W41589  17.944   2.456   4.330  0.2307 -0.0816  0.1188
25516W        W41590   1.464   4.584  11.707 -0.2618 -0.0591 -0.0670
25517W        W41591  10.248  16.281  13.670  0.2278  0.2374  0.0845
25518W        W41592  10.604   2.130  14.276 -0.1715 -0.1678 -0.1682
25519W        W41593   1.245  14.405  11.463  0.0663  0.1808 -0.0773
25520W        W41594  18.440   0.573   1.532  0.0299 -0.0486  0.0835
25521W        W41595   2.931  17.337  15.485 -0.0187  0.0265 -0.1040
25522W        W41596   4.886   4.563  15.433 -0.0294 -0.3074 -0.1041
25523W        W41597   9.335  10.405   1.558  0.0541 -0.2417  0.2406
25524W        W41598   5.782   6.127   2.249 -0.1308 -0.3111  0.2055
25525W        W41599  13.823   0.553   1.398  0.2820 -0.2318 -0.2442
25526W        W41600   6.221   5.525   1.678  0.1771  0.1414  0.2839
25527W        W41601  13.097  10.783  10.880  0.0163  0.2301 -0.3909
25528W        W41602  11.605  18.331   1.886  0.0188 -0.1341  0.2207
25529W        W41603   0.913  12.461  12.066 -0.0074  0.1227  0.1023
25530W        W41604   0.180   5.042   4.933 -0.2615  0.1127  0.1283
25531W        W41605  13.494  17.094   1.242 -0.0864  0.1832  0.1042
25532W        W41606   0.822  15.568   5.374  0.1739 -0.0408  0.3244
25533W        W41607  13.918  11.454   4.875  0.0733  0.2324 -0.3896
25534W        W41608  18.193  14.889  10.188  0.1666  0.1083  0.1959
25535W        W41609   2.373  12.055   4.816 -0.1696 -0.2914  0.1598
25536W        W41610  10.646  16.883   3.796 -0.0556  0.1579 -0.0015
25537W        W41611  12.633   5.768   0.813  0.0021  0.2416 -0.0603
25538W        W41612  12.723  11.646   5.873 -0.1043  0.1937 -0.0179
25539W        W41613   7.761  11.354  14.313 -0.2073 -0.0340  0.0837
25540W        W41614  11.823  16.959  12.164 -0.1446  0.0529 -0.2589
25541W        W41615  10.519  14.682   2.834  0.1157  0.1547  0.1960
25542W        W41616  16.558  13.216  12.565  0.0947 -0.2572 -0.0401
25543W        W41617  14.057   0.549  11.366  0.0099 -0.0656  0.5068
25544W        W41618   7.398   5.775   3.575 -0.0229  0.0340 -0.2525
25545W        W41619  18.160   4.130   4.109 -0.1226  0.2549 -0.1888
25546W        W41620   1.466  18.307  11.313 -0.0804 -0.1289  0.0649
25547W        W41621  16.550  14.405  12.600  0.0066 -0.2027  0.2096
25548W        W41622   7.592  11.540   5.650  0.0993 -0.1416  0.0231
25549W        W41623  12.558  14.140  13.679 -0.0822 -0.0948  0.0325
25550W        W41624  12.881   6.429   4.651 -0.1528 -0.0440  0.0540
25551W        W41625  10.789   3.370   2.487 -0.1872  0.3655  0.2611
25552W        W41626   2.915  14.104   3.735  0.0382 -0.0728  0.0880
25553W        W41627   0.012  15.446   0.117 -0.0373  0.0110 -0.2368
25554W        W41628  10.657   6.046  11.468  0.0485  0.1911  0.0602
25555W        W41629  14.549  10.019   3.648 -0.4721 -0.0135  0.0117
25556W        W41630  10.366   9.426  12.416  0.5483  0.0546 -0.2171
25557W        W41631   5.973  10.346  13.827  0.2023 -0.2999 -0.2220
25558W        W41632  17.671   2.582   2.175 -0.2476  0.3154 -0.0605
25559W        W41633  16.942   6.297  10.037  0.0395 -0.0884 -0.3164
25560W        W41634  17.770  14.968  14.964 -0.4953 -0.2137 -0.0058
25561W        W41635   8.538   2.918   2.178  0.0075 -0.1158 -0.2060
25562W        W41636   0.650   9.278  13.388  0.0830  0.2243 -0.1180
25563W        W41637   7.606   7.088   1.288  0.1233  0.0793 -0.1210
25564W        W41638   3.880   0.616   3.787 -0.1387  0.0969 -0.1483
25565W        W41639   5.291  15.397   1.854  0.1049 -0.0238 -0.0758
25566W        W41640  17.774   1.133  12.201  0.1836  0.0188  0.1243
25567W        W41641   3.914   4.134   2.534  0.0093  0.2510  0.1094
25568W        W41642  10.639  10.980  11.764  0.2749  0.2628 -0.2690
25569W        W41643  17.656  14.212  13.356 -0.2971  0.3183 -0.3758
25570W        W41644  14.292   8.848   2.894  0.0733  0.0326  0.0806
25571W        W41645   8.413   6.678  15.205  0.1715  0.0279  0.1743
25572W        W41646   4.307   6.964   0.534 -0.1726 -0.0569  0.0374
25573W        W41647   6.986  17.340  11.942 -0.1639 -0.2208 -0.3609
25574W        W41648  10.110   1.914   2.360  0.0705 -0.0346 -0.2361
25575W        W41649   9.113   1.758   0.397 -0.1250  0.0231 -0.0330
25576W        W41650   1.277  10.243   1.570 -0.3745  0.0050 -0.0178
25577W        W41651  10.311  12.243  11.172 -0.0710  0.0029  0.2508
25578W        W41652   5.482  11.916  13.357  0.2073 -0.0054  0.3436
25579W        W41653   9.179   0.528   5.733 -0.0665  0.0095 -0.1428
25580W        W41654  15.791  18.354  15.105 -0.1327  0.1703  0.1098
25581W        W41655   4.878   1.812  13.829  0.0139  0.1033 -0.0790
25582W        W41656   0.915  17.426   2.806 -0.0537  0.1737  0.0477
25583W        W41657  12.018  13.138   2.426 -0.3912 -0.0052  0.0882
25584W        W41658  10.620  12.704  11.065 -0.1125  0.0027  0.0101
25585W        W41659  15.447  11.351   5.563 -0.1682 -0.0918  0.1885
25586W        W41660  16.411   8.192  12.820  0.1389 -0.3117  0.1109
25587W        W41661  17.785   6.579   2.927  0.2725 -0.2027  0.0029
25588W        W41662   7.456   4.284  12.281 -0.2071  0.1453 -0.0305
25589W        W41663  17.795  12.200   4.590 -0.1553  0.3196  0.0433
25590W        W41664   7.213   2.054   0.031 -0.1053 -0.0389 -0.1716
25591W        W41665   8.087  16.027  12.758  0.0240 -0.0858  0.0986
25592W        W41666   8.298   2.983  11.354  0.0174 -0.1840 -0.1290
25593W        W41667  10.547   3.598  11.247  0.0292  0.2745 -0.1038
25594W        W41668   5.642   5.055   3.382  0.0344 -0.3207  0.0288
25595W        W41669   3.795  12.333  12.250  0.3879  0.3208 -0.2586
25596W        W41670   7.308  18.555  11.866  0.4795 -0.3530  0.3924
25597W        W41671   0.227  15.338  15.674 -0.3518  0.1350 -0.1477
25598W        W41672   2.919  11.846   6.108  0.1563  0.0381  0.0116
25599W        W41673  15.915  12.913  15.892 -0.0820  0.2584  0.2235
25600W        W41674   8.490   1.544   2.809 -0.0650 -0.0452  0.4050
25601W        W41675  10.289   2.479   4.743 -0.2132  0.2131  0.0551
25602W        W41676  17.793   5.492   2.956  0.1097 -0.1079  0.1982
25603W        W41677  10.154  17.101   1.891  0.2562  0.1243  0.2597
25604W        W41678   4.140  12.239   0.094  0.2955  0.1824 -0.1108
25605W        W41679  10.570   4.391  13.838 -0.0502 -0.2850 -0.1222
25606W        W41680  18.432   2.198   3.470 -0.1857 -0.3357 -0.2005
25607W        W41681  18.068  16.661   0.092 -0.1253 -0.3245 -0.0361
25608W        W41682  11.296  11.836  14.524  0.0621  0.1970 -0.1816
25609W        W41683  17.434   6.969   2.939  0.0477 -0.0175 -0.0921
25610W        W41684   1.589  11.117  13.858 -0.0382  0.0915  0.2352
25611W        W41685   8.591   6.195  15.443  0.0158 -0.0859  0.1138
25612W        W41686   8.054   4.536   3.014  0.0407  0.1379  0.1805
25613W        W41687   1.519   4.609  13.803  0.0931  0.2330  0.1049
25614W        W41688   1.488  11.541   4.346 -0.2172  0.1114  0.1624
25615W        W41689   0.626  12.818   2.819  0.1800  0.2369 -0.3086
25616W        W41690   7.877  16.073   3.661  0.2466 -0.2291 -0.2060
25617W        W41691  18.558   4.801   4.537 -0.1385 -0.1073 -0.0758
25618W        W41692   7.420  15.278   4.659  0.1366 -0.1037 -0.0262
25619W        W41693   3.389   8.102  13.803 -0.1693  0.0308 -0.0007
25620W        W41694   8.497  12.211   2.284  0.0016  0.0049  0.2277
25621W        W41695   0.274   1.502   5.145  0.0164  0.1658 -0.0004
25622W        W41696   5.879   2.152  10.917 -0.0278 -0.1132  0.1339
25623W        W41697   7.935   6.041   0.687  0.2241  0.0649 -0.0433
25624W        W41698   8.829   0.706  13.649 -0.2204 -0.0280 -0.0345
25625W        W41699  14.636   6.252  15.689 -0.0850 -0.1621  0.1046
25626W        W41700  12.607   6.488  13.658  0.2330  0.2196  0.1080
25627W        W41701  14.582   2.657  13.047  0.2242  0.1478 -0.0375
25628W        W41702  15.331  14.778   4.945  0.0515  0.0924  0.0317
25629W        W41703   1.387  15.001   1.141  0.1295  0.5253  0.2415
25630W        W41704   8.011   0.972   5.478 -0.4071  0.2787 -0.3224
25631W        W41705  12.619   8.119  11.317  0.0580 -0.1464 -0.2712
25632W        W41706  18.333   8.470   4.175 -0.0703  0.0291  0.2306
25633W        W41707  15.901   9.080  13.525 -0.0846 -0.2481 -0.1805
25634W        W41708   1.115  14.026   5.890  0.2098 -0.3538  0.0868
25635W        W41709   2.206   6.370  13.716  0.0592 -0.2977  0.1243
25636W        W41710   9.786  18.325   5.363 -0.1217 -0.1547 -0.0924
25637W        W41711   9.193   0.069   6.022  0.0361  0.1672  0.1403
25638W        W41712  11.079   6.845  12.991  0.1956 -0.2727  0.2790
25639W        W41713  18.192   0.057  13.562 -0.0569 -0.0897  0.3211
25640W        W41714   3.228  13.614  12.348 -0.2441  0.0219 -0.2368
25641W        W41715   9.379   4.707  12.431  0.1237  0.1220  0.1335
25642W        W41716  16.320   4.585   5.406  0.2542 -0.0082  0.2771
25643W        W41717   4.389  11.205   1.697  0.0479 -0.0552 -0.4077
25644W        W41718   5.748  10.180   2.363 -0.4684 -0.1346 -0.0104
25645W        W41719   4.493  11.430   5.224 -0.3749 -0.1138 -0.0539
25646W        W41720  10.159  13.797   0.256  0.2435 -0.1993  0.1509
25647W        W41721   6.693  18.172  12.465  0.0676 -0.0173  0.3924
25648W        W41722   8.367  16.439   2.245 -0.2106 -0.1584  0.2078
25649W        W41723  12.744   6.495  14.205 -0.1724  0.0868  0.2873
25650W        W41724   5.272  17.690   1.528 -0.1605 -0.0783 -0.1150
25651W        W41725   5.077  16.813   3.408 -0.1165  0.0444  0.3623
25652W        W41726   6.099  16.914   4.445  0.1553  0.2927  0.2459
25653W        W41727   7.875  13.839   1.357 -0.2159  0.0311  0.2586
25654W        W41728   2.187   1.550   5.553  0.0289 -0.2744 -0.2966
25655W        W41729  13.356  14.838   4.169  0.0139 -0.3300 -0.0913
25656W        W41730   1.573  12.824   4.524  0.1931 -0.0588 -0.1621
25657W        W41731   5.942  10.845   0.721  0.2696 -0.0424 -0.0919
25658W        W41732  13.738   0.441   5.877  0.0431 -0.1882  0.1883
25659W        W41733  15.492   9.649   3.494  0.0702 -0.1979 -0.0473
25660W        W41734  17.315   5.833   3.628  0.0194 -0.1780 -0.0014
25661W        W41735  14.287  13.128   0.311 -0.0023 -0.2428 -0.0522
25662W        W41736  13.375  17.232   0.669  0.5338  0.0350  0.1195
25663W        W41737   4.718   0.425   3.403  0.2297  0.3460 -0.1119
25664W        W41738   1.031  18.526  11.463  0.1118  0.1794 -0.0769
25665W        W41739   9.683   8.985  15.917 -0.0842  0.3446  0.0697
25666W        W41740  17.381  11.603   5.732  0.1868  0.1197 -0.2285
25667W        W41741  17.766   5.395  14.330  0.0706 -0.3487  0.0002
25668W        W41742   4.030   6.544  12.203 -0.1097  0.2510 -0.0652
25669W        W41743   4.083  13.609  12.299  0.1130  0.2549  0.0533
25670W        W41744  11.304   8.192  14.304 -0.1243 -0.0597  0.0595
25671W        W41745  13.751  12.418   2.649 -0.0802  0.1108  0.0985
25672W        W41746  17.364  11.581   1.609 -0.4331  0.0693 -0.1381
25673W        W41747  16.274  15.026   4.699 -0.1217  0.3683 -0.0764
25674W        W41748   0.912   5.191   0.565  0.0346 -0.1707  0.0283
25675W        W41749  18.340   7.343  12.398  0.2175 -0.1200  0.2723
25676W        W41750   0.178   6.297  15.342  0.2097 -0.0121  0.1566
25677W        W41751  10.432   8.231   5.968 -0.1508  0.1432 -0.2680
25678W        W41752   2.205   1.245  15.688 -0.1437 -0.0124  0.4644
25679W        W41753   6.204   0.113  15.218 -0.1106 -0.1184 -0.2007
25680W        W41754   9.721   5.717   4.835 -0.1394  0.2318  0.0318
25681W        W41755   6.277   2.676   3.916  0.4711  0.2463 -0.1430
25682W        W41756   8.452   0.149  13.532 -0.1861  0.0772 -0.3476
25683W        W41757   5.548   3.913   0.416 -0.3065 -0.1848 -0.1973
25684W        W41758   9.283  10.515  11.126 -0.0659  0.1503 -0.3339
25685W        W41759   2.514   2.899   1.897 -0.0276  0.0346  0.2009
25686W        W41760   9.128   9.895  15.630 -0.0049  0.1020 -0.1489
25687W        W41761   5.488  15.909   6.029  0.1157  0.0588 -0.1701
25688W        W41762   4.166   2.899   4.703 -0.1100  0.0227  0.2668
25689W        W41763   3.630  14.546  13.166  0.1381  0.3634  0.3016
25690W        W41764   0.286  11.979  12.708  0.2127  0.0219 -0.1279
25691W        W41765   1.519  14.722  11.050  0.2056  0.0358 -0.1868
25692W        W41766   6.362  13.572   1.894  0.1011 -0.1363  0.2289
25693W        W41767   6.816   0.671   5.238  0.1271  0.1091  0.4408
25694W        W41768   1.328   4.450   1.610  0.1228 -0.2244  0.3526
25695W        W41769  13.310  12.642  15.232  0.0439 -0.0153 -0.0570
25696W        W41770   0.385   2.799   3.720 -0.0340  0.1052 -0.1056
25697W        W41771   0.704   9.510  14.812  0.0401  0.1302 -0.2831
25698W        W41772  16.066  16.737  10.659  0.1448  0.1262 -0.1808
25699W        W41773  10.524   6.633  10.313  0.0402 -0.1964  0.1044
25700W        W41774  16.113  14.209   0.594  0.0675 -0.1278  0.2822
25701W        W41775   0.403   6.567   4.594  0.0687  0.2288  0.0483
25702W        W41776  12.833  12.248  11.355 -0.3083  0.3958 -0.2166
25703W        W41777  17.208   2.633  13.519  0.0877  0.0055 -0.0514
25704W        W41778  15.503   0.112   3.905 -0.1858  0.0988 -0.1434
25705W        W41779  16.579   1.153   2.089 -0.0173 -0.1824 -0.1415
25706W        W41780   1.387  11.058  10.362  0.1226 -0.2034 -0.0613
25707W        W41781   2.984  16.679  15.784 -0.0443  0.0025 -0.0013
25708W        W41782  13.832  12.411  15.166  0.0165  0.0964 -0.3683
25709W        W41783   5.199  13.214  12.952 -0.1429  0.0971  0.0886
25710W        W41784  16.864  15.682   0.251 -0.0862  0.2415 -0.1994
25711W        W41785   4.595  11.814   4.877 -0.2146  0.2116  0.2605
25712W        W41786   1.926   4.676  11.912  0.1779  0.1012 -0.3067
25713W        W41787  13.983   5.753  15.268 -0.2445  0.2986  0.0449
25714W        W41788   3.646   2.533   2.439 -0.3962 -0.2376  0.0883
25715W        W41789  11.364   5.241   1.603 -0.2545  0.2688 -0.0071
25716W        W41790  18.385   2.148   2.684 -0.2207  0.1527 -0.1262
25717W        W41791   2.303   1.716   0.172 -0.3720  0.1514  0.0545
25718W        W41792  17.901  10.818   4.503 -0.0042  0.1500 -0.2068
25719W        W41793  10.778   9.007  10.992  0.1532  0.0238  0.2498
25720W        W41794  16.176  15.548   4.716 -0.0814  0.0265 -0.0004
25721W        W41795   2.132  17.302   3.080  0.1176  0.0359  0.3914
25722W        W41796   5.407  10.375   5.225 -0.1980 -0.1434  0.1755
25723W        W41797  15.619  13.165  12.716 -0.0525 -0.2588 -0.1407
25724W        W41798   1.272   6.281  15.518 -0.2019 -0.0668  0.2411
25725W        W41799  15.618   7.611  13.700 -0.2028 -0.0797  0.0601
25726W        W41800  14.153  12.102  11.854 -0.3348  0.1829  0.0398
25727W        W41801   4.290   0.836  12.804 -0.5022 -0.1927  0.3388
25728W        W41802  13.172   0.704   0.917 -0.1789 -0.2201  0.0088
25729W        W41803   8.397   7.228  15.327  0.0888  0.0644 -0.4308
25730W        W41804   7.966  14.281   1.092 -0.4492  0.0234  0.0458
25731W        W41805   4.200   8.545  13.983  0.0948 -0.0040 -0.1906
25732W        W41806   1.658  12.783   5.076 -0.0403  0.0269  0.0064
25733W        W41807  16.184   3.684  13.120 -0.0364  0.3940 -0.2442
25734W        W41808  18.284  13.077   2.317  0.0593 -0.0572 -0.0515
25735W        W41809  17.171  16.103   0.134 -0.1666  0.0577  0.2667
25736W        W41810   6.254  12.857   1.203  0.0392  0.2148  0.3043
25737W        W41811   3.435  12.065  13.780 -0.0520 -0.4044 -0.1828
25738W        W41812   1.720  15.440  15.199 -0.1440  0.3044  0.0468
25739W        W41813  12.927   4.507  14.398  0.1451 -0.0712  0.0038
25740W        W41814  17.980   2.949  12.580  0.1615 -0.4317  0.2563
25741W        W41815   7.404   5.533   2.040 -0.1580  0.0482  0.1283
25742W        W41816   4.196   7.361   2.833 -0.1595 -0.1020  0.1829
25743W        W41817  14.427  10.467   3.729  0.0359  0.0072  0.0951
25744W        W41818  14.299  13.625   4.799 -0.0233 -0.1200  0.1576
25745W        W41819   1.552  18.008   0.175 -0.0170  0.2049  0.1161
25746W        W41820   1.546  14.817  11.770 -0.3398  0.0852  0.0602
25747W        W41821   3.137   1.049  14.968 -0.0378 -0.1222  0.2563
25748W        W41822  15.165   0.390  14.996  0.3243  0.1437  0.0279
25749W        W41823  14.233   8.981   4.278 -0.2957  0.1121  0.2049
25750W        W41824   4.252  17.820  12.653  0.0915  0.4616 -0.3555
25751W        W41825   5.474   9.745  14.457 -0.1585  0.1293  0.1059
25752W        W41826   8.684   3.651  12.202  0.0842  0.4667 -0.1257
25753W        W41827   0.823  17.196  14.869 -0.1536 -0.1015 -0.2347
25754W        W41828   6.692   6.486  15.539  0.0188  0.0125  0.1136
25755W        W41829   5.362  18.142  12.372 -0.2071 -0.1114 -0.0573
25756W        W41830   8.490   2.343  12.851  0.2996 -0.1383  0.0290
25757W        W41831  17.308  17.931  14.380  0.4062  0.1291  0.0103
25758W        W41832   6.185   6.569  12.516 -0.0571  0.1342 -0.0086
25759W        W41833   5.205  15.513   0.252 -0.0962 -0.1362 -0.1072
25760W        W41834   9.369  10.908   3.076  0.0228 -0.2590 -0.1445
25761W        W41835   7.481   1.118  14.624 -0.4624  0.0371  0.0613
25762W        W41836  15.239   7.449   2.787  0.0116  0.2002  0.1768
25763W        W41837   3.227   3.885   2.994 -0.0173 -0.1133 -0.1983
25764W        W41838  14.831   5.557   4.844 -0.2587  0.2773 -0.1670
25765W        W41839   0.457   6.527   2.124 -0.2210  0.1163 -0.1148
25766W        W41840   8.398   9.872  14.976  0.0227  0.2060  0.0165
25767W        W41841  13.570  10.938   5.347  0.1514 -0.3895  0.3281
25768W        W41842   5.697  12.895  13.693  0.3218  0.1918 -0.0932
25769W        W41843  17.621   5.893  13.403  0.1962 -0.0964  0.0851
25770W        W41844  13.151   9.285   2.302  0.5481 -0.0616  0.1926
25771W        W41845   1.312   6.161   5.175 -0.1955 -0.1709 -0.1093
25772W        W41846  17.581   2.973   1.865 -0.3615  0.0519 -0.1653
25773W        W41847  12.228  12.237  12.553 -0.0960  0.0037  0.1871
25774W        W41848   9.542   0.228  14.785  0.0350 -0.1688  0.0770
25775W        W41849  18.209   7.023   2.749 -0.1043  0.3940  0.1234
25776W        W41850   2.166  15.444   1.052  0.1300 -0.0268 -0.1217
25777W        W41851   0.682   5.081   5.443 -0.0093  0.0828  0.0810
25778W        W41852  16.449  16.189  11.843  0.1143 -0.3199  0.0436
25779W        W41853   6.341  10.258   3.484 -0.2464 -0.0290 -0.4446
25780W        W41854  16.094   0.135  14.499 -0.0071  0.1742 -0.1004
25781W        W41855   4.005  15.054   4.231  0.1287 -0.1225 -0.0276
25782W        W41856   2.945   3.106   0.252 -0.2817 -0.2423  0.2761
25783W        W41857   4.476  13.712   0.201  0.1411  0.0972  0.1322
25784W        W41858  10.178  16.998   1.328 -0.1453 -0.1994  0.1165
25785W        W41859  10.582   3.450  13.149  0.2150  0.1095 -0.0522
25786W        W41860   5.177   9.433  15.998 -0.1965  0.1230  0.0878
25787W        W41861   3.629  17.448  14.790 -0.1881  0.0224 -0.2777
25788W        W41862  16.724   4.584   4.193  0.2857  0.1295  0.1331
25789W        W41863   5.772   6.004  11.734 -0.3742 -0.1017  0.3040
25790W        W41864   3.644   3.333   3.912 -0.2795 -0.1244 -0.1613
25791W        W41865   7.459   2.322   2.555 -0.0841  0.0362 -0.1802
25792W        W41866  12.792   0.089  11.545  0.1918 -0.0275 -0.0457
25793W        W41867   5.812   9.517   3.863 -0.0122  0.2024 -0.2395
25794W        W41868   8.560  12.637  10.315 -0.0560 -0.0091  0.0349
25795W        W41869   6.116   4.754  15.068 -0.1217 -0.0124  0.0063
25796W        W41870  16.245   4.783  14.860 -0.2279 -0.1875  0.3190
25797W        W41871  15.136   8.713   0.732  0.1807 -0.2141 -0.0026
25798W        W41872   9.129  14.578   0.649  0.0169 -0.0438  0.1088
25799W        W41873   7.215   6.750   2.061 -0.1741  0.2112 -0.2586
25800W        W41874  15.764   6.996  14.929 -0.4345 -0.2157 -0.1897
25801W        W41875  11.808   0.383  11.942 -0.1145  0.0610 -0.0053
25802W        W41876   5.255  16.766   0.138  0.2822 -0.0252  0.0323
25803W        W41877  18.500   9.636   0.136 -0.1678  0.1103 -0.1157
25804W        W41878  13.504   9.981   4.799  0.3303  0.1878 -0.0235
25805W        W41879  11.831  11.512  10.829  0.0298 -0.1238 -0.0993
25806W        W41880   2.109  13.032  14.004  0.1233  0.2272 -0.0017
25807W        W41881   8.944  18.346  11.763 -0.1618  0.0797 -0.0278
25808W        W41882  12.287   3.541  13.229  0.1034 -0.1006 -0.1726
25809W        W41883  16.487   4.149   0.591 -0.0724 -0.1529 -0.1609
25810W        W41884  17.332  18.514   1.708  0.1282  0.0435 -0.2042
25811W        W41885  16.694   3.082   1.659  0.1057  0.2642 -0.0188
25812W        W41886   1.156   2.329   0.347  0.0252 -0.0639  0.0283
25813W        W41887  10.947   0.746  13.821  0.1289  0.0889 -0.1788
25814W        W41888  11.980   7.110   5.030  0.2468  0.0179 -0.0299
25815W        W41889   4.308   7.283  14.252  0.0811 -0.2639 -0.1489
25816W        W41890   9.410   6.125   2.487  0.0158  0.0117 -0.0019
25817W        W41891   0.642  13.658   2.123  0.1105 -0.1207  0.0824
25818W        W41892  11.106   6.482   0.778  0.1289  0.0875  0.1624
25819W        W41893  15.020   7.225  16.031 -0.2926 -0.0020 -0.1558
25820W        W41894   4.314  11.781   4.487 -0.0362  0.2818 -0.0499
25821W        W41895  15.260  13.287   4.512  0.1930  0.2064 -0.2608
25822W        W41896  15.929   7.043   4.360 -0.0584 -0.1552  0.1728
25823W        W41897   3.518  16.967   3.400  0.0443  0.1936 -0.2019
25824W        W41898  10.493  11.846   2.509  0.0648  0.0594 -0.1105
25825W        W41899  16.125  10.819   0.232 -0.1648  0.1350  0.4613
25826W        W41900  17.963  16.907   2.415  0.0656 -0.0435 -0.0881
25827W        W41901   1.398  11.214  10.821  0.2002  0.2512 -0.3531
25828W        W41902   1.680   7.709   5.182 -0.2251 -0.0672  0.2341
25829W        W41903  13.769  10.436   3.064 -0.1206  0.0254  0.0961
25830W        W41904   7.614   1.990  15.146 -0.2892  0.3391 -0.0971
25831W        W41905   0.182  12.135   3.611 -0.0768  0.2167 -0.4078
25832W        W41906  13.808  18.476  14.785  0.1097 -0.1107  0.0957
25833W        W41907   2.104   0.714   5.975 -0.0073 -0.1114 -0.1671
25834W        W41908  12.668  15.146  14.160  0.2743 -0.3594  0.2490
25835W        W41909   7.622  12.841   4.464  0.0132 -0.3201 -0.1303
25836W        W41910   0.798  13.976   3.918 -0.1352 -0.0861  0.0444
25837W        W41911  15.841   0.076   4.238 -0.0497 -0.0379 -0.3339
25838W        W41912   7.252   2.155   3.085  0.1040  0.0314 -0.0326
25839W        W41913   1.525   1.414   4.877 -0.0896 -0.0844  0.1716
25840W        W41914   0.915  18.026   0.464 -0.0285  0.1698 -0.0987
25841W        W41915   3.665   8.419   5.916 -0.0972 -0.0026  0.0873
25842W        W41916  13.451  18.315  15.673  0.0478  0.0922 -0.2510
25843W        W41917  15.287   5.877   4.856  0.2161  0.2517  0.1192
25844W        W41918   1.745  15.139  13.205 -0.3263 -0.0950 -0.0005
25845W        W41919   4.570   3.613   4.780  0.0974  0.3436 -0.0315
25846W        W41920   3.783  14.331  12.628 -0.1104 -0.4118  0.1139
25847W        W41921   5.111  14.570  13.547 -0.1038 -0.1246  0.0710
25848W        W41922   1.402   7.442   4.848  0.1392  0.0005 -0.1509
25849W        W41923  16.708  18.111   1.955 -0.2323  0.2408  0.0523
25850W        W41924  14.088   2.288  11.746  0.2017 -0.0640 -0.0007
25851W        W41925  14.441  17.894  10.850 -0.0595  0.1332 -0.3162
25852W        W41926  11.742  14.678   3.658 -0.3044  0.0606  0.0847
25853W        W41927  16.290  15.210  12.866 -0.1174  0.0879 -0.1486
25854W        W41928  14.693  17.532   2.902 -0.4363  0.2272 -0.1731
25855W        W41929  13.542   6.443  12.284 -0.3199 -0.2913 -0.0020
25856W        W41930   3.334  15.910   3.588  0.0561  0.1342 -0.0847
25857W        W41931  15.367  11.390   3.999  0.0789 -0.0197  0.0064
25858W        W41932   5.621   4.844  14.821 -0.0632  0.2150 -0.1582
25859W        W41933  17.110  13.354   2.045  0.1805  0.1145  0.3288
25860W        W41934   7.142  13.788  13.248  0.5099  0.0804 -0.0522
25861W        W41935   1.095   7.585   5.253  0.0847  0.1455 -0.0736
25862W        W41936  11.338   9.972  12.809 -0.3168 -0.0167 -0.0742
25863W        W41937  13.152   2.714  12.265 -0.1819 -0.0857  0.1037
25864W        W41938  12.151   1.787  13.672  0.0907  0.1724  0.1506
25865W        W41939  14.754   1.435   3.118 -0.1321 -0.3830 -0.2902
25866W        W41940  18.322  11.295   3.836 -0.1232  0.3409  0.0150
25867W        W41941   3.690  17.027  13.942  0.0280 -0.2190 -0.3183
25868W        W41942   0.111   4.901   0.627  0.1289  0.0648  0.1729
25869W        W41943   5.149   4.884   5.028 -0.0844  0.2593  0.2946
25870W        W41944  17.790  15.497  15.782  0.4714 -0.0095 -0.3099
25871W        W41945   6.235   2.975   1.850 -0.3602 -0.0214  0.0988
25872W        W41946   9.762   3.478   3.684  0.0298  0.0774 -0.1579
25873W        W41947   3.211  16.884  15.352 -0.1899 -0.0195 -0.2867
25874W        W41948  11.382   8.588  13.623  0.2216  0.4973 -0.1097
25875W        W41949  12.008  13.243   5.554 -0.0594 -0.0421 -0.1642
25876W        W41950   8.380   2.413   2.181 -0.0809 -0.1003  0.1096
25877W        W41951   5.092  13.746  14.273 -0.1355 -0.0248  0.1549
25878W        W41952   4.924  17.131  16.026  0.2053  0.3107 -0.0391
25879W        W41953   8.061  10.308  15.067  0.0101  0.0065 -0.2634
25880W        W41954  11.402  10.008  13.925  0.5222 -0.0631 -0.0698
25881W        W41955   5.043  16.167   1.358  0.1693  0.1630 -0.3937
25882W        W41956   5.849  18.007   3.509  0.0846 -0.0548 -0.1135
25883W        W41957  10.417   2.109   2.816 -0.1787  0.1041  0.2007
25884W        W41958   4.232  16.378   0.965 -0.1162  0.1042  0.2492
25885W        W41959   7.617   8.160   1.817  0.0277 -0.2120  0.1140
25886W        W41960   9.133   0.160  12.989 -0.1062 -0.1754 -0.2235
25887W        W41961   1.485   5.991  13.331 -0.3296  0.1969 -0.2621
25888W        W41962  12.920   1.706   5.162 -0.0161 -0.0933  0.5239
25889W        W41963   5.821  10.992  13.156  0.0536 -0.1233 -0.1797
25890W        W41964  11.417   4.065   1.018  0.1910  0.2429  0.5740
25891W        W41965  17.844   5.908   4.188 -0.3019  0.0850 -0.2234
25892W        W41966  17.668  12.358  14.326 -0.0171 -0.1529 -0.2958
25893W        W41967   0.948  16.065  11.186 -0.2062 -0.2671  0.2122
25894W        W41968  17.824   1.107  13.310 -0.2407  0.0123 -0.0390
25895W        W41969   0.736  13.307  12.116 -0.1261 -0.1754  0.0873
25896W        W41970   6.660   2.950   4.080  0.2860 -0.3902  0.0969
25897W        W41971  12.149  13.246  13.121  0.1379 -0.1516  0.0688
25898W        W41972  10.493   3.855   1.552  0.0912  0.1360  0.0217
25899W        W41973   9.735  10.921   0.910 -0.2116  0.0929 -0.1292
25900W        W41974   8.373  10.004   0.156  0.0036 -0.0466  0.0918
25901W        W41975   1.189  14.269   3.800  0.0751  0.0485  0.3221
25902W        W41976   2.108   8.667  12.462  0.2080  0.0949 -0.0338
25903W        W41977  18.058   8.159  14.025  0.0234  0.1254 -0.2394
25904W        W41978  13.231  18.278   2.638  0.2229  0.0950 -0.1117
25905W        W41979  13.446  12.569   3.199 -0.1888 -0.1705 -0.3471
25906W        W41980  15.676   5.882  15.168 -0.0660 -0.3277 -0.0350
25907W        W41981   7.532   8.460  12.258  0.1932 -0.1450 -0.2533
25908W        W41982  15.309  18.182   3.693 -0.0007 -0.2832  0.0204
25909W        W41983  14.480   3.224  11.582 -0.1108  0.2432 -0.1223
25910W        W41984  15.915  11.441   5.108 -0.2100 -0.2613  0.0897
25911W        W41985  14.287   3.005   4.476 -0.1664 -0.1415 -0.0270
25912W        W41986  15.283  14.447   2.086 -0.2548 -0.3153  0.0880
25913W        W41987  13.800  12.397  13.710 -0.0831  0.2792 -0.0612
25914W        W41988  10.985  14.962   4.762  0.0046  0.2286  0.0464
25915W        W41989   8.561  15.976   1.227  0.0478 -0.3580  0.2721
25916W        W41990   5.995   5.566  11.565  0.1414  0.0135  0.2504
25917W        W41991  18.504   5.033  11.066  0.0193  0.0736 -0.0367
25918W        W41992  14.002   9.436   4.147  0.1245  0.2113 -0.3036
25919W        W41993   6.279  10.666  13.533  0.0320 -0.1167  0.1833
25920W        W41994   8.430   7.492   4.554  0.1830 -0.1983 -0.0005
25921W        W41995  11.053   9.493   5.528  0.3170 -0.1405  0.1217
25922W        W41996  11.883  12.482  15.734 -0.0618  0.1591  0.1140
25923W        W41997   7.267  17.474   1.810  0.0072  0.0866  0.0293
25924W        W41998  14.537  11.296  13.105  0.0962  0.0963 -0.0381
25925W        W41999  13.657  11.827  11.797  0.1124 -0.2139  0.1917
25926W        W42000  12.233   2.728   4.972 -0.1364 -0.0628  0.0421
25927W        W42001  17.536   1.456  15.083  0.1497  0.0272  0.1178
25928W        W42002  10.610  15.769   4.800  0.0795  0.1193  0.1120
25929W        W42003   6.756   9.718   0.822 -0.2547 -0.0354 -0.0464
25930W        W42004  16.395  17.192  12.606  0.2281  0.1754  0.1444
25931W        W42005   3.733   5.665  11.907 -0.4010  0.0881  0.1421
25932W        W42006   3.210   2.298   0.979 -0.0423  0.2333 -0.0422
25933W        W42007   8.296  10.806  13.959  0.1285  0.0985  0.2746
25934W        W42008  10.452   8.698  14.362 -0.1978  0.1345 -0.0746
25935W        W42009   2.482   8.845   2.908  0.4125  0.1122  0.0444
25936W        W42010   9.640   8.290   1.861 -0.1733  0.2301 -0.1540
25937W        W42011  12.152  16.826  11.778  0.0720 -0.3845  0.1461
25938W        W42012  15.947   5.552   1.902  0.0113 -0.2558  0.0711
25939W        W42013  14.642   0.960   2.284 -0.1022 -0.0395  0.2751
25940W        W42014   2.448  11.714  14.601 -0.1817  0.1126 -0.0559
25941W        W42015   3.887  15.298   5.832 -0.2687 -0.2017  0.0449
25942W        W42016  15.640  13.965  15.210  0.0973  0.0528  0.2357
25943W        W42017  14.510   2.669   0.110 -0.0745  0.0094  0.3755
25944W        W42018  16.323   0.274   5.302 -0.0681 -0.0472 -0.0696
25945W        W42019  10.728  13.382   1.816 -0.1444  0.1744 -0.2760
25946W        W42020   6.708  11.629  12.217 -0.2145 -0.1123  0.3577
25947W        W42021  17.321   8.127  13.524 -0.1405  0.1155  0.3896
25948W        W42022   9.037   8.788   0.701 -0.1208  0.0002  0.2782
25949W        W42023   5.934   6.948  16.002  0.1312 -0.1234  0.0581
25950W        W42024  15.925   5.998  15.607  0.0127 -0.1911 -0.1738
25951W        W42025   9.848  13.609   1.313 -0.2375  0.0407  0.0239
25952W        W42026  10.675   8.277  13.591  0.3821  0.2826 -0.0346
25953W        W42027  17.546  10.470   3.111 -0.1176 -0.0207  0.0999
25954W        W42028   9.387  10.467   5.075 -0.2205 -0.1249  0.0530
25955W        W42029  16.121   7.789  13.950  0.1903  0.0827 -0.0730
25956W        W42030  14.806  15.163  13.173  0.2449  0.2036  0.6657
25957W        W42031   4.516  18.172   5.081 -0.2778  0.1010 -0.0693
25958W        W42032   7.182  11.461  12.361  0.0050 -0.0419  0.1728
25959W        W42033  18.552   8.990   1.395 -0.1154  0.2945  0.5058
25960W        W42034   8.787  17.026  12.423  0.1372  0.0014 -0.1062
25961W        W42035   4.200  17.630  12.099 -0.1606 -0.0150 -0.2989
25962W        W42036  10.043  10.121   3.626 -0.0093  0.1069  0.0212
25963W        W42037  13.685  18.524   1.317  0.0937 -0.1760 -0.2956
25964W        W42038   3.806   2.811   3.781 -0.1628 -0.2258  0.0605
25965W        W42039   0.732   3.588   3.004  0.0110  0.0539  0.0519
25966W        W42040  11.263  17.260   0.069  0.0105 -0.0933  0.1312
25967W        W42041   7.502   2.824  15.772 -0.3532 -0.1200  0.0143
25968W        W42042  16.985  18.373  12.782  0.1736 -0.0431 -0.1604
25969W        W42043  15.539   3.201   2.552 -0.1268 -0.2061  0.0040
25970W        W42044  17.293  14.791   1.123 -0.0835  0.0223 -0.1418
25971W        W42045   4.526  16.037   5.844  0.0274 -0.0585 -0.2125
25972W        W42046  10.585   0.135   3.604 -0.0002 -0.0886 -0.2550
25973W        W42047   9.427   9.624   0.592 -0.2798 -0.0310 -0.0569
25974W        W42048  17.790   6.101  15.901  0.2510 -0.0809  0.0137
25975W        W42049  16.335   9.482   2.756 -0.0151 -0.3469  0.1446
25976W        W42050   5.030   7.490  11.986 -0.3266 -0.1141  0.0330
25977W        W42051   5.358   2.044   2.961 -0.0766 -0.2360  0.0112
25978W        W42052  10.564   1.353   5.371  0.0513  0.0674  0.1485
25979W        W42053   8.402   7.561  13.354  0.0679 -0.1571  0.0670
25980W        W42054  14.022   9.901   2.782 -0.1660  0.0260 -0.0802
25981W        W42055   6.886  17.478  11.450 -0.1897 -0.3682  0.0582
25982W        W42056   4.638  10.798   3.075  0.4441 -0.3470 -0.1709
25983W        W42057  13.639   1.066  13.781 -0.1100  0.2316 -0.0626
25984W        W42058   5.855  13.873  11.812  0.1365 -0.0190 -0.0909
25985W        W42059   8.184  17.241   3.987  0.1227  0.0216  0.2157
25986W        W42060   5.843  11.062  14.808 -0.0052  0.0159 -0.1451
25987W        W42061   2.360   2.105   0.472  0.1720 -0.0319  0.2485
25988W        W42062   6.233   4.363   3.649  0.0490 -0.0929 -0.4049
25989W        W42063   6.518  13.542   0.050  0.2956  0.0342 -0.1059
25990W        W42064   4.486  11.629   1.980  0.3030  0.3665  0.4177
25991W        W42065   8.982  17.248  14.794 -0.0366 -0.4906  0.0112
25992W        W42066  18.404  10.966   2.510 -0.0823  0.2538  0.0477
25993W        W42067   6.325  14.915  14.852  0.0667 -0.2358 -0.0852
25994W        W42068  14.046   7.961   3.028  0.1404  0.0283 -0.0209
25995W        W42069  15.335   8.533   3.514  0.0497  0.1048  0.5037
25996W        W42070  15.771   1.510   0.784  0.1981  0.1652  0.0109
25997W        W42071   8.317  15.626   2.833 -0.2147 -0.1598  0.1195
25998W        W42072  16.348  10.296   5.352  0.3179  0.0318  0.1342
25999W        W42073   1.769   9.487   1.000  0.1803 -0.0456  0.1467
26000W        W42074   4.349  16.984  13.630 -0.0081  0.0046 -0.1578
26001W        W42075  10.958   9.518  12.255 -0.0382 -0.0802 -0.0254
26002W        W42076   5.530   3.038   0.851 -0.2694 -0.3221  0.2285
26003W        W42077   9.206  13.376   1.259  0.2282  0.2458  0.4842
26004W        W42078   2.739   6.953   1.582 -0.0626 -0.1895 -0.0448
26005W        W42079   0.527   1.903  15.799  0.1898  0.0132  0.1443
26006W        W42080   6.041  13.835   1.528  0.0253 -0.0969  0.2107
26007W        W42081  17.025  11.087  13.001  0.1861 -0.1058 -0.1610
26008W        W42082   2.530  13.948  13.768 -0.1264 -0.1172 -0.0703
26009W        W42083  14.530   3.287  14.868 -0.1034 -0.1620 -0.2469
26010W        W42084   5.043  12.004   4.883 -0.1971  0.1627 -0.4681
26011W        W42085  12.142   2.494  15.204  0.0587  0.3567 -0.1337
26012W        W42086  11.111  10.779   3.160  0.1437 -0.0561  0.0484
26013W        W42087   6.007   8.546   4.342 -0.1212  0.2131 -0.1098
26014W        W42088   1.742  12.033  14.787 -0.0835 -0.1066  0.1029
26015W        W42089   8.748  10.529  13.881 -0.0731 -0.3913  0.1610
26016W        W42090   1.563   8.790  15.233  0.0644 -0.0830 -0.2216
26017W        W42091  11.541   4.716   2.592  0.2396  0.0968  0.0963
26018W        W42092  17.332  18.325  12.367 -0.2505 -0.0813  0.1567
26019W        W42093   1.359  14.926   4.823 -0.1838  0.2350  0.2414
26020W        W42094  13.448  11.239  13.906 -0.1066 -0.0694  0.1359
26021W        W42095   9.866   6.689  11.830 -0.2865 -0.3430  0.2444
26022W        W42096  17.267  12.334  13.438 -0.1424  0.1795  0.1415
26023W        W42097  12.570  14.702   0.144 -0.3071 -0.2158  0.3446
26024W        W42098  15.907  11.313   0.444 -0.2422 -0.1273 -0.0191
26025W        W42099   4.968  15.514   3.231  0.2285 -0.2015 -0.0117
26026W        W42100   9.439  13.284   4.898 -0.2182  0.0257 -0.2676
26027W        W42101  13.083  16.021  11.365 -0.2567 -0.3085  0.0150
26028W        W42102  18.565  18.566   0.861 -0.3652  0.1383 -0.2165
26029W        W42103  15.578   4.625  10.735 -0.1622  0.1557 -0.1357
26030W        W42104   0.022   4.077   4.830 -0.0976 -0.2178 -0.0081
26031W        W42105  15.345  17.250   6.016  0.2444  0.0601 -0.0576
26032W        W42106   6.654   4.558   1.423  0.1171  0.0885 -0.1670
26033W        W42107  15.686  14.006  12.940 -0.2346 -0.0658  0.0042
26034W        W42108  13.628   9.776  11.235 -0.0371 -0.2820 -0.1454
26035W        W42109   9.014   4.003  15.376 -0.1956 -0.2408  0.0510
26036W        W42110   7.196   5.652  14.884  0.0550  0.0672  0.3226
26037W        W42111   1.871  16.098  12.091  0.0077 -0.0383 -0.0244
26038W        W42112   4.725   0.625  14.894  0.2122  0.2003 -0.3007
26039W        W42113   2.837   8.262   5.312  0.1600  0.0476  0.1116
26040W        W42114   9.366   3.374   4.144 -0.0602 -0.0763  0.1903
26041W        W42115  14.222   4.483   4.941  0.1450 -0.2294 -0.2483
26042W        W42116   1.044  11.448   4.622  0.0398 -0.0302 -0.2965
26043W        W42117   3.832  11.187  15.313  0.1104 -0.0199 -0.1366
26044W        W42118   9.570  15.147   0.897  0.2569 -0.0825 -0.1270
26045W        W42119  11.249  11.825  11.618 -0.1222 -0.1510 -0.0501
26046W        W42120  10.746   5.722   3.164  0.0987 -0.1383  0.1973
26047W        W42121   0.031   3.945   3.414 -0.1421  0.2499  0.1731
26048W        W42122  13.468  12.814  13.001  0.3106  0.4174  0.0327
26049W        W42123  17.444   6.857  15.398 -0.0918 -0.0478 -0.1534
26050W        W42124   8.883  17.550  12.181 -0.0610 -0.0590  0.3248
26051W        W42125   2.296  14.871   3.816  0.1595 -0.1315 -0.0024
26052W        W42126   5.120  12.737  12.690  0.1333 -0.2821  0.2225
26053W        W42127   2.117  13.995   1.105  0.2809  0.4508 -0.2659
26054W        W42128   3.375   8.761  12.086 -0.0458 -0.0290 -0.1288
26055W        W42129   0.038  16.696  11.193 -0.0135  0.0334  0.0333
26056W        W42130   2.175   2.173  13.192  0.0638 -0.3601 -0.2003
26057W        W42131   5.561   1.046   1.748 -0.1548 -0.0787  0.0317
26058W        W42132   3.964  15.273   4.664 -0.4097 -0.1347 -0.4262
26059W        W42133   4.489   1.429  13.077 -0.0096 -0.2318  0.3828
26060W        W42134   9.474  12.401  13.060  0.4106  0.0295 -0.1624
26061W        W42135  10.998  16.589  12.119  0.1207 -0.1299 -0.2487
26062W        W42136  17.525   2.373  12.703  0.0987 -0.1467  0.3637
26063W        W42137  11.060   6.684  14.503 -0.1523  0.1371  0.0298
26064W        W42138   4.035   9.332   4.680  0.2053 -0.2050 -0.1287
26065W        W42139  14.532  10.517   4.820 -0.2784 -0.0608 -0.0949
26066W        W42140  17.105  12.593  13.869 -0.1613 -0.0518 -0.2496
26067W        W42141  13.495  11.734  10.056  0.0444 -0.1348  0.1205
26068W        W42142  12.614  15.189  11.452  0.1728  0.3195 -0.1971
26069W        W42143  13.224   9.677   5.491  0.1651 -0.1937 -0.0313
26070W        W42144   1.521   0.881   3.963 -0.0785  0.6019 -0.0274
26071W        W42145   4.160   8.244  12.968 -0.2412  0.0153 -0.0756
26072W        W42146  16.479   1.673   2.406 -0.0999  0.1050 -0.0588
26073W        W42147  13.569  12.137  11.321  0.1483  0.0535  0.1220
26074W        W42148   9.919   9.194  14.964 -0.1258  0.1555  0.0485
26075W        W42149   8.024  16.342  10.846 -0.0092 -0.1373 -0.3469
26076W        W42150  16.223  13.345  14.316  0.2751  0.4138  0.2450
26077W        W42151   9.606  14.190   3.083 -0.0275  0.1093  0.0158
26078W        W42152   9.280   1.537   4.738  0.1463  0.2303 -0.1985
26079W        W42153  16.367   0.777   2.495  0.3179  0.1805 -0.0530
26080W        W42154   7.600   4.718   6.252  0.0857  0.2033  0.1753
26081W        W42155  13.459   8.822   0.725 -0.1927 -0.2301 -0.0185
26082W        W42156   8.420  15.126  12.380 -0.2894 -0.1534  0.0708
26083W        W42157  16.168   0.507  13.049  0.2710  0.2359 -0.2976
26084W        W42158   6.972   0.518   2.157  0.0832  0.0955  0.0655
26085W        W42159  14.105   5.276  11.515 -0.1497  0.2709 -0.0251
26086W        W42160  17.434   1.994   2.010 -0.2023  0.1030  0.0621
26087W        W42161  18.197   1.062   0.141  0.2647 -0.0636 -0.0594
26088W        W42162   0.249  14.715  15.686 -0.0591  0.2775 -0.0498
26089W        W42163   6.386   9.543   1.794  0.0304 -0.1460 -0.0055
26090W        W42164  17.720   8.980  12.287  0.1324  0.2226  0.0390
26091W        W42165   5.297   7.457   1.101 -0.1055  0.0287  0.1012
26092W        W42166  12.375  13.150  10.643 -0.1393 -0.0367 -0.1194
26093W        W42167  11.799  17.663   4.804  0.0613 -0.1462 -0.0953
26094W        W42168   7.149  17.902   4.983 -0.0911 -0.2790  0.1761
26095W        W42169  16.732   3.274  12.348  0.0491  0.0130 -0.1724
26096W        W42170  10.702   6.726   4.918 -0.0277 -0.0308  0.1094
26097W        W42171   0.351  13.773  12.333 -0.1076 -0.2004 -0.4591
26098W        W42172  14.380   5.349  15.004  0.3655 -0.0193 -0.2098
26099W        W42173  13.175   0.898  15.590 -0.0017 -0.2428  0.0279
26100W        W42174  15.998   9.736  14.212  0.1618  0.4062  0.2620
26101W        W42175  17.082  13.790   5.117 -0.2616 -0.1718  0.2202
26102W        W42176  13.212   0.141  10.615  0.0382  0.3855  0.0880
26103W        W42177  11.355   3.290  11.841 -0.0650 -0.0537 -0.0473
26104W        W42178   3.202   7.066  12.113  0.3341  0.0713  0.3334
26105W        W42179  17.559   7.429   3.212 -0.1212 -0.2340  0.3328
26106W        W42180   1.649  16.332  12.473 -0.2679  0.1691 -0.0119
26107W        W42181  16.067  14.441   2.826 -0.3500 -0.1725 -0.3073
26108W        W42182   9.782  15.300   3.607  0.2433 -0.4842  0.1681
26109W        W42183  17.948   6.027  15.457  0.3874  0.0900 -0.0705
26110W        W42184   9.524   2.411   4.902  0.1570 -0.1793 -0.0477
26111W        W42185  12.222   8.761  16.019 -0.1249 -0.2985  0.4413
26112W        W42186   5.984   4.274  12.538 -0.1163 -0.1378  0.0474
26113W        W42187   7.912   6.385  13.050 -0.2538 -0.1047 -0.1272
26114W        W42188   1.304   9.721  15.262 -0.0470  0.2707 -0.3041
26115W        W42189   9.802  11.168  13.031 -0.0010 -0.0153 -0.1254
26116W        W42190   8.095  18.421  13.336  0.0860  0.0081  0.3047
26117W        W42191   7.001   4.335   4.079  0.2807  0.0888 -0.0692
26118W        W42192  14.223   1.175  13.552  0.0890 -0.2599  0.2779
26119W        W42193   0.287  11.182   4.540  0.0663 -0.1668  0.2983
26120W        W42194  17.830  12.246  12.523  0.0414 -0.3191 -0.2032
26121W        W42195   5.745   3.497   3.724 -0.0215 -0.2901  0.4374
26122W        W42196  15.918   7.455   3.031  0.0314 -0.0697 -0.0315
26123W        W42197  12.865   8.156   5.291  0.3266 -0.1041 -0.1960
26124W        W42198   9.844   4.775  14.283 -0.0024 -0.0483 -0.2677
26125W        W42199  14.107  12.208   1.377  0.1704 -0.0241 -0.0829
26126W        W42200  16.517  10.930   2.711  0.0221  0.0018 -0.4096
26127W        W42201   6.153  16.578  14.935  0.4131  0.0715 -0.3472
26128W        W42202  12.334  17.949   1.301  0.2776  0.0608  0.2159
26129W        W42203   1.987   8.538  15.429 -0.2168 -0.0121  0.0560
26130W        W42204   9.718   8.377  11.702 -0.1549  0.2109 -0.1944
26131W        W42205   0.086  10.690  12.222 -0.2144 -0.0009 -0.0255
26132W        W42206   5.613   2.754  11.577  0.0613  0.1882  0.2102
26133W        W42207  18.508  15.244  12.249  0.1638  0.0804 -0.0809
26134W        W42208   2.631  15.456   2.531  0.0843 -0.0088  0.0751
26135W        W42209  13.288   7.626   1.318  0.0289 -0.0587 -0.0069
26136W        W42210   9.661   3.562  15.564 -0.0451 -0.2206  0.0059
26137W        W42211  18.506  11.242  11.237 -0.0331  0.1446 -0.1328
26138W        W42212  15.714  13.579   1.741  0.1070 -0.3251 -0.1150
26139W        W42213  16.887   7.190   4.880 -0.0423  0.1940 -0.0340
26140W        W42214   5.720   0.290   1.082  0.0335 -0.2484  0.0872
26141W        W42215  14.045  13.217   1.878 -0.2868 -0.0409 -0.0040
26142W        W42216  18.379   1.682   5.155 -0.3078  0.0311 -0.2168
26143W        W42217  15.184  10.406   3.279 -0.2952 -0.0065 -0.0817
26144W        W42218   8.856   8.540   3.595  0.2384  0.1140 -0.1255
26145W        W42219  16.788  13.526  11.716  0.0641 -0.4880  0.0020
26146W        W42220   4.454  12.458  11.710  0.0052 -0.4584 -0.0276
26147W        W42221   3.836  18.004  14.153  0.2901  0.2332  0.2045
26148W        W42222   2.361   2.810   3.527 -0.0561 -0.0925 -0.0196
26149W        W42223   8.381   6.540  14.276  0.0439 -0.2080 -0.0626
26150W        W42224   1.954  11.497   2.113  0.3520  0.3422  0.0930
26151W        W42225   9.541   5.644   0.253  0.0790  0.1810  0.2365
26152W        W42226  14.942  16.379   2.877 -0.0010 -0.2480  0.3900
26153W        W42227  14.469  12.763  15.898 -0.2011 -0.1567 -0.0495
26154W        W42228   8.857   9.676   3.707 -0.0384  0.1469  0.2235
26155W        W42229   3.385  14.113  13.019 -0.0240  0.1237  0.1298
26156W        W42230   4.248  12.188  10.856  0.2392 -0.3161 -0.0775
26157W        W42231  12.198  16.438  14.246 -0.0245 -0.0423  0.0119
26158W        W42232   4.636   9.585  14.191 -0.2898 -0.0732 -0.1213
26159W        W42233   8.581   1.200  10.716 -0.0917 -0.4134 -0.0155
26160W        W42234  16.028  13.389  11.503 -0.0452  0.1233 -0.1718
26161W        W42235   0.276   9.196  12.379  0.0624 -0.0195 -0.0538
26162W        W42236   5.595  12.735   2.773  0.1457 -0.0695  0.0329
26163W        W42237   9.520   6.444  15.917 -0.1156 -0.4953 -0.3062
26164W        W42238  15.006   5.477  12.405 -0.1054  0.0858 -0.0365
26165W        W42239   3.110  16.593  14.051 -0.0066 -0.0755  0.1236
26166W        W42240   4.517  15.906   2.343 -0.2405 -0.2471  0.3154
26167W        W42241   1.764   8.762   0.396  0.0334 -0.2371 -0.2172
26168W        W42242   1.464  11.687  12.709  0.3405 -0.2327 -0.0612
26169W        W42243   9.810   9.972   0.837  0.2550 -0.0797  0.2612
26170W        W42244   2.852   6.318   5.552 -0.2396  0.2671  0.2154
26171W        W42245   2.506  14.796   5.902 -0.2823 -0.2223 -0.0539
26172W        W42246   4.656   2.781  11.084  0.2254 -0.1118  0.0467
26173W        W42247  15.821  10.056   4.542 -0.2484 -0.2386  0.2040
26174W        W42248   1.062   3.238   4.316 -0.0319 -0.3176 -0.1717
26175W        W42249   2.552  11.190  14.785 -0.1367  0.0689  0.1817
26176W        W42250  15.415  16.460  13.896 -0.1854 -0.0350  0.0095
26177W        W42251  16.799  11.308   0.798 -0.1464 -0.1128 -0.2969
26178W        W42252   2.935  12.105   5.628  0.0112 -0.0121 -0.2283
26179W        W42253  12.912  18.030   1.360 -0.0019 -0.1879 -0.0785
26180W        W42254   7.288   7.728  11.523  0.0030  0.3145 -0.0773
26181W        W42255  10.357  16.836  13.820 -0.2489 -0.1199 -0.2724
26182W        W42256  11.202  12.646  10.372 -0.0898 -0.4140 -0.1709
26183W        W42257  14.325  10.027   4.652  0.1118 -0.0132 -0.3372
26184W        W42258  16.375  10.331   3.188 -0.0500  0.2092  0.0691
26185W        W42259   8.365   2.307   0.560 -0.0650  0.0840  0.1019
26186W        W42260   5.168  12.918  13.766  0.0831  0.1445 -0.0657
26187W        W42261  17.570  18.139  15.422  0.1420 -0.1025  0.1764
26188W        W42262   6.605   7.304   1.585 -0.3290  0.2445  0.2748
26189W        W42263   1.287   3.226   0.850  0.1060  0.1086  0.1957
26190W        W42264   0.268  17.379   2.184  0.1262  0.3853 -0.0643
26191W        W42265  10.743   5.276   5.415 -0.2668 -0.3441 -0.0502
26192W        W42266  16.065   2.994  10.740 -0.1509  0.1188 -0.1422
26193W        W42267  12.946  18.143   4.480 -0.0151 -0.0976 -0.1596
26194W        W42268   3.896   2.641  12.311  0.1053 -0.1468  0.2026
26195W        W42269  16.459  14.345  15.487  0.0347 -0.3481  0.0590
26196W        W42270  16.279  12.296  14.288 -0.3990 -0.4339  0.3933
26197W        W42271   8.274  14.694  12.655 -0.0555 -0.0511  0.2751
26198W        W42272   3.556   9.373  11.615 -0.1320  0.0992 -0.2019
26199W        W42273   6.134  13.267  11.635  0.1161 -0.0586 -0.1139
26200W        W42274   8.978   8.420   1.779 -0.1811 -0.1707 -0.0246
26201W        W42275  17.887  14.342   2.498 -0.1508  0.0120 -0.0494
26202W        W42276   7.848   8.608   1.799  0.3473 -0.0119 -0.1359
26203W        W42277   9.759   3.101  15.500 -0.0891 -0.1078  0.2226
26204W        W42278   2.369   1.185  14.182 -0.0307  0.1198 -0.1617
26205W        W42279  15.002   4.723   2.947  0.2662 -0.0125  0.0591
26206W        W42280   2.222   4.673  13.035  0.1925  0.1140 -0.1724
26207W        W42281   7.598  11.936  11.732 -0.0918  0.2109  0.0143
26208W        W42282  12.264   7.835   0.521 -0.1089 -0.0243  0.3097
26209W        W42283   9.381   6.670  11.729  0.3757 -0.0940 -0.0034
26210W        W42284   9.796   7.620   3.633 -0.3732 -0.1256 -0.0912
26211W        W42285   9.546  18.084  15.666 -0.2751 -0.1592  0.0311
26212W        W42286   5.844  15.871  13.437  0.2169 -0.1391  0.1417
26213W        W42287   7.796  12.510   3.153 -0.1879 -0.3939 -0.1489
26214W        W42288   4.405   7.359  11.678  0.1592 -0.0775  0.3170
26215W        W42289  12.556   6.665   0.891  0.1838 -0.2853  0.2431
26216W        W42290   0.547  12.206   6.079  0.0520 -0.2111 -0.2161
26217W        W42291   8.113  13.817  14.328 -0.2950  0.0286  0.0056
26218W        W42292   2.198   7.805   4.425 -0.1587  0.0547  0.0265
26219W        W42293  12.758   5.260  11.885  0.3161 -0.0088  0.2273
26220W        W42294   3.402   1.861  12.745  0.1689 -0.0423 -0.1573
26221W        W42295   5.347   4.450   2.629 -0.1064 -0.0805  0.0546
26222W        W42296   6.770   9.560  14.564  0.2512  0.0526 -0.2401
26223W        W42297  17.913   1.034   1.943  0.1806 -0.1197  0.2855
26224W        W42298   7.024   9.132  11.712  0.1564 -0.0850 -0.0556
26225W        W42299  10.123   1.848   3.481  0.1042 -0.0559  0.1716
26226W        W42300   3.112  12.371   6.164  0.1969  0.2986 -0.0611
26227W        W42301   9.179  13.996   5.747  0.0008 -0.1743  0.2808
26228W        W42302   9.785  14.019   1.698 -0.0100  0.3902  0.2226
26229W        W42303   0.200   0.418   0.146  0.0464 -0.0698 -0.3382
26230W        W42304   4.423   0.772  12.298  0.0896 -0.3405  0.1537
26231W        W42305  15.636  14.286  11.356  0.0502 -0.0225 -0.0765
26232W        W42306   7.084   6.127  14.052 -0.1592 -0.1944  0.3986
26233W        W42307   3.315   3.123   4.235 -0.4314 -0.1373 -0.1867
26234W        W42308  16.248   6.523   5.181  0.2773 -0.0099  0.2150
26235W        W42309  14.213  17.904   5.506 -0.2231  0.0376 -0.2652
26236W        W42310   7.197  11.861   2.923  0.1677  0.1811 -0.1513
26237W        W42311  12.932  16.083   3.249  0.0392 -0.5333  0.0968
26238W        W42312   8.469   2.347   3.055 -0.0109  0.1395 -0.1557
26239W        W42313   3.153  10.098  14.122 -0.1974 -0.1089 -0.0328
26240W        W42314  15.461   6.847  12.974 -0.1547  0.1026  0.0280
26241W        W42315  12.029   2.072   1.351 -0.0484 -0.2260 -0.2685
26242W        W42316  15.355  15.449   3.609 -0.3527 -0.0686  0.0387
26243W        W42317  15.172  14.499   4.506 -0.2059  0.2531  0.3730
26244W        W42318  17.514   2.135   5.957 -0.3873  0.2215  0.1751
26245W        W42319  17.108   0.568  11.905 -0.1326  0.0430  0.0122
26246W        W42320  12.992   1.505   0.570 -0.1412 -0.0015 -0.1097
26247W        W42321  11.923  15.923   5.705  0.0510 -0.0612  0.1730
26248W        W42322  18.083   7.977   2.118  0.1524 -0.2314 -0.1792
26249W        W42323  10.779  16.747  12.883 -0.2039 -0.2218 -0.0239
26250W        W42324  16.436  11.344   1.907  0.0580  0.0304  0.0998
26251W        W42325  12.924  12.176  15.328  0.0627 -0.0944 -0.5303
26252W        W42326  15.326   9.183   0.450 -0.1976 -0.0547 -0.1701
26253W        W42327  16.226  14.519  13.541 -0.0663 -0.1621 -0.2378
26254W        W42328  12.648   0.886  15.729  0.1030 -0.0011  0.0338
26255W        W42329   9.104   3.676  13.316  0.1665 -0.1448  0.1215
26256W        W42330   3.059  16.592  10.747  0.1468 -0.1433  0.1444
26257W        W42331  17.973   6.332   5.141  0.2158 -0.1813 -0.0181
26258W        W42332   4.081   7.406   0.413 -0.1586  0.1711  0.1323
26259W        W42333  13.746   1.653  13.777  0.2768  0.0522 -0.0173
26260W        W42334   1.838  13.272   3.226 -0.0395  0.1003  0.0264
26261W        W42335  10.683  15.049  14.809 -0.0411  0.3436 -0.1966
26262W        W42336   7.960  10.388   4.260  0.3034 -0.1194 -0.0488
26263W        W42337   1.808  13.768   4.000  0.0691 -0.0945  0.0996
26264W        W42338   0.490   4.292   5.613 -0.0682  0.0806  0.2050
26265W        W42339  13.811   7.162   5.968  0.0129  0.1460 -0.1184
26266W        W42340   4.418   1.487   4.376 -0.3553 -0.3830  0.2984
26267W        W42341   7.485  15.252  14.676  0.0038 -0.0241  0.3298
26268W        W42342   3.973  10.502  14.302 -0.2217 -0.0996  0.0206
26269W        W42343  10.963   4.214   0.740 -0.0049 -0.1779  0.0006
26270W        W42344   4.354   7.093   3.269  0.1411  0.0532 -0.1603
26271W        W42345   4.196   1.776   3.443 -0.1849  0.1092  0.1122
26272W        W42346  11.826  10.548  11.814  0.1351 -0.1499 -0.3553
26273W        W42347  15.742   1.454   3.674 -0.1714 -0.0667 -0.1335
26274W        W42348   4.255   9.733   4.330  0.2928  0.0518 -0.1966
26275W        W42349  13.817  13.458   4.691  0.0959  0.2025  0.0247
26276W        W42350   2.767  11.337   2.651  0.2451 -0.0572  0.2355
26277W        W42351  11.684   4.279   5.156 -0.1925  0.1308 -0.2059
26278W        W42352   3.576   4.093   3.531  0.3523  0.1173  0.0894
26279W        W42353   3.359  15.163   1.959 -0.1878  0.0927 -0.0049
26280W        W42354  16.839   0.893   3.465 -0.1131  0.2679 -0.1419
26281W        W42355   1.072  15.661   1.207 -0.1555 -0.2161 -0.1049
26282W        W42356   4.769  18.097  13.777 -0.1639 -0.1349 -0.1087
26283W        W42357   6.857   7.582   1.111 -0.0815  0.1936  0.0748
26284W        W42358   8.623  18.123   0.889  0.0202 -0.1690  0.1577
26285W        W42359  14.535   7.685  11.305 -0.0336  0.1399  0.0486
26286W        W42360  14.495  10.230  15.293  0.0506  0.2712 -0.4710
26287W        W42361   5.805  12.983   4.817 -0.0878  0.0421 -0.2459
26288W        W42362   1.309   5.339   1.017  0.1826 -0.0474  0.0686
26289W        W42363   5.011  18.034   5.137  0.0989  0.1904  0.0240
26290W        W42364  11.625  16.913  14.685 -0.3628 -0.0028  0.4228
26291W        W42365  12.231   5.862   1.200  0.1629 -0.0271  0.2418
26292W        W42366   7.878   1.510   0.755 -0.3327  0.1936 -0.0694
26293W        W42367  15.971   9.442  11.949  0.0142  0.0730 -0.4058
26294W        W42368   0.907   7.357   2.461 -0.2346  0.1468  0.2722
26295W        W42369  17.932   7.729   5.423  0.2220  0.0708  0.1072
26296W        W42370  13.074   2.670  13.158 -0.1490 -0.0368  0.0746
26297W        W42371   3.216  11.755  13.063 -0.3323 -0.3751  0.0004
26298W        W42372  15.623   0.569  10.823 -0.0000 -0.0441 -0.1667
26299W        W42373   6.522   1.105  14.215 -0.2126 -0.2882  0.1659
26300W        W42374  14.250  12.095   4.370 -0.2613 -0.1553 -0.1598
26301W        W42375   5.800   0.168  14.990 -0.1545 -0.1902  0.0413
26302W        W42376  10.711   2.829   3.604 -0.2084 -0.3128 -0.0971
26303W        W42377   7.330   0.745   3.764 -0.0828  0.0053  0.0736
26304W        W42378  10.608   7.971   0.720  0.0050 -0.2918 -0.2203
26305W        W42379   9.669   5.864  15.017 -0.2333  0.1137 -0.1117
26306W        W42380  16.319   1.354  14.951  0.1394  0.0619 -0.1294
26307W        W42381  17.810  13.822   1.815  0.2899 -0.2096  0.2634
26308W        W42382  14.414  10.856  10.845 -0.0574 -0.2169  0.3033
26309W        W42383  10.437   4.469   0.368  0.1915 -0.0649  0.2031
26310W        W42384  17.737  18.326   5.319  0.0093 -0.0526 -0.0360
26311W        W42385   2.356   5.068   0.992  0.1638  0.3077  0.3335
26312W        W42386   4.257   4.691   4.015  0.0593  0.2547  0.1558
26313W        W42387  10.017  10.920  13.439 -0.0294 -0.0097  0.0934
26314W        W42388   3.889  15.566   5.041  0.2035  0.0928 -0.0185
26315W        W42389  15.990   4.391   3.622  0.0722  0.1685 -0.2143
26316W        W42390  14.124   9.012  15.673  0.0585  0.0556  0.1166
26317W        W42391   2.218   0.100  11.036 -0.2904  0.0763  0.3098
26318W        W42392   7.882  11.822  12.744 -0.1303  0.3365  0.0463
26319W        W42393   1.634   3.579   1.577  0.0479 -0.3364 -0.1510
26320W        W42394  18.011   1.380   2.261  0.2017  0.2295 -0.0491
26321W        W42395  17.197  15.996  13.572  0.1958  0.1996 -0.0339
26322W        W42396   4.431   3.215  12.353 -0.0036  0.0800  0.1248
26323W        W42397  14.549   4.445  13.780 -0.2842 -0.2171  0.0090
26324W        W42398   0.992  16.838  13.148 -0.0262  0.0665 -0.3496
26325W        W42399   2.400  14.310  11.233 -0.2698 -0.1427  0.0791
26326W        W42400   9.690  13.777   0.462  0.0346 -0.2427  0.1759
26327W        W42401  11.302   6.288   4.548  0.2013 -0.2869  0.1996
26328W        W42402   7.417   1.806  14.167  0.2046  0.4056  0.3215
26329W        W42403   2.882   7.111   5.115  0.0913 -0.1012  0.2544
26330W        W42404   3.257  15.508   0.980  0.2761 -0.0945 -0.0702
26331W        W42405   5.817  10.264  15.876 -0.0008  0.0345  0.0317
26332W        W42406  11.440  13.936  11.240 -0.1187  0.1586  0.0979
26333W        W42407  16.727   3.715  15.445 -0.4596 -0.1266 -0.0695
26334W        W42408  17.924   5.075   1.732  0.1072  0.4740  0.1607
26335W        W42409   8.299   7.494   3.144  0.1545 -0.1194  0.3104
26336W        W42410   1.341   8.568   0.654 -0.2578  0.1401 -0.1075
26337W        W42411   5.824  13.780   3.253  0.1380 -0.3136  0.5527
26338W        W42412  14.004   3.878   3.542  0.1203  0.1268  0.2314
26339W        W42413   3.367  18.369   2.444  0.2039  0.1071  0.0705
26340W        W42414  15.727   4.215  13.521  0.0421  0.1123  0.0642
26341W        W42415   2.033  15.960  14.313  0.4039 -0.1876  0.2938
26342W        W42416   3.960  16.458  12.994  0.0371 -0.2386  0.0401
26343W        W42417  18.221   2.722   2.405 -0.1388  0.0716  0.4071
26344W        W42418   2.228   5.687  15.552 -0.0587  0.0450  0.0540
26345W        W42419   8.676   6.362   3.607  0.2586  0.2377 -0.2120
26346W        W42420  18.477   0.445  13.245  0.3533 -0.0103  0.0201
26347W        W42421  15.989  12.469  15.603  0.3786  0.2839  0.0107
26348W        W42422   7.818  16.513  11.782 -0.2096 -0.0876 -0.0292
26349W        W42423   7.346  11.108  14.179  0.3210  0.1381  0.0226
26350W        W42424   2.726   0.892   0.840 -0.0746  0.0488  0.0318
26351W        W42425   9.410   3.706  13.735  0.2120 -0.0546  0.0008
26352W        W42426   0.364   9.341   2.308 -0.0295  0.0898 -0.0373
26353W        W42427  11.059   4.086   3.028  0.0050 -0.0298  0.3689
26354W        W42428  10.081  18.395   0.926 -0.0789 -0.2514 -0.0769
26355W        W42429   1.866  16.961  12.586  0.0282 -0.1294 -0.1814
26356W        W42430   0.141   4.506  15.758  0.1155 -0.0641 -0.2842
26357W        W42431   0.694   2.683  12.144 -0.0265  0.1614  0.0780
26358W        W42432  14.389   5.789   0.242 -0.0046  0.3521  0.2434
26359W        W42433  11.651  12.953   0.877  0.1049 -0.0830 -0.0274
26360W        W42434   1.260  15.619   0.052  0.3172  0.3007  0.0813
26361W        W42435   0.908  12.655  15.920  0.2618  0.1117 -0.3743
26362W        W42436  17.784   6.839   2.556 -0.1162 -0.1375 -0.3070
26363W        W42437  14.615   8.528  13.433  0.0437  0.0571  0.2336
26364W        W42438  16.733  12.137   2.805 -0.0694  0.0997 -0.0301
26365W        W42439  14.737   9.044  11.677  0.1011  0.0120  0.0144
26366W        W42440  12.257   9.252  14.581 -0.3146 -0.0704 -0.1650
26367W        W42441  13.429  17.085  13.443  0.1474 -0.5569 -0.2691
26368W        W42442  16.334   4.716  15.931 -0.2713 -0.0744  0.1374
26369W        W42443  16.510  12.421   1.665  0.0243  0.0677  0.0095
26370W        W42444   5.420   7.476   3.513 -0.3844  0.1460  0.2318
26371W        W42445   4.761   0.819  14.396 -0.1540  0.3039 -0.4379
26372W        W42446   5.398  17.143   2.260  0.1640 -0.0089 -0.1882
26373W        W42447   7.107   9.307   3.670 -0.2329 -0.1392  0.0425
26374W        W42448  10.320   0.972   5.673  0.2749 -0.0951  0.0879
26375W        W42449   6.445   9.170  15.448  0.1940  0.1471 -0.2074
26376W        W42450   9.332   2.773   3.026  0.2198  0.0684  0.0202
26377W        W42451   1.602  14.276  13.905 -0.1049 -0.2642 -0.1168
26378W        W42452  13.344  17.122   2.530  0.1485 -0.1445  0.2111
26379W        W42453   3.497   0.538   2.953  0.0730 -0.0717  0.1153
26380W        W42454   3.237   0.976  11.833 -0.0917 -0.1446  0.0090
26381W        W42455   9.797   9.919   1.916 -0.0733 -0.2521 -0.0400
26382W        W42456  10.539   3.715   3.749 -0.1210  0.2881 -0.1282
26383W        W42457   2.296   1.440  14.813 -0.2309  0.1111 -0.2562
26384W        W42458   2.529   7.489   1.803  0.1590  0.1292 -0.0934
26385W        W42459  17.532  17.317   0.656  0.1559  0.1215  0.0573
26386W        W42460   5.645  14.961   1.648 -0.1010 -0.2424  0.0615
26387W        W42461  13.968  11.281  10.759  0.0480 -0.2345  0.2516
26388W        W42462   9.658   9.469   2.161 -0.4905  0.2860  0.1530
26389W        W42463  10.780  17.833  15.381  0.1077 -0.1106  0.2443
26390W        W42464  17.173   2.411   4.472  0.3781  0.0257  0.1742
26391W        W42465   8.068  12.400   5.336 -0.1223  0.1556  0.0201
26392W        W42466  16.051   3.105   0.761 -0.0512  0.1056 -0.0168
26393W        W42467  13.454  16.266   3.312  0.1063 -0.2370 -0.0765
26394W        W42468   2.632   0.415  13.928  0.1577  0.2217  0.1014
26395W        W42469   4.091   5.664  14.352 -0.0111  0.0755  0.0845
26396W        W42470   8.429   3.545   4.338 -0.0103  0.0458 -0.1675
26397W        W42471  10.061   2.931   2.440  0.2414  0.2076 -0.1774
26398W        W42472   1.790  13.234   2.190 -0.0025 -0.0218 -0.0805
26399W        W42473  12.674  16.383   0.405  0.4722 -0.0714  0.3647
26400W        W42474  14.503   6.429  12.541 -0.1144 -0.0703 -0.0617
26401W        W42475   7.480  10.353  14.530 -0.1214  0.1162  0.0687
26402W        W42476  12.251   7.591   3.645  0.2746 -0.0397  0.0479
26403W        W42477  11.301   5.362  15.745  0.0001  0.1431  0.1011
26404W        W42478   5.427  15.227  15.365  0.0124  0.0829  0.2202
26405W        W42479   0.919   6.789   1.854 -0.2490  0.1947 -0.0553
26406W        W42480   3.527   5.996   0.572  0.0306 -0.1418  0.0421
26407W        W42481  17.854  12.878   3.067 -0.1724 -0.0205  0.0043
26408W        W42482   0.649  11.434   5.054  0.0220 -0.0075  0.1051
26409W        W42483  16.214  18.048  12.254 -0.2149 -0.0965 -0.2076
26410W        W42484  13.792   8.549  15.057 -0.1268 -0.0211  0.0146
26411W        W42485   7.345  18.369   4.769 -0.1930 -0.1455 -0.0890
26412W        W42486   4.710   2.029  11.769  0.1957  0.2366  0.2889
26413W        W42487  16.548  16.997   4.884  0.0988  0.2539 -0.3541
26414W        W42488   7.422  11.155   4.057  0.2434  0.0718 -0.0355
26415W        W42489   8.684   0.396   4.971 -0.1392  0.5399 -0.1795
26416W        W42490   0.283   3.248  13.641 -0.0929 -0.1372 -0.1174
26417W        W42491   4.200   8.260   0.754  0.1543  0.3493 -0.2748
26418W        W42492   1.944  13.759   2.119  0.2126 -0.2720 -0.1285
26419W        W42493   9.102   8.299   2.232 -0.3433  0.0787  0.0593
26420W        W42494  14.643  12.232   2.977  0.1494 -0.1220  0.0451
26421W        W42495  16.340   9.912   0.368  0.1128 -0.0433 -0.2674
26422W        W42496   9.526  10.092  14.820  0.0831  0.1471 -0.1099
26423W        W42497   9.342  13.400  12.566  0.2903 -0.0406  0.0798
26424W        W42498  14.031  17.098   2.177 -0.0843  0.0999  0.1338
26425W        W42499   1.888   7.154   2.415  0.2289  0.1730  0.2628
26426W        W42500   3.098   4.820  14.821  0.0107 -0.0577  0.0428
26427W        W42501  14.173   5.968   1.003  0.1857  0.2460 -0.2109
26428W        W42502  13.993   6.570   2.872  0.0176  0.2413  0.5850
26429W        W42503  13.818   9.355  12.138  0.0028 -0.1025  0.1539
26430W        W42504  16.489   7.711  15.253 -0.0586  0.2094  0.2202
26431W        W42505   9.706  17.901   4.679  0.0271 -0.3853 -0.0469
26432W        W42506  18.535   6.555   0.780 -0.2183 -0.2063 -0.0623
26433W        W42507  15.599   1.714  13.695  0.2206 -0.1576  0.1382
26434W        W42508   6.135  15.565  13.201 -0.0716  0.0993  0.0256
26435W        W42509   9.063  18.529  10.748  0.1669 -0.0996 -0.1775
26436W        W42510   5.172  16.654   1.236 -0.0416 -0.1464  0.0757
26437W        W42511   9.843   7.285   4.634  0.0341 -0.1548 -0.1430
26438W        W42512   0.102  12.215  12.272 -0.0544  0.1082  0.0359
26439W        W42513   3.789  13.315  15.629  0.2630  0.0002 -0.0175
26440W        W42514  13.643   5.381  11.785  0.2340  0.1309  0.2725
26441W        W42515  18.045   1.016  13.846  0.0439  0.0359  0.2281
26442W        W42516   9.659  11.304  12.216  0.2050 -0.0742 -0.2486
26443W        W42517  14.496  12.894   2.067 -0.1314  0.0511  0.2597
26444W        W42518  10.880  15.419  13.578 -0.0129 -0.0951 -0.2183
26445W        W42519   0.292   5.770  12.613 -0.1434  0.1642 -0.4561
26446W        W42520   4.874  18.480   0.522 -0.1012  0.1829 -0.4169
26447W        W42521  17.439  17.623  11.614  0.2143  0.1401 -0.1600
26448W        W42522  12.696  15.019   2.381 -0.0373 -0.0904  0.0540
26449W        W42523   9.618   4.311   3.150 -0.1564 -0.0178  0.0070
26450W        W42524   9.242  10.875  14.560 -0.2140 -0.0514 -0.1250
26451W        W42525   9.016  16.817  13.405  0.1072  0.0657  0.0338
26452W        W42526  14.169  17.292   0.098 -0.1819  0.0303 -0.0695
26453W        W42527   6.055   3.894   4.134  0.0575  0.1371 -0.0661
26454W        W42528   4.699  16.214   0.012 -0.1681 -0.0964 -0.2934
26455W        W42529   4.501   3.766  14.524 -0.1786 -0.1049 -0.0912
26456W        W42530   7.647  13.136   0.093 -0.0577  0.2452  0.4532
26457W        W42531   3.401   2.592   3.491  0.0669 -0.5125 -0.0341
26458W        W42532   7.336   7.625  12.790 -0.1168 -0.1658  0.1118
26459W        W42533  13.791  14.145   3.484  0.0945  0.0162  0.3029
26460W        W42534  13.676  11.224   0.999  0.1212  0.1337  0.1010
26461W        W42535  17.650   4.369  11.676 -0.0883  0.0809  0.1307
26462W        W42536  13.266  14.516  11.139 -0.1887 -0.1459 -0.1538
26463W        W42537  17.118   1.473  11.174  0.1974  0.0323 -0.0428
26464W        W42538  13.965   8.902  13.023 -0.1389 -0.2478 -0.0998
26465W        W42539  13.308  13.107  12.199  0.2053 -0.1617 -0.2434
26466W        W42540  12.755   0.579   0.572 -0.2752 -0.1187  0.0132
26467W        W42541  13.891  15.553   4.554 -0.0912  0.0328 -0.2033
26468W        W42542   7.159   7.236   1.550  0.2045  0.2729  0.2048
26469W        W42543  15.045   9.001   1.202 -0.0208 -0.1609  0.1324
26470W        W42544   3.826  14.167  15.183  0.2560 -0.3641  0.1989
26471W        W42545  15.493   6.988  14.432  0.0913 -0.1106 -0.2617
26472W        W42546   3.570   0.308   5.675  0.1347 -0.0519 -0.1963
26473W        W42547  12.776  14.061  11.487  0.1211 -0.1905  0.1227
26474W        W42548   1.657   9.719   3.463  0.0291 -0.5022 -0.1205
26475W        W42549  11.585  13.200  11.451  0.0593  0.0438 -0.0536
26476W        W42550  16.854   5.902   6.250 -0.2231 -0.1280 -0.1149
26477W        W42551  12.808  10.929  15.827 -0.0046  0.0934 -0.0219
26478W        W42552   9.714  16.243   1.536 -0.0123 -0.0569  0.2606
26479W        W42553  12.203   4.403   0.016  0.0857  0.1087 -0.1623
26480W        W42554   2.356   0.948  12.990  0.1052  0.1010  0.2871
26481W        W42555   6.730   2.248  15.172 -0.1956 -0.2086 -0.1047
26482W        W42556   6.207  12.479  11.698  0.0329 -0.0033 -0.1368
26483W        W42557  10.632  13.623  15.524  0.1495  0.1011 -0.0806
26484W        W42558   5.145  16.666  15.200  0.1439  0.1067  0.3588
26485W        W42559  17.297  11.687  12.111 -0.1225  0.2500 -0.1015
26486W        W42560   2.682  10.479  11.973 -0.1139 -0.0003 -0.1483
26487W        W42561   1.754   4.393   2.047 -0.1025 -0.0614 -0.0477
26488W        W42562   0.579   8.535   0.999  0.0106 -0.2703 -0.2898
26489W        W42563   0.713  18.388  12.350 -0.1682  0.1120 -0.0002
26490W        W42564  10.064   9.883  11.962  0.2263 -0.0083  0.0713
26491W        W42565   6.735   6.506  12.240 -0.2241  0.2276 -0.0884
26492W        W42566  12.120  18.258   3.391 -0.0922 -0.0261 -0.0028
26493W        W42567   0.023   0.855   0.461  0.1239  0.1946 -0.1130
26494W        W42568  16.307  16.191  13.830  0.0153 -0.1028 -0.5435
26495W        W42569   0.181   1.394   2.126 -0.0319  0.0462  0.0589
26496W        W42570   6.541   9.322  15.979  0.2631  0.4367  0.3578
26497W        W42571   5.301   4.908   2.363 -0.2210 -0.0689 -0.1108
26498W        W42572   8.433   4.837   5.922  0.2941  0.1463 -0.1582
26499W        W42573  11.674  16.666   3.833  0.2316 -0.0704  0.2517
26500W        W42574  14.317   1.485  10.765 -0.2743 -0.0684  0.0006
26501W        W42575  13.572   0.522  11.472 -0.0033 -0.2100  0.0084
26502W        W42576  12.310   4.589   3.590 -0.1362 -0.3769 -0.2860
26503W        W42577  11.481   8.612  14.149  0.2670 -0.1729 -0.0308
26504W        W42578  17.619  17.100  13.963  0.1409 -0.0089  0.2021
26505W        W42579  12.955   3.620  13.584  0.1245  0.3084 -0.2956
26506W        W42580   0.137  14.796   2.515 -0.2907 -0.0697  0.0656
26507W        W42581  12.202  10.072  14.781  0.1307 -0.0221 -0.2675
26508W        W42582   2.048  13.616  14.381  0.1914 -0.0109 -0.1078
26509W        W42583   9.419  12.052  11.633 -0.0559 -0.1255 -0.0620
26510W        W42584   9.471   5.771  13.549 -0.1031 -0.1321  0.1531
26511W        W42585  16.772  11.682  13.015  0.0101  0.0507  0.0050
26512W        W42586  11.242   2.370  13.020  0.2438  0.2796  0.0810
26513W        W42587  10.074   0.395  12.727  0.4687 -0.3201  0.0874
26514W        W42588   7.782   6.867   3.873 -0.2081 -0.0524  0.1062
26515W        W42589   3.116  14.220  14.338 -0.2249  0.2185  0.3809
26516W        W42590   0.141   7.488  15.709 -0.2017  0.2398 -0.0826
26517W        W42591   8.380   6.604   3.294  0.4477  0.0633 -0.0948
26518W        W42592   6.079  12.756   4.433 -0.0130  0.0665  0.1688
26519W        W42593  16.217  10.394   0.828 -0.4217 -0.0133  0.2592
26520W        W42594   4.490   4.952   1.277 -0.0139  0.2474  0.1516
26521W        W42595  12.609   9.839  14.660 -0.1405 -0.1925 -0.3400
26522W        W42596  13.249   4.484  15.272 -0.0751  0.2187  0.1847
26523W        W42597  16.105   8.264   2.521  0.1226 -0.0843 -0.0814
26524W        W42598  12.771  12.947  15.934 -0.0561  0.0344 -0.1998
26525W        W42599  17.594  11.733  11.698  0.2201 -0.2387  0.2847
26526W        W42600   2.731  16.603   3.246  0.3319 -0.1351 -0.2605
26527W        W42601   5.099  16.232   6.063  0.3429 -0.2684  0.0193
26528W        W42602   8.870   5.781  15.372  0.1554  0.0130  0.0522
26529W        W42603   4.934   3.352   5.196  0.0976  0.1383 -0.1555
26530W        W42604  17.016  18.017  11.462  0.2415 -0.2185 -0.2355
26531W        W42605   5.349  14.026   0.728 -0.3181  0.1133  0.2921
26532W        W42606  17.112  10.291   4.164  0.0128  0.3324 -0.0343
26533W        W42607  13.897   7.541   4.450 -0.2221 -0.1358  0.0095
26534W        W42608  15.785  13.157  12.141 -0.1599  0.0418  0.1560
26535W        W42609  10.700  18.479   3.116 -0.0706  0.1528 -0.2225
26536W        W42610  15.336   5.375  12.950  0.0621  0.2624  0.2800
26537W        W42611   9.232  13.219   2.718  0.0601  0.3313  0.0982
26538W        W42612   1.438  16.843   0.911 -0.1328 -0.1610 -0.0213
26539W        W42613   0.741  11.904   5.308  0.2338  0.1825 -0.1262
26540W        W42614   0.418   6.323  14.334 -0.0372 -0.0201 -0.1684
26541W        W42615  11.657  17.536  14.132  0.1021 -0.3198 -0.0134
26542W        W42616   0.145   3.838   0.257  0.8096 -0.2242  0.0692
26543W        W42617  14.757   0.839   3.530 -0.0406 -0.1354  0.1560
26544W        W42618  10.907   0.840  13.101 -0.0331  0.0074 -0.0421
26545W        W42619   8.094   9.707   4.084 -0.0886 -0.2366 -0.3855
26546W        W42620   2.543   5.083  13.083 -0.0703  0.1206 -0.1788
26547W        W42621  14.559   7.128   0.092  0.1511  0.2693 -0.0657
26548W        W42622   1.435  13.198  13.021  0.0845 -0.0786  0.0282
26549W        W42623   1.541   7.372  13.368  0.1525  0.0239 -0.4772
26550W        W42624   3.897   6.803   1.020  0.2072  0.0618  0.1980
26551W        W42625   5.271   5.003   3.746 -0.0334  0.0074  0.2265
26552W        W42626   2.895   8.036  15.513 -0.0115 -0.0618  0.2190
26553W        W42627  16.619   9.558  13.168  0.1565 -0.0188  0.0184
26554W        W42628  18.327  18.217  13.869  0.1997 -0.1820  0.0853
26555W        W42629  13.512   1.216  12.082  0.1412 -0.2400  0.0845
26556W        W42630   5.833   2.231  13.973 -0.1160 -0.2414 -0.2056
26557W        W42631   9.831  16.639   2.012 -0.2109 -0.2666  0.2274
26558W        W42632   7.255   0.512   1.439 -0.0058 -0.0871  0.1054
26559W        W42633   3.958   5.514  13.359 -0.2423  0.0928 -0.0911
26560W        W42634  14.647   5.615  12.858  0.1492 -0.0430 -0.1018
26561W        W42635   5.872  15.057   2.128  0.2268  0.0121  0.2224
26562W        W42636   8.038   3.121   5.353  0.3239 -0.0098  0.1012
26563W        W42637   2.852   1.658   0.519  0.0450 -0.1184 -0.3248
26564W        W42638   1.808   2.019  11.585  0.1872 -0.1175 -0.1184
26565W        W42639   6.374   7.903   2.448  0.2034  0.0617 -0.1975
26566W        W42640   3.066  13.357  13.271  0.1111  0.0559 -0.0523
26567W        W42641  18.388   4.398   2.061  0.2100  0.2307  0.0387
26568W        W42642   7.788  15.300  11.088 -0.2934  0.1926 -0.0021
26569W        W42643  11.565  11.115   2.424  0.0060  0.4194 -0.1547
26570W        W42644  14.307   6.224   2.170  0.4536  0.1715  0.0767
26571W        W42645   7.775  15.731  15.152 -0.0589 -0.0185 -0.2424
26572W        W42646   0.342   2.732   4.642 -0.0158 -0.2180 -0.0382
26573W        W42647   0.959   8.782  11.893  0.2581 -0.0108 -0.2012
26574W        W42648  10.102   9.619  13.895  0.3436 -0.0015  0.4021
26575W        W42649  13.091  11.735   1.524  0.0875 -0.2645 -0.1017
26576W        W42650  17.517  12.953  11.695  0.1977  0.0114  0.2363
26577W        W42651   7.061   1.759  15.521  0.0457  0.1229 -0.1463
26578W        W42652  15.770  15.992   4.476 -0.0162 -0.1961 -0.1130
26579W        W42653   3.714  11.776   0.839 -0.1894  0.3028 -0.2794
26580W        W42654   3.143   7.262  14.786  0.0901 -0.3246 -0.0394
26581W        W42655   7.473  13.766  11.133  0.1052  0.2529 -0.0565
26582W        W42656  16.253  17.328   1.836 -0.1164  0.1172  0.1167
26583W        W42657  12.033  14.832  13.199  0.3459 -0.5565 -0.2037
26584W        W42658  18.246   2.562   5.289  0.2959  0.0395 -0.2598
26585W        W42659   5.801   9.836   4.695  0.2417  0.0860  0.1257
26586W        W42660  12.420  16.456  10.906  0.0212 -0.1124  0.0252
26587W        W42661  12.411  17.774  10.793 -0.0873 -0.0142  0.2203
26588W        W42662  17.890  13.464  11.585  0.3060 -0.2805  0.2497
26589W        W42663  14.545   8.885   1.923  0.1915 -0.1263 -0.0466
26590W        W42664  17.217  18.500   1.122 -0.0071  0.1694  0.0222
26591W        W42665   3.491  14.360  15.790  0.1851  0.3784  0.3095
26592W        W42666  16.476   9.281   6.129 -0.0551  0.2980  0.0162
26593W        W42667  13.359   0.395   3.181  0.2242  0.1814  0.0769
26594W        W42668   8.986  17.850  12.602 -0.2020 -0.1029 -0.0146
26595W        W42669  13.086   4.420  15.745 -0.4679 -0.0969  0.0639
26596W        W42670   8.219  14.315  12.002  0.0432 -0.1937  0.0071
26597W        W42671   7.178  15.109   0.466 -0.2285 -0.0482 -0.1193
26598W        W42672   5.747  10.797   2.696 -0.2277 -0.0313 -0.1150
26599W        W42673   6.320   2.216   4.175  0.1832  0.0995 -0.2506
26600W        W42674  17.041  17.951  15.203 -0.0233 -0.3433 -0.0514
26601W        W42675   0.200  10.464   6.025 -0.0355 -0.0504 -0.2333
26602W        W42676  16.160  18.212  13.504  0.1899  0.2804 -0.1820
26603W        W42677   1.862   9.292   2.644 -0.0397  0.4074 -0.1421
26604W        W42678   9.763  17.101  15.069  0.0274 -0.1835  0.1246
26605W        W42679   0.275  17.416  13.665 -0.1235  0.1918 -0.0609
26606W        W42680  14.522  14.088  13.769  0.1570  0.0322 -0.1714
26607W        W42681  12.135   7.856   4.554  0.3026 -0.0632  0.0810
26608W        W42682   4.118  18.120  14.471 -0.0983 -0.2150 -0.2095
26609W        W42683  17.770   9.773  11.211 -0.2440  0.0493  0.1517
26610W        W42684   3.482  17.161  13.206  0.2665 -0.1564  0.1705
26611W        W42685  11.619  14.076  11.987  0.1484 -0.0525  0.1542
26612W        W42686   4.615  16.616   3.860 -0.0135 -0.3247 -0.2641
26613W        W42687   1.141  13.596  13.048 -0.1520 -0.1934  0.2564
26614W        W42688  15.548  17.763   3.607 -0.0174  0.0206  0.2274
26615W        W42689  17.048   7.224  14.092 -0.1263  0.0155  0.2400
26616W        W42690   6.966   5.441  11.680  0.1542  0.1825  0.2819
26617W        W42691  11.616  13.360   4.895 -0.0407 -0.1798  0.2110
26618W        W42692   8.786  16.592  12.717 -0.0168 -0.1365 -0.0448
26619W        W42693   9.350   1.822   4.316 -0.0368  0.2127 -0.1487
26620W        W42694  11.133   6.839  15.680 -0.2650 -0.1831  0.1270
26621W        W42695  17.334   5.629  11.772  0.0281  0.1449 -0.0434
26622W        W42696  14.421  11.025  12.310  0.1118 -0.3013  0.4081
26623W        W42697  15.521   3.267   0.788 -0.0188 -0.3865 -0.1245
26624W        W42698  13.392   6.418   4.155  0.2452 -0.0706  0.5819
26625W        W42699   1.465   7.992   4.816  0.2639  0.0961 -0.2070
26626W        W42700   9.570   5.451   0.738 -0.0360 -0.1463  0.1678
26627W        W42701   8.072  14.743  13.149 -0.3645 -0.0036 -0.2206
26628W        W42702   3.140  12.041   3.673  0.0586 -0.0833 -0.0257
26629W        W42703   2.053  10.151  11.512  0.0792  0.2861 -0.2596
26630W        W42704  16.122   0.547   1.976 -0.0125  0.3094  0.4951
26631W        W42705  13.304   8.768   2.332 -0.0388  0.2390  0.1115
26632W        W42706  18.404   3.417   5.453 -0.1500 -0.2883  0.0190
26633W        W42707   5.909   7.218   5.841  0.0013 -0.1224  0.3256
26634W        W42708   4.806  17.439   1.444  0.0502 -0.1166 -0.1705
26635W        W42709  16.259   3.903   2.318 -0.2685  0.0999  0.1583
26636W        W42710   7.999   0.641   2.624  0.2185 -0.1277 -0.2071
26637W        W42711  17.899   0.945   4.807 -0.0623 -0.0323  0.3159
26638W        W42712  15.183   7.002  13.509  0.0411  0.0294 -0.2270
26639W        W42713  10.363   6.750  11.530 -0.1613 -0.1439  0.1741
26640W        W42714   5.849  14.396   0.865 -0.1371 -0.1328 -0.1255
26641W        W42715   5.941  11.414   2.044  0.0163 -0.0056 -0.3441
26642W        W42716  17.622  13.422   1.588  0.2447 -0.0218 -0.0988
26643W        W42717   1.244   9.380   5.284  0.2557 -0.1161  0.0703
26644W        W42718   3.687  13.320   2.825  0.2499  0.1539  0.3127
26645W        W42719   4.115   1.257   2.469 -0.1315  0.0883 -0.1512
26646W        W42720   4.665   3.695  15.930 -0.1463 -0.3874 -0.0950
26647W        W42721  18.433   9.859   3.561 -0.0877  0.0446 -0.0697
26648W        W42722   6.954   2.514   3.262  0.2738 -0.0686 -0.2887
26649W        W42723   5.596  12.176   0.454 -0.3428  0.1228  0.0472
26650W        W42724   8.759  11.408   4.770  0.1235  0.1226  0.0360
26651W        W42725   8.600   2.118   4.610  0.1448 -0.1884  0.2650
26652W        W42726   6.027   7.297  11.733  0.1281  0.0731 -0.1327
26653W        W42727   9.966  14.235  14.164 -0.1008 -0.0154  0.2988
26654W        W42728  15.472   3.801   1.474 -0.2121 -0.1123 -0.5275
26655W        W42729  11.814  11.883   5.788  0.1875  0.2410  0.0334
26656W        W42730  17.360   4.069  13.619 -0.2296  0.2379  0.4125
26657W        W42731  11.471   6.113  12.933  0.0195 -0.2115  0.1107
26658W        W42732   8.099   7.361   3.881  0.3859 -0.1763  0.3412
26659W        W42733   0.414  11.197  15.733  0.0715 -0.1325 -0.0462
26660W        W42734   8.060  18.221   0.106 -0.1776  0.0222  0.0487
26661W        W42735   2.563   3.288   4.655  0.1294  0.2381 -0.3546
26662W        W42736  14.541   3.900   1.285 -0.1584 -0.0841 -0.0577
26663W        W42737   8.353   3.506  15.114  0.2085 -0.0582  0.0345
26664W        W42738   5.091   8.988  13.793  0.0774 -0.0508  0.0412
26665W        W42739   9.125   3.466  15.487 -0.1207 -0.1907 -0.2536
26666W        W42740  11.256  10.045   5.337  0.0308  0.2847  0.0126
26667W        W42741   6.699   6.365  13.755 -0.0661 -0.2240  0.1869
26668W        W42742  12.586  15.486   6.223  0.2603 -0.1106  0.1169
26669W        W42743   4.239   6.455   0.768 -0.2007 -0.0349 -0.2256
26670W        W42744   1.314   3.104  14.962 -0.1253  0.0567  0.1001
26671W        W42745  17.189   4.511   2.246  0.1399  0.2422 -0.2335
26672W        W42746  13.460   0.265  13.198 -0.1674  0.1930 -0.1957
26673W        W42747   1.064   3.953   3.825  0.2366 -0.0302  0.1291
26674W        W42748   9.355   8.719  14.351 -0.0746  0.1225 -0.2638
26675W        W42749   7.741   5.078   2.247 -0.3273 -0.1098 -0.2158
26676W        W42750  16.546  12.168   0.296 -0.1340  0.0381 -0.0977
26677W        W42751   6.648  15.121  10.814 -0.0193 -0.3999 -0.4984
26678W        W42752   8.985   7.196  12.968 -0.0677  0.0951 -0.0869
26679W        W42753   8.981   6.841   0.598  0.0071 -0.1594 -0.4603
26680W        W42754  16.962  17.209   2.307  0.3684 -0.1102  0.2850
26681W        W42755   7.776   3.917   1.247  0.0456  0.3035 -0.1105
26682W        W42756   7.211  14.684  13.962 -0.0604 -0.2460 -0.0066
26683W        W42757   2.809   0.618   1.560  0.2138  0.0297 -0.0360
26684W        W42758   4.518  12.942  14.590 -0.0489 -0.0358  0.0471
26685W        W42759   9.232  13.008   4.240 -0.0968  0.1067  0.1185
26686W        W42760  16.409   4.507  13.444  0.0798  0.2695  0.0244
26687W        W42761   5.089   6.580   0.315 -0.0554  0.1355  0.1693
26688W        W42762  16.585  13.056   2.687 -0.0795 -0.0041  0.1837
26689W        W42763  11.712  16.639  15.188  0.0166  0.1830 -0.0737
26690W        W42764  15.461  17.146  11.930 -0.1394  0.0466  0.2176
26691W        W42765  16.254   4.436   0.934 -0.2589  0.1563  0.1050
26692W        W42766  10.155   9.991  13.348 -0.1387  0.0515 -0.0847
26693W        W42767   6.001  12.239   3.223 -0.3417 -0.0190  0.0336
26694W        W42768  16.322   6.707   4.249  0.1018  0.1726  0.1193
26695W        W42769   0.956   0.444  11.597 -0.0779 -0.0379 -0.1778
26696W        W42770   6.868   2.456   0.298 -0.3419 -0.0881 -0.1999
26697W        W42771   5.416   4.687   3.121 -0.2199  0.1221 -0.0439
26698W        W42772   6.158  17.783   2.196  0.2341  0.1545  0.0121
26699W        W42773   3.236  10.095   4.709  0.0863  0.2407 -0.1386
26700W        W42774   3.439  13.432   4.340 -0.0803  0.3878  0.2258
26701W        W42775   2.513   9.752  14.721  0.1220  0.1168  0.0360
26702W        W42776   2.203  15.132   0.233 -0.0034 -0.4189  0.3965
26703W        W42777  10.723   5.542   4.968 -0.0217  0.0223  0.2581
26704W        W42778   7.115  17.881   4.459  0.0608  0.1277  0.1390
26705W        W42779   5.439   3.520   0.700 -0.1544 -0.1207 -0.1056
26706W        W42780   7.235   8.135   2.074  0.1400  0.2311 -0.0394
26707W        W42781   7.904   2.195   1.321 -0.0702  0.0131  0.1605
26708W        W42782  17.538   5.751   1.265 -0.0725 -0.0278  0.2523
26709W        W42783  14.893   9.282  15.652  0.2068  0.0904 -0.2204
26710W        W42784  12.825   8.266  15.167  0.0847  0.0937  0.1748
26711W        W42785  16.852  17.247  14.668  0.0338  0.0661  0.0871
26712W        W42786   2.840  18.396  15.197 -0.3209  0.4941  0.2383
26713W        W42787   6.028  13.661   2.812  0.3726 -0.1434 -0.0122
26714W        W42788  14.236   8.024  14.131  0.0015  0.1942 -0.2213
26715W        W42789   5.190   7.289   2.170  0.1998 -0.0776 -0.0193
26716W        W42790   8.204   9.347   3.769 -0.0024 -0.0168 -0.2393
26717W        W42791  17.052  14.377  14.591  0.5179 -0.1098  0.1927
26718W        W42792   2.933  12.567  13.184  0.2253  0.0486  0.1392
26719W        W42793  10.264  13.980   3.433 -0.0156  0.0753  0.2026
26720W        W42794   2.297  17.305  11.354  0.1164  0.1350 -0.0683
26721W        W42795   8.677   9.841  13.816 -0.3829  0.2837  0.2281
26722W        W42796   2.566  11.741  13.407  0.0086 -0.0068  0.1208
26723W        W42797  12.239   5.779   5.470 -0.1674 -0.0402 -0.2715
26724W        W42798  18.334   6.055  12.716  0.0531  0.1805 -0.0476
26725W        W42799   7.352  16.791  15.288  0.1189  0.0967 -0.0316
26726W        W42800   0.660   1.163  15.022 -0.1091 -0.1244  0.1794
26727W        W42801  11.999  14.721  11.881  0.0713 -0.1366 -0.1196
26728W        W42802   1.901  12.053  12.596  0.2899  0.0539  0.0796
26729W        W42803  18.175   5.816  13.406  0.1585 -0.0503 -0.2065
26730W        W42804  10.668  14.755  13.138 -0.0507 -0.1128 -0.1323
26731W        W42805  16.217   5.827   6.054  0.4563  0.1636  0.2573
26732W        W42806   8.692  14.816   0.566  0.0617 -0.2380  0.1174
26733W        W42807   1.890   1.057  11.715 -0.2604  0.2464 -0.1928
26734W        W42808  13.687  14.620  11.342  0.3568 -0.2526 -0.0886
26735W        W42809  16.805  13.460  13.669  0.0124 -0.0418 -0.2723
26736W        W42810   6.921  14.249   0.352  0.0748  0.1301  0.1135
26737W        W42811  18.533  18.004   0.116  0.1746  0.0515 -0.1390
26738W        W42812   0.588   7.402  12.204  0.0608 -0.2348 -0.0774
26739W        W42813   9.263  17.670  13.053  0.2435  0.2514 -0.0447
26740W        W42814   1.944   6.733   4.458  0.1356 -0.2159 -0.0855
26741W        W42815  14.376   5.242  14.100  0.0109  0.0658  0.0875
26742W        W42816  17.693   5.141  12.744  0.0988  0.1588 -0.0548
26743W        W42817  10.802  15.867  13.976 -0.0812 -0.2672  0.0813
26744W        W42818  11.611  12.543   5.067  0.0793 -0.0170  0.0469
26745W        W42819  10.874   3.069   4.927  0.2881 -0.0730  0.1777
26746W        W42820  13.094  12.305   1.393  0.2956 -0.0526  0.0581
26747W        W42821  16.214  11.374   2.346  0.1403  0.2033 -0.0425
26748W        W42822   7.877   5.001  14.834  0.1027 -0.0331  0.1822
26749W        W42823  14.022   4.222  10.933  0.0364 -0.2247 -0.3556
26750W        W42824  17.447  12.790   2.263 -0.2983  0.0282  0.1923
26751W        W42825  17.270   4.953   4.025 -0.4171  0.0599  0.3132
26752W        W42826  13.474  13.322   1.029 -0.2335  0.3379 -0.5331
26753W        W42827   5.342   7.317  13.543 -0.1844 -0.0419 -0.0236
26754W        W42828   4.529   7.755  12.972 -0.2668 -0.1782  0.1721
26755W        W42829   6.036   8.702   4.873  0.2677 -0.0795  0.1131
26756W        W42830   1.699  16.726   5.112  0.0073  0.2907 -0.1333
26757W        W42831  17.429  12.836  13.533 -0.0756 -0.1896 -0.0392
26758W        W42832   3.595   1.423  12.677  0.1730 -0.0024  0.2994
26759W        W42833  17.026  14.537  12.660 -0.0694 -0.0571 -0.1936
26760W        W42834  10.539   0.657  14.548 -0.1331 -0.2295  0.2219
26761W        W42835  11.044   5.880   4.746  0.1238 -0.0259  0.0454
26762W        W42836  12.205   4.004  13.356 -0.0303  0.0509 -0.0104
26763W        W42837   3.958   8.279   2.320  0.4466 -0.2333 -0.4219
26764W        W42838  16.848  11.750  10.969  0.0207 -0.0433 -0.3879
26765W        W42839   8.177   8.574   2.320  0.1071 -0.2880 -0.1244
26766W        W42840   3.285   1.538   1.300 -0.1577  0.0089  0.1020
26767W        W42841   8.841  13.367   0.842 -0.3686 -0.1990 -0.1054
26768W        W42842   4.232  15.486   1.616 -0.0286  0.2449 -0.1276
26769W        W42843   5.450  15.317   2.352  0.1655 -0.1973  0.2887
26770W        W42844   9.303  18.210   4.577  0.0012 -0.1820  0.2685
26771W        W42845  17.515   1.345   1.321 -0.0257  0.0690 -0.0073
26772W        W42846  12.510   9.490  12.742  0.0318  0.1405  0.1042
26773W        W42847   6.358  14.232  14.152  0.0887 -0.1110  0.2360
26774W        W42848  12.297   2.375  12.352 -0.1562 -0.0599 -0.0170
26775W        W42849  14.097   3.022  12.679 -0.2009  0.0612 -0.1409
26776W        W42850  16.326  16.170  14.583 -0.1940 -0.0451 -0.1367
26777W        W42851   3.399  15.939   9.951 -0.3076 -0.2619  0.2337
26778W        W42852   7.834   5.997   1.207 -0.0192 -0.0685 -0.0008
26779W        W42853  11.374   7.494   1.458  0.1217 -0.0632 -0.1582
26780W        W42854   1.429   7.262  14.681  0.0626 -0.0813  0.0609
26781W        W42855   6.696  10.931   4.945  0.2418  0.2801 -0.0684
26782W        W42856  13.720   4.601  12.174  0.1859  0.1307 -0.3533
26783W        W42857  16.794  15.269   4.992 -0.3319  0.0176  0.1906
26784W        W42858  17.250   7.309  15.201  0.2674 -0.0857  0.2288
26785W        W42859   0.046   1.166  12.510  0.2870  0.2061 -0.0542
26786W        W42860   0.303   1.903   3.729  0.0990  0.1513 -0.2820
26787W        W42861   8.661   4.354  15.474 -0.0580  0.0350  0.0532
26788W        W42862   6.741  15.902   3.175 -0.1549  0.1010  0.1084
26789W        W42863  16.596  13.616   3.627 -0.0229 -0.5316  0.3824
26790W        W42864  14.648   0.155  12.108 -0.3525 -0.1442  0.3280
26791W        W42865  11.653   5.362  14.137  0.1904 -0.1656  0.0897
26792W        W42866  14.317  15.333   5.388  0.1554  0.2462 -0.1212
26793W        W42867   5.481  12.413  12.710 -0.2715 -0.4012 -0.0130
26794W        W42868  18.348  12.059   0.805  0.2986 -0.0502 -0.1551
26795W        W42869   2.487   6.100   4.771  0.2974 -0.0192  0.5988
26796W        W42870  17.465   0.478   5.119  0.3084  0.0108  0.1711
26797W        W42871  16.055  10.226  15.925  0.0378 -0.2078 -0.0971
26798W        W42872  16.991   0.275  13.608 -0.1130 -0.1236 -0.2315
26799W        W42873  10.780  10.698   6.085 -0.0217 -0.0699  0.0709
26800W        W42874   9.686   1.215  13.696  0.0121 -0.1069  0.3831
26801W        W42875   6.030   8.143   1.486 -0.1929 -0.0170 -0.0385
26802W        W42876   5.833   6.029   1.677  0.0754  0.0623  0.0907
26803W        W42877   0.545  11.671   3.473  0.1355 -0.1399 -0.0597
26804W        W42878  12.913   8.636   0.674  0.0682  0.1487 -0.1522
26805W        W42879  12.169  15.430  11.932 -0.0594  0.2490 -0.0643
26806W        W42880  12.558  17.330  15.577 -0.1851  0.2410  0.0034
26807W        W42881   2.821  13.035  14.604 -0.1790 -0.2674 -0.0303
26808W        W42882   5.542  12.500   4.212 -0.1478 -0.1949  0.2122
26809W        W42883   1.799   0.575   4.273 -0.0340  0.0861 -0.2754
26810W        W42884  16.849  12.060  15.576  0.0183 -0.1334  0.2919
26811W        W42885  11.788   2.662  14.958  0.2192 -0.1552 -0.1021
26812W        W42886   1.441   8.242  15.913 -0.2594 -0.1142 -0.2686
26813W        W42887  12.222  17.835  14.165 -0.1091 -0.4958  0.0397
26814W        W42888   0.913  15.858   5.803 -0.0134  0.0719 -0.1598
26815W        W42889  18.036  13.525   2.496  0.0041 -0.2150 -0.2569
26816W        W42890  12.998   7.887  12.882  0.1082  0.3089  0.1767
26817W        W42891   9.983  13.968  14.733  0.0154 -0.3267 -0.2134
26818W        W42892   1.398  16.972   4.095  0.2483 -0.0982  0.1953
26819W        W42893   3.725   4.642  15.491 -0.0314 -0.1634  0.1100
26820W        W42894  15.930  11.613  15.988  0.1308 -0.1490  0.1303
26821W        W42895  18.433  17.382   4.090 -0.5370  0.0677  0.1238
26822W        W42896   0.900   6.858   5.864 -0.3230  0.1638  0.0039
26823W        W42897  15.104  15.025  11.364 -0.2085  0.3261  0.1011
26824W        W42898  16.185   8.989  13.983 -0.1618 -0.0464 -0.0038
26825W        W42899  10.195  14.463   1.607  0.1838  0.1116  0.0634
26826W        W42900  13.803   0.023   1.874  0.2408  0.0946 -0.1230
26827W        W42901   1.371   3.656   1.191  0.0431  0.2424  0.0463
26828W        W42902  17.695   9.067  15.751  0.1936  0.0316  0.5104
26829W        W42903  12.609  15.549  11.788 -0.1609  0.0943  0.1309
26830W        W42904   8.829  13.139  15.432  0.3002 -0.2062  0.2660
26831W        W42905   9.839   6.497  11.367 -0.2597 -0.2705  0.2427
26832W        W42906  10.501  13.472  14.253 -0.1251 -0.0067  0.1967
26833W        W42907  14.347   7.706   2.672 -0.1508 -0.2968 -0.3440
26834W        W42908  15.998   3.484  15.959  0.1364  0.0930  0.0924
26835W        W42909  11.330  13.084  15.565  0.2273 -0.1053 -0.0611
26836W        W42910   4.196   8.190  14.444  0.1701 -0.0287 -0.0615
26837W        W42911  17.293   2.470   5.661 -0.1273 -0.0323  0.0178
26838W        W42912  16.753   5.116  13.746 -0.2631 -0.3512  0.1814
26839W        W42913  13.962  18.188  15.781 -0.1111 -0.0483  0.0271
26840W        W42914  12.783   5.873  11.699  0.1316 -0.1573  0.0536
26841W        W42915   7.849  13.217   1.024 -0.3806 -0.0357  0.0472
26842W        W42916  12.044  16.090  12.476  0.0222  0.3172 -0.0203
26843W        W42917  10.842  13.967   4.876  0.2953  0.1545 -0.0093
26844W        W42918  16.147   2.310  12.984  0.0048  0.0073  0.5712
26845W        W42919  13.630   5.002   5.437  0.0659  0.0865 -0.2456
26846W        W42920   5.671   9.177  10.982 -0.2141 -0.3020 -0.2517
26847W        W42921   8.881   0.203   2.988  0.0160 -0.1182  0.2626
26848W        W42922   5.655  18.044   2.958 -0.0756  0.2600 -0.2462
26849W        W42923  11.223   1.442  14.484  0.1963  0.1364 -0.0397
26850W        W42924  17.787  18.530  15.903 -0.2689 -0.2652 -0.1442
26851W        W42925   0.613   7.807   2.044  0.2876 -0.0754 -0.1967
26852W        W42926   3.412   0.119  13.583 -0.1109 -0.1500 -0.1656
26853W        W42927   4.167   1.198  13.432  0.1959  0.2108 -0.0799
26854W        W42928  17.513  16.876  12.000 -0.0582  0.1102  0.1046
26855W        W42929  15.969  18.402   1.214 -0.0545  0.0034  0.0542
26856W        W42930   9.337   2.134  11.048 -0.0996  0.1264 -0.0356
26857W        W42931  15.024  13.320  15.679  0.0025 -0.3222  0.3908
26858W        W42932   4.678   1.631  12.619  0.0695 -0.1260 -0.2547
26859W        W42933  10.056  18.261   4.503  0.2859 -0.0636  0.2110
26860W        W42934   3.913   8.698   3.796 -0.0837 -0.0070  0.1000
26861W        W42935  12.274  14.611   4.378 -0.1685  0.2425 -0.1047
26862W        W42936   1.237   0.774  14.082  0.2285  0.1413 -0.1671
26863W        W42937  11.470  18.469  10.878  0.0356 -0.1621 -0.0678
26864W        W42938   1.954  11.288   0.772 -0.2319 -0.2104  0.0178
26865W        W42939   6.824  18.327  10.973  0.3643  0.3083 -0.2181
26866W        W42940   0.160  16.741   2.420  0.4004  0.0757  0.0664
26867W        W42941   5.212   3.612  11.738 -0.2591 -0.3452 -0.0725
26868W        W42942   7.048   3.048  15.649  0.0147  0.1168  0.1158
26869W        W42943   7.136  12.401  15.363 -0.1719  0.0791 -0.0779
26870W        W42944   2.781  10.185  13.747 -0.0410  0.1321 -0.0484
26871W        W42945  17.724   5.104   4.892 -0.0587 -0.0233 -0.1927
26872W        W42946   6.663  10.134   2.595  0.2260 -0.0762  0.0091
26873W        W42947  18.504  16.611  15.450  0.1848  0.1006 -0.1669
26874W        W42948   1.212  15.429   2.828  0.0420 -0.0085 -0.0757
26875W        W42949  16.384   6.355  14.052 -0.0229  0.1203 -0.0493
26876W        W42950   3.267  17.687  15.609 -0.0689  0.2988  0.0061
26877W        W42951  14.498   9.116  14.314 -0.1623  0.2424  0.1031
26878W        W42952  14.287   0.577   2.339 -0.0398 -0.0680  0.0348
26879W        W42953   9.511  17.901   0.845  0.2157 -0.0574 -0.1603
26880W        W42954  17.017   9.461   3.775  0.0088  0.3262  0.2592
26881W        W42955   9.842  10.034  12.383 -0.0361 -0.1034 -0.3523
26882W        W42956   7.375  12.091   4.899 -0.2896  0.0777  0.1583
26883W        W42957   1.121   1.629  13.008 -0.4653 -0.2151 -0.1752
26884W        W42958  14.023   9.783   0.323 -0.4560 -0.0549  0.0749
26885W        W42959  17.002   0.487  11.397  0.0175  0.1027  0.3585
26886W        W42960  16.486  16.797  11.022 -0.0125  0.0872  0.1271
26887W        W42961   8.171  16.966   5.442  0.2164 -0.0663  0.1902
26888W        W42962   9.105  13.593   5.363  0.5472 -0.0846  0.3480
26889W        W42963   4.767   5.968   3.185 -0.1434 -0.2971  0.2102
26890W        W42964   3.898   3.156   5.522  0.1572 -0.2149 -0.3417
26891W        W42965  12.751   5.497   2.470  0.1738 -0.0080  0.2608
26892W        W42966   2.686   5.100  11.677 -0.3154  0.3878  0.0661
26893W        W42967   4.879   5.877   4.099 -0.0041 -0.0709  0.1113
26894W        W42968  13.924   3.829  11.258 -0.3157 -0.2732  0.1051
26895W        W42969  10.214   4.551   4.435 -0.1841 -0.2090 -0.2439
26896W        W42970   4.431   8.130   5.057  0.0071  0.3153  0.1588
26897W        W42971   4.243   5.196   3.971  0.3029  0.0407  0.1647
26898W        W42972  17.778   2.131   0.146  0.0383  0.0743 -0.1089
26899W        W42973   7.252   2.202  14.408  0.4270 -0.1670 -0.2658
26900W        W42974   6.423  11.407   2.724  0.1625  0.3999 -0.0791
26901W        W42975   4.258  18.180  13.886 -0.0486  0.0290  0.1237
26902W        W42976  15.304   1.448   1.018  0.0521  0.1779 -0.1026
26903W        W42977  17.739   7.139  15.062 -0.3550 -0.0561  0.1426
26904W        W42978  12.963   0.133   2.486  0.1368  0.2431  0.0093
26905W        W42979  14.094   3.480  10.859  0.0599  0.5100  0.2238
26906W        W42980   4.458  12.210   1.315  0.3663 -0.0688 -0.0228
26907W        W42981  10.208   1.413   3.207  0.0596  0.3125  0.2100
26908W        W42982   4.937  14.633   2.008  0.1022 -0.0398  0.0019
26909W        W42983   1.775  14.135   4.382  0.1045  0.2768  0.1148
26910W        W42984  11.501  15.867   3.446 -0.4624  0.0004  0.0550
26911W        W42985   9.582   7.315  13.585 -0.0070 -0.0630  0.1143
26912W        W42986   0.368  15.556  14.336 -0.0565  0.0205 -0.0026
26913W        W42987  14.100  18.116   2.070  0.0761 -0.1172 -0.0220
26914W        W42988   7.077  10.731   2.061  0.0137 -0.1088 -0.1942
26915W        W42989   0.441  11.622  14.388 -0.2689 -0.2598  0.0496
26916W        W42990   1.252   9.767   3.745 -0.2058  0.0750  0.1715
26917W        W42991   1.858   9.870   5.987 -0.3472  0.0121  0.2720
26918W        W42992   4.819  15.403  12.208  0.2875 -0.0227 -0.1404
26919W        W42993   2.218   3.693   3.061 -0.0722  0.1088 -0.2335
26920W        W42994   0.118   1.299   2.624  0.2835  0.0935 -0.1438
26921W        W42995  14.872   9.042  11.176 -0.1036  0.2480  0.1665
26922W        W42996   9.041   7.027   4.823 -0.2025 -0.2830  0.2539
26923W        W42997  11.769  12.174   5.386 -0.0099 -0.1392  0.2339
26924W        W42998   2.951   4.015  13.821  0.2494 -0.2144  0.1424
26925W        W42999  15.623  16.982  14.587  0.1001 -0.0627 -0.0014
26926W        W43000  15.244   7.227  12.783  0.2479 -0.0438  0.2276
26927W        W43001   0.954  11.570   3.165 -0.0737 -0.1729 -0.4772
26928W        W43002  17.524   7.404  11.721  0.0048 -0.1743 -0.1850
26929W        W43003  11.157  11.591  13.074 -0.0326 -0.1690 -0.1028
26930W        W43004   9.934   5.824   5.875  0.3406 -0.2570  0.1676
26931W        W43005  18.014   0.344  10.873  0.1381  0.2139  0.0708
26932W        W43006  12.498   4.027  14.212  0.0796  0.2730  0.3265
26933W        W43007  10.666  15.573   2.912 -0.1261  0.1120 -0.0926
26934W        W43008   4.790   5.120   2.473 -0.2291 -0.2248  0.0031
26935W        W43009   2.177  14.467   1.586 -0.1207 -0.3050  0.3557
26936W        W43010   7.825  17.787  16.010 -0.1283  0.0968 -0.1430
26937W        W43011   6.360  15.430  14.690  0.0305 -0.1139  0.0351
26938W        W43012  13.570  15.024   0.853  0.3328  0.2262  0.3805
26939W        W43013   9.093   8.291  12.968  0.0587  0.1020 -0.2312
26940W        W43014   4.428   6.162   2.639  0.1004  0.2349 -0.2666
26941W        W43015  11.949   7.855  15.042 -0.3070  0.3258 -0.2240
26942W        W43016   7.072  10.102  13.302 -0.0850  0.4065  0.2226
26943W        W43017  17.747   7.299   2.656 -0.0121 -0.5210 -0.1605
26944W        W43018   6.744   2.867   4.628 -0.0567  0.4134  0.3650
26945W        W43019  14.363   4.949  15.910 -0.0642 -0.3533  0.1924
26946W        W43020  16.952  18.164  14.062 -0.0695  0.2539 -0.2977
26947W        W43021  10.482  13.020  15.483  0.1790  0.1139 -0.0322
26948W        W43022  11.477  10.452  13.750  0.3822 -0.2133 -0.1945
26949W        W43023   5.519  12.342  11.384 -0.0404 -0.0551  0.1123
26950W        W43024   6.645  10.133  11.848 -0.1861 -0.1193 -0.2163
26951W        W43025   9.606   2.999   2.681  0.0543 -0.4581  0.0246
26952W        W43026   2.485  12.023  11.824  0.0354 -0.0325  0.2877
26953W        W43027  17.025  14.138  11.756  0.3650  0.2081  0.0752
26954W        W43028  16.214   2.786   0.284 -0.3370 -0.0220  0.0129
26955W        W43029   6.107  17.372  15.239  0.1030 -0.0273  0.3637
26956W        W43030  16.968  13.300   3.382 -0.0588  0.1059  0.0124
26957W        W43031   2.782  10.249  15.539 -0.2083 -0.2206  0.1577
26958W        W43032  15.983   5.848  13.979  0.1183  0.1597  0.2081
26959W        W43033   3.041  12.125  15.214  0.2090 -0.3924  0.0462
26960W        W43034  12.840   9.117   6.178  0.0687 -0.4048 -0.1394
26961W        W43035  13.589   2.266   0.250 -0.1981  0.0678 -0.1411
26962W        W43036   5.340  15.800  14.605 -0.0668 -0.1862 -0.0970
26963W        W43037   8.620   4.656  13.643  0.3360  0.1103  0.2120
26964W        W43038  15.559   6.377  13.325 -0.1874 -0.2418  0.1314
26965W        W43039   3.406  14.178   4.437  0.1397 -0.0595 -0.1822
26966W        W43040  10.049   9.869   2.450  0.0476  0.0353  0.2687
26967W        W43041   0.786   6.422  14.715 -0.1778  0.0270  0.1190
26968W        W43042  18.131  18.350   4.961 -0.1703  0.2872  0.1575
26969W        W43043   2.866   7.886  13.290 -0.0210  0.0503 -0.1225
26970W        W43044   2.587   4.812   1.897 -0.1116  0.0255 -0.0604
26971W        W43045   8.610   8.156  11.209  0.2383 -0.1250  0.0332
26972W        W43046   7.177  11.203   2.137  0.0126  0.0317 -0.2650
26973W        W43047  12.863  12.821   9.777 -0.1390  0.1404 -0.0691
26974W        W43048   3.797  10.267   0.901  0.1272 -0.0383 -0.1110
26975W        W43049  13.240  17.801  14.050  0.0558 -0.0808  0.2365
26976W        W43050   1.969   9.968  13.390  0.0231 -0.1983  0.0193
26977W        W43051   9.825   2.884  13.565  0.2543 -0.2589 -0.1768
26978W        W43052  14.159   6.665   0.746  0.1453 -0.1241 -0.0881
26979W        W43053   5.098   9.709   1.697 -0.0299 -0.1712 -0.1500
26980W        W43054   5.275   3.077  12.076  0.1030  0.0927 -0.1622
26981W        W43055   3.913  13.044  14.953  0.0204  0.2984 -0.2502
26982W        W43056   5.843   6.015  14.145 -0.2588 -0.1285  0.1663
26983W        W43057  17.742   8.526   5.282  0.0305  0.2106  0.0248
26984W        W43058  12.747   8.632   5.266  0.1408  0.0578 -0.2453
26985W        W43059   0.112   3.458   3.620 -0.0754 -0.0345  0.2419
26986W        W43060   0.841   8.509   5.024  0.2735 -0.0545  0.1860
26987W        W43061   9.268   3.628   3.601 -0.0923  0.1656 -0.3072
26988W        W43062  14.330   1.697   4.304 -0.0091 -0.0017  0.0045
26989W        W43063  17.849   2.497  12.369 -0.1296  0.1526  0.0983
26990W        W43064   1.803   4.277  11.470  0.2197  0.0942 -0.1799
26991W        W43065  16.153   1.278  14.244 -0.0048  0.0684  0.0350
26992W        W43066   1.875   5.286   0.781  0.0344  0.3322  0.1349
26993W        W43067   9.646  11.135   3.487 -0.2267 -0.1092 -0.4476
26994W        W43068  11.398  10.793   1.017 -0.2210  0.1815 -0.2810
26995W        W43069  17.474  17.008   2.320  0.4501  0.2632 -0.1859
26996W        W43070   1.231  14.960  12.303 -0.1280  0.0509  0.1023
26997W        W43071   4.977  14.680   2.903 -0.1559 -0.0889 -0.0140
26998W        W43072   0.859   1.194  14.022  0.3824 -0.0789  0.1736
26999W        W43073  15.293  17.719  11.215  0.0076 -0.1274 -0.2517
27000W        W43074   7.454   0.978  14.106 -0.2259 -0.0721 -0.3166
27001W        W43075   4.064  15.314  13.444 -0.0731  0.0185 -0.3305
27002W        W43076  17.003   7.795   5.415  0.0233 -0.2465  0.1951
27003W        W43077  11.041  14.967   1.115  0.1404  0.0508  0.1564
27004W        W43078   7.482  14.286  11.070 -0.2591 -0.0689 -0.3098
27005W        W43079   5.598  11.491  14.783  0.0887  0.1546  0.0089
27006W        W43080   0.451   9.700   3.999 -0.1160  0.2466  0.1397
27007W        W43081   0.619   8.677  14.116 -0.2859  0.0424 -0.1197
27008W        W43082  18.000   7.216  12.006 -0.2314  0.0426  0.1842
27009W        W43083  13.530   3.467  11.601  0.0368 -0.1853  0.1859
27010W        W43084  16.818   2.694  10.178 -0.2819  0.1332 -0.0915
27011W        W43085  14.043  18.365  15.254  0.0657 -0.0367  0.0617
27012W        W43086  17.024   1.733   9.459 -0.0316 -0.1043  0.1032
27013W        W43087  11.536   2.474  11.766 -0.2386  0.1556  0.0165
27014W        W43088   9.212   4.410  12.765  0.0913  0.0618  0.0699
27015W        W43089   3.412   6.788  11.244  0.1605  0.0237 -0.0691
27016W        W43090  12.861   4.292  11.763  0.0274 -0.2259  0.0001
27017W        W43091  10.860   0.306  15.302  0.0639 -0.1270 -0.0936
27018W        W43092  16.753  13.976  13.886  0.3263 -0.1582 -0.0546
27019W        W43093  15.393  11.507   1.871  0.0628  0.3812  0.1074
27020W        W43094   6.481   5.706   2.308  0.0460 -0.0381  0.3100
27021W        W43095   7.151   6.417   2.845  0.2636  0.0435 -0.0664
27022W        W43096   8.309  15.530   3.324 -0.0306  0.0602  0.1330
27023W        W43097   2.465  18.394  13.998 -0.1771 -0.0366  0.1847
27024W        W43098  14.394   2.059  15.178 -0.0850 -0.0222  0.0960
27025W        W43099   0.622   5.955  11.772  0.2023  0.2881 -0.1500
27026W        W43100  16.728   0.272  11.806 -0.0498  0.3239 -0.0685
27027W        W43101   4.434  11.151  15.129 -0.0253 -0.2690  0.0961
27028W        W43102  10.788   6.047   0.678 -0.0027 -0.3327 -0.0445
27029W        W43103   4.620  12.969   0.925 -0.0147  0.0809  0.0863
27030W        W43104  14.897  16.494  15.608  0.0911  0.0583  0.2996
27031W        W43105   8.967   4.907  12.801 -0.0799 -0.3888 -0.0825
27032W        W43106   6.820  15.753  12.181 -0.0064 -0.1063 -0.1125
27033W        W43107  17.586  15.641   2.857  0.3072 -0.2885 -0.1566
27034W        W43108  10.658  18.466  14.146  0.1365 -0.4831  0.1195
27035W        W43109  10.438   3.962  15.960 -0.0018 -0.1321 -0.0586
27036W        W43110   0.556  15.289  16.031 -0.1072 -0.2382 -0.3025
27037W        W43111   5.005  15.930   5.620  0.2029 -0.2611 -0.2930
27038W        W43112  10.211   3.453  12.268  0.3476 -0.4231 -0.2046
27039W        W43113  11.725  16.827  11.513 -0.5377  0.0414 -0.0780
27040W        W43114  15.892   6.826   3.841 -0.0226 -0.0959  0.0270
27041W        W43115   3.337  12.803   3.503  0.3408  0.0633  0.4273
27042W        W43116  17.517   1.173  11.096 -0.0583  0.0996 -0.0002
27043W        W43117  14.257   0.810   1.447 -0.1604 -0.1040 -0.0834
27044W        W43118   5.931  14.416  12.516  0.0493  0.2654 -0.2585
27045W        W43119  16.483   5.146  14.134  0.2582 -0.1708  0.2414
27046W        W43120   3.447  14.667   3.521  0.4299  0.2555  0.0048
27047W        W43121   0.276  14.936   0.126 -0.0271  0.2521  0.2091
27048W        W43122  14.224   2.303  13.924 -0.1682  0.0818  0.1202
27049W        W43123   2.641   7.771   5.246 -0.1338 -0.3223  0.1310
27050W        W43124   2.103   4.410   1.656  0.3715  0.0863 -0.4272
27051W        W43125  15.365   2.746   0.164  0.0554  0.1956  0.1130
27052W        W43126  15.300  13.833   3.824  0.2923 -0.3138  0.0323
27053W        W43127   3.576   3.528   2.810  0.2483 -0.1032  0.1396
27054W        W43128  12.564   9.431   4.235  0.1825  0.0044 -0.1484
27055W        W43129   6.789   4.074   1.350  0.1318  0.0966 -0.1241
27056W        W43130   3.474   5.038  15.742 -0.1428  0.1345 -0.2125
27057W        W43131  16.948  17.690  13.869 -0.4325  0.5299  0.1571
27058W        W43132   5.072  12.589  11.635  0.2790 -0.1778  0.1006
27059W        W43133  17.364   5.738   6.249  0.1107  0.0954  0.1121
27060W        W43134  15.295  15.421  12.069 -0.3152  0.0733  0.0325
27061W        W43135   1.878   8.975   4.637 -0.1611  0.0613 -0.1332
27062W        W43136  13.131  13.003  13.357  0.3436 -0.1875  0.0473
27063W        W43137   6.672   4.541  15.739  0.2094  0.0561  0.0763
27064W        W43138   5.036   8.770   2.081  0.2127 -0.0651  0.0288
27065W        W43139  13.527   9.111   2.631  0.1641  0.5878 -0.2795
27066W        W43140  11.165  16.806  15.199 -0.2225 -0.2822 -0.2151
27067W        W43141   2.921   5.421   2.747  0.1461  0.0084 -0.0974
27068W        W43142  11.603   2.871  13.491  0.0280  0.0047 -0.2149
27069W        W43143   7.380  12.561  11.244 -0.2714 -0.2411 -0.3423
27070W        W43144   1.347  10.618  12.042  0.3263  0.2095  0.0971
27071W        W43145   7.430  14.774   0.967 -0.0098  0.2360 -0.3727
27072W        W43146   9.411   8.329  14.749  0.0926 -0.1917 -0.3332
27073W        W43147  16.014  12.288   3.819 -0.0606  0.1089 -0.0674
27074W        W43148   9.892  15.214   2.487 -0.3117 -0.0262 -0.0463
27075W        W43149  12.415  16.804   3.917 -0.3071  0.1003  0.0407
27076W        W43150  13.505   1.974  13.466 -0.1348 -0.1001  0.0393
27077W        W43151   5.308  15.785  15.464  0.0847 -0.1584 -0.0787
27078W        W43152  13.284  14.915  14.804 -0.2368  0.0451  0.0751
27079W        W43153   0.959   8.811   1.645 -0.0062 -0.1821 -0.1598
27080W        W43154   1.690  12.312   5.609  0.1515 -0.0911 -0.0658
27081W        W43155  10.136  13.415  12.133 -0.1846 -0.0348  0.0256
27082W        W43156   9.659  14.658   1.644  0.0233  0.2520  0.2737
27083W        W43157   8.102   5.318   2.487 -0.2262  0.1390 -0.1423
27084W        W43158  17.709  18.204   4.187 -0.0623  0.3546  0.2998
27085W        W43159  11.285  14.245   3.633 -0.4602  0.0133 -0.1617
27086W        W43160   7.120  14.516  15.037  0.0696 -0.0170  0.0794
27087W        W43161   3.836   1.763   1.415 -0.3540 -0.2454 -0.0344
27088W        W43162   5.034  17.036   4.575 -0.1249  0.2906  0.3063
27089W        W43163   7.375   2.514   3.532  0.0662 -0.3692  0.2319
27090W        W43164   4.657  12.305  15.811  0.0408  0.0285 -0.2726
27091W        W43165   1.621   8.583   3.424  0.0414 -0.0023 -0.3894
27092W        W43166  14.201   0.284  12.170 -0.0256  0.0449 -0.2330
27093W        W43167  10.169   0.196   9.636  0.1293  0.1582  0.0719
27094W        W43168  15.009   1.437  14.943  0.0213  0.0282 -0.1887
27095W        W43169  15.486   1.848   3.795  0.2866  0.0073  0.0448
27096W        W43170   0.589  11.547   4.468  0.3495 -0.4212 -0.1668
27097W        W43171  13.188  11.509  15.376  0.4065  0.1164  0.1941
27098W        W43172  16.052   7.047   1.791 -0.1225  0.1036  0.1088
27099W        W43173  10.843  12.912   5.500 -0.0960 -0.1395 -0.2725
27100W        W43174   4.907  11.131  13.564 -0.0946  0.0378 -0.2138
27101W        W43175   0.011  16.316  12.388 -0.1018  0.0293  0.2621
27102W        W43176  10.762   3.325   1.457  0.0294  0.0570  0.3797
27103W        W43177   8.671  12.931  12.973  0.2513 -0.1248  0.0159
27104W        W43178  15.791   8.443   1.241  0.1822 -0.4063  0.2396
27105W        W43179   2.787  11.433  14.367 -0.0283  0.1272  0.3003
27106W        W43180   6.859  14.731   0.506  0.1309  0.0153  0.1106
27107W        W43181  17.039  10.458   0.493  0.0886  0.0390  0.0177
27108W        W43182  10.190   0.129   4.626  0.1856 -0.0515 -0.3010
27109W        W43183  18.413  11.118   0.682  0.1242  0.1287 -0.0701
27110W        W43184   0.468   9.154   2.867  0.0658 -0.0342  0.3435
27111W        W43185   9.056  12.851   2.241 -0.1770  0.3932  0.1044
27112W        W43186  15.549   0.520  15.685 -0.2553 -0.0732 -0.0310
27113W        W43187   1.274  14.366  13.514 -0.0916 -0.0965  0.2362
27114W        W43188   8.432   8.899  13.889 -0.2137 -0.2301 -0.0280
27115W        W43189  10.410  17.339   3.567 -0.2935 -0.3031 -0.2157
27116W        W43190  18.147   1.820   1.371 -0.2439  0.1421 -0.0439
27117W        W43191  15.191   8.176  14.411 -0.2745  0.1603  0.0919
27118W        W43192   6.196  16.721   3.043 -0.3124 -0.3125  0.1065
27119W        W43193   0.914  14.935   3.492  0.2405  0.2655  0.3256
27120W        W43194   5.445   1.298   5.565 -0.0367  0.3271  0.0244
27121W        W43195   3.223   2.284   3.120  0.1645 -0.0084 -0.1085
27122W        W43196   4.835   7.316   4.639  0.2146 -0.3176  0.2318
27123W        W43197   8.977  17.987   3.014  0.0185 -0.6702 -0.0970
27124W        W43198  16.517  12.999   1.498 -0.1858  0.2677 -0.0570
27125W        W43199   3.347   9.294  15.722 -0.0132 -0.0831  0.0701
27126W        W43200   9.029  17.186  14.274 -0.1520 -0.0525  0.2603
27127W        W43201  17.887  17.530   3.750 -0.0932  0.0122 -0.2052
27128W        W43202  15.749  15.184   4.748  0.1698 -0.1179 -0.1028
27129W        W43203   5.996   8.221  11.840 -0.2054 -0.2057 -0.2458
27130W        W43204  17.157   5.898   3.177 -0.0646  0.2508 -0.0937
27131W        W43205   8.412   2.666   2.625  0.2083 -0.0373  0.0079
27132W        W43206   4.471  18.355   0.214 -0.1944 -0.0588  0.0473
27133W        W43207   8.798   6.976  15.284  0.0037 -0.0989  0.2202
27134W        W43208  14.440   7.924   2.193  0.2616 -0.1156  0.1731
27135W        W43209   3.767  18.227  11.904  0.0738  0.2611  0.3941
27136W        W43210  11.566   0.492   2.004  0.1897  0.0122  0.0292
27137W        W43211  17.886  14.794  15.640 -0.1909 -0.1351 -0.2277
27138W        W43212  11.302   3.085   5.271  0.4490 -0.1303  0.1918
27139W        W43213   4.843   6.674  14.401  0.1434 -0.1768  0.0751
27140W        W43214   2.961   2.627  11.759 -0.4081 -0.0582  0.1799
27141W        W43215  18.033  17.892   4.186  0.1126  0.2352 -0.3626
27142W        W43216  12.922   4.917  12.398  0.0461  0.1163  0.0661
27143W        W43217  12.484   0.456  11.014  0.1810  0.1596  0.0076
27144W        W43218   8.467   3.276   0.724 -0.0635  0.1740 -0.1305
27145W        W43219   8.002  13.493   5.150 -0.1275  0.0203  0.3608
27146W        W43220  15.002  18.554  13.118 -0.1366  0.2836  0.2836
27147W        W43221  11.424  13.405  15.168  0.0140 -0.0935 -0.1050
27148W        W43222   2.595  15.278   3.823 -0.1495  0.2168 -0.0144
27149W        W43223  17.099   4.326  12.442  0.1908  0.0503  0.2058
27150W        W43224   6.687   4.920   2.412 -0.1760  0.2595  0.0419
27151W        W43225  18.483   1.192  14.192 -0.0935  0.3351  0.3645
27152W        W43226   5.881   6.407  13.795  0.0732 -0.0722  0.0601
27153W        W43227   2.375  13.371  13.154 -0.0493 -0.2473 -0.3804
27154W        W43228   2.490  14.384   3.476 -0.0159 -0.4187 -0.1879
27155W        W43229   1.925  10.300   1.929 -0.0466 -0.3211 -0.3702
27156W        W43230  13.939  12.788   3.301 -0.0770  0.0297  0.0142
27157W        W43231   6.002  17.781  11.023 -0.0591 -0.1332  0.1524
27158W        W43232  12.090   8.807  14.614 -0.0358 -0.2178  0.0239
27159W        W43233  18.285   8.220   3.693 -0.0743 -0.0322 -0.2573
27160W        W43234  18.381  16.996  10.848 -0.2233 -0.0360  0.2986
27161W        W43235   3.085  17.047   1.140 -0.1189 -0.0356  0.0636
27162W        W43236  18.285   2.461  14.410 -0.0905 -0.1739 -0.2550
27163W        W43237   5.755  10.472  15.314 -0.1533  0.0475  0.2271
27164W        W43238   3.554  13.798   1.601 -0.1598  0.0685 -0.1448
27165W        W43239   0.760   2.257  11.355 -0.1979 -0.3079 -0.2777
27166W        W43240  16.717  11.982   5.172 -0.1222  0.0473 -0.1365
27167W        W43241   9.562  13.995   3.596  0.0403  0.1377  0.0923
27168W        W43242  13.129   5.085   5.271  0.1614 -0.2025  0.1924
27169W        W43243   9.766  15.085   2.015  0.1614  0.1252 -0.1449
27170W        W43244   7.741   3.205   2.229  0.3223 -0.0407  0.3562
27171W        W43245  16.589   6.878  11.786 -0.2164 -0.2829  0.0516
27172W        W43246   4.321  16.313  14.238 -0.0933  0.3031 -0.1807
27173W        W43247  14.194   1.798   2.060  0.0897  0.1459  0.0493
27174W        W43248   0.899   4.013  11.872  0.1043 -0.0287 -0.1508
27175W        W43249   6.099  18.042   1.058  0.2638  0.2182  0.1028
27176W        W43250   3.750  13.809   2.679 -0.0572 -0.1439  0.0877
27177W        W43251   8.816   6.198   3.124 -0.3667 -0.4057  0.1655
27178W        W43252   8.213   0.941   1.018  0.1960  0.0524  0.0923
27179W        W43253   9.634  13.032   0.379 -0.4159  0.2687  0.1124
27180W        W43254  11.809  17.928   3.920 -0.0347  0.1908  0.2790
27181W        W43255   3.866   1.432   4.063 -0.1241  0.2780 -0.2119
27182W        W43256  13.398  10.344   3.361  0.0180 -0.1083 -0.3978
27183W        W43257   0.374  16.207   1.209  0.0981  0.2793 -0.5596
27184W        W43258   3.632   4.058  14.529  0.2108 -0.1346  0.1019
27185W        W43259   7.402  12.539   1.620 -0.5666 -0.1537  0.0156
27186W        W43260   6.001  12.558   4.905  0.0174  0.1957  0.1638
27187W        W43261  18.407  13.805  15.346  0.2924  0.0197  0.3591
27188W        W43262  13.964  10.492  13.990  0.2874 -0.0422  0.2274
27189W        W43263  15.374  12.763  11.504 -0.2077 -0.1659 -0.1197
27190W        W43264  18.163   5.092  14.649 -0.0322 -0.1600 -0.0977
27191W        W43265  12.650   4.454  15.903  0.0455 -0.0683 -0.0017
27192W        W43266   4.194  17.683   5.298  0.0662  0.1610 -0.0491
27193W        W43267   2.127   9.618  12.061  0.1362  0.1336 -0.3000
27194W        W43268   3.933  12.538  15.068 -0.0024  0.2304  0.1023
27195W        W43269   0.768   0.991   0.695 -0.0471 -0.0409  0.0275
27196W        W43270   6.548  11.983   2.189 -0.1252  0.3392 -0.2500
27197W        W43271   0.416  10.359   5.131 -0.1798 -0.1352 -0.0843
27198W        W43272  13.536  18.207  11.349  0.2316  0.1216  0.1469
27199W        W43273  17.309  13.291  13.090  0.0184  0.0658 -0.3895
27200W        W43274   4.009   4.317  13.196  0.0800 -0.2952  0.0545
27201W        W43275  15.570  16.938  12.933  0.0584  0.2141 -0.0269
27202W        W43276   8.492  16.503   2.923  0.2459  0.0152  0.0107
27203W        W43277   3.039   8.277   3.076  0.0771 -0.1621 -0.4454
27204W        W43278  11.427   0.648  13.960  0.1288 -0.1675  0.2369
27205W        W43279  16.649  16.542   4.325 -0.3729  0.0046  0.1288
27206W        W43280  16.825   3.471   3.378 -0.2020 -0.0219  0.0474
27207W        W43281   3.471   0.664  13.628 -0.2064  0.0360  0.2535
27208W        W43282   2.911  16.135  15.556 -0.1004 -0.2081 -0.1842
27209W        W43283   8.742  11.684  14.086 -0.2213  0.0552  0.0891
27210W        W43284   1.864  15.997  11.315 -0.1084  0.0609 -0.3647
27211W        W43285  10.380   3.509   1.156 -0.0428 -0.0904  0.0967
27212W        W43286  14.311   4.627   1.712  0.1185  0.4931 -0.2490
27213W        W43287   8.400   5.704   0.420 -0.3595 -0.0916  0.2132
27214W        W43288   7.582   4.282   1.580 -0.4457  0.2737 -0.0540
27215W        W43289   0.298  10.662   0.541  0.1235 -0.2191  0.0847
27216W        W43290   2.006   8.722   3.773  0.2286 -0.1299 -0.2121
27217W        W43291   0.933  10.890   5.787  0.0078  0.0844  0.0332
27218W        W43292   6.456  13.519   1.399 -0.2041 -0.0004 -0.1763
27219W        W43293  11.922   4.779   4.453  0.0683 -0.0077 -0.3453
27220W        W43294   1.107  11.205   5.080 -0.4124  0.0485  0.1046
27221W        W43295  11.106  14.056   1.723  0.1297  0.2357 -0.0350
27222W        W43296  15.299  17.165  11.337  0.4192 -0.0577  0.2412
27223W        W43297   7.504  12.696   2.122  0.1196  0.0787  0.0660
27224W        W43298   4.119   1.623   0.052 -0.1593 -0.2024  0.1295
27225W        W43299  10.206   8.861   0.666 -0.0518  0.0440 -0.3447
27226W        W43300  11.698   3.168   3.821 -0.3014  0.1324 -0.0860
27227W        W43301  10.034  10.852   0.527  0.1674 -0.3730 -0.0551
27228W        W43302  15.762  16.402  13.002  0.3574  0.2993 -0.2703
27229W        W43303  14.221   3.929  11.675 -0.0953 -0.0288  0.1239
27230W        W43304  17.615   9.983   6.500 -0.1594  0.0680  0.0605
27231W        W43305   7.338  17.254   3.701  0.0458  0.4190 -0.1292
27232W        W43306  11.265  16.941  13.186 -0.1719 -0.0384  0.1385
27233W        W43307  18.362   7.874   0.954  0.1515  0.0323  0.2934
27234W        W43308  16.647   3.087  11.836  0.3079  0.0877  0.1575
27235W        W43309  16.563   5.063   3.939 -0.0086  0.0393  0.0182
27236W        W43310  11.557  12.180   0.595 -0.1800  0.2281 -0.0586
27237W        W43311   4.461  12.695   5.502  0.0228  0.1231 -0.2741
27238W        W43312   7.051  11.446  13.965  0.1528  0.4481  0.2038
27239W        W43313  14.075  14.862   5.356  0.1051  0.1817 -0.1776
27240W        W43314   1.413  16.244  11.072  0.0611 -0.2808  0.1010
27241W        W43315  16.534  15.529   2.133 -0.2341  0.1036 -0.1447
27242W        W43316   7.131   9.201  14.657 -0.2208 -0.1594 -0.0774
27243W        W43317   3.540   4.163  13.346 -0.2651 -0.0154 -0.2757
27244W        W43318   6.240  11.408   3.789  0.0468 -0.2337 -0.0722
27245W        W43319  15.365   6.509  13.741 -0.1945 -0.2491  0.0869
27246W        W43320   1.738   6.274  12.413  0.0767 -0.0398  0.0440
27247W        W43321  12.309   4.218   3.903 -0.1760 -0.1678  0.1329
27248W        W43322   0.593   4.715   1.903 -0.1463 -0.0456 -0.0079
27249W        W43323  13.050  11.117   2.983 -0.2099  0.1724 -0.0786
27250W        W43324  18.474   8.051   1.775  0.1622 -0.1142 -0.2761
27251W        W43325  12.548  10.924  14.439 -0.2029 -0.3511 -0.4114
27252W        W43326  11.425   2.120  11.452 -0.1667  0.1371 -0.3544
27253W        W43327   2.780   1.199  15.653 -0.2276 -0.0086 -0.1132
27254W        W43328   1.324   1.025   1.805  0.0132  0.0873 -0.2466
27255W        W43329  13.774  10.219   0.397  0.4378  0.1950  0.0224
27256W        W43330  13.970  16.220   3.490 -0.1787 -0.0533 -0.0617
27257W        W43331  17.394   4.673  11.324  0.1107 -0.0312  0.1387
27258W        W43332  12.126  16.956   1.837  0.1647  0.2847 -0.0620
27259W        W43333  12.809   0.352   1.156  0.0196  0.2695  0.1242
27260W        W43334  17.708   8.456  13.828  0.0044 -0.2788 -0.1852
27261W        W43335  16.487   6.052  15.923  0.0473 -0.2575  0.2215
27262W        W43336  18.256   1.137   5.199  0.3074 -0.1332 -0.2500
27263W        W43337  15.121   6.889  11.519  0.1638  0.3697  0.5147
27264W        W43338   0.028  17.193   0.719  0.1193 -0.0249  0.1343
27265W        W43339   0.541  17.211  13.224 -0.2399  0.3325 -0.2383
27266W        W43340   2.811  17.677  13.988  0.2304 -0.2168  0.3584
27267W        W43341  12.285   2.241   0.455  0.1635 -0.1900  0.1087
27268W        W43342  10.874  11.096   4.287  0.1421 -0.1204  0.4229
27269W        W43343   8.864  12.525   0.437 -0.0035  0.1823 -0.0352
27270W        W43344   7.754   7.180   0.015  0.0328  0.2451  0.0182
27271W        W43345  10.162  11.379  13.421  0.3174 -0.1678  0.2589
27272W        W43346  17.496   7.345   0.518 -0.0750  0.1067  0.0434
27273W        W43347   3.980  15.693  12.058  0.2681 -0.1296 -0.0383
27274W        W43348  10.632   7.238   0.862 -0.2369 -0.0954  0.1044
27275W        W43349   5.046   7.083   2.612  0.6011  0.0421  0.1331
27276W        W43350  16.874   1.635  12.981  0.0255  0.1837 -0.0138
27277W        W43351  17.013  15.398   2.496 -0.2839 -0.0888  0.1256
27278W        W43352   6.367   6.113  13.496 -0.0488  0.1440 -0.3956
27279W        W43353   0.146  10.770  11.731 -0.0774 -0.2250 -0.1812
27280W        W43354  17.928  17.177  13.386 -0.3367  0.1263  0.0968
27281W        W43355  17.682  15.029   3.119 -0.1381 -0.2591 -0.0715
27282W        W43356  11.556   0.062   5.204  0.1843 -0.1328 -0.0693
27283W        W43357   3.202  13.983   2.390  0.0405  0.0516 -0.2903
27284W        W43358   4.473  15.614  11.924  0.5184 -0.1493 -0.0921
27285W        W43359  16.416   0.582  11.432 -0.0475  0.0780 -0.0584
27286W        W43360  17.165  17.013   3.159  0.3483 -0.2086  0.0081
27287W        W43361  18.080  12.738   4.824 -0.1136  0.0583  0.0453
27288W        W43362  10.052  17.472   4.713  0.1486  0.0079  0.0419
27289W        W43363  13.284   6.919   5.190 -0.0475  0.0895  0.1434
27290W        W43364  11.799  13.245  13.974  0.0698  0.3610 -0.0304
27291W        W43365   4.310  13.289   2.086  0.2231 -0.2245 -0.1904
27292W        W43366  14.321  17.008   5.107 -0.0031  0.0395 -0.1335
27293W        W43367  15.107  17.281  12.242 -0.3030 -0.1066 -0.1595
27294W        W43368   2.124   4.991   0.280  0.1779  0.3766 -0.1628
27295W        W43369  14.989   3.373  15.242 -0.3460 -0.0720  0.1214
27296W        W43370  16.499  18.060  14.377 -0.1060  0.3126 -0.1147
27297W        W43371   6.165  12.691  14.631 -0.2782 -0.5912 -0.0552
27298W        W43372   5.612  17.123  12.246 -0.0941 -0.2235 -0.1844
27299W        W43373   5.435   8.111  14.888  0.2081  0.0843  0.0127
27300W        W43374   1.754   4.526  16.017 -0.1739 -0.1635 -0.0476
27301W        W43375   9.134   1.573  15.805  0.0208 -0.0365 -0.1144
27302W        W43376  13.631  14.408  15.366  0.0687  0.1923 -0.2832
27303W        W43377  14.473  13.023  13.888 -0.2037  0.2287  0.1303
27304W        W43378  14.918   9.770  15.247  0.0727 -0.0541 -0.0346
27305W        W43379  14.861  18.217   1.148  0.2095  0.2988  0.2000
27306W        W43380  15.429   5.731   1.667  0.1027 -0.1319 -0.3640
27307W        W43381  12.161  12.456   1.315  0.1130 -0.3670  0.1137
27308W        W43382   0.502   4.952   3.144 -0.0880 -0.0388 -0.0055
27309W        W43383   4.568   5.650   1.627 -0.1678  0.2461 -0.3348
27310W        W43384   0.754   4.382   4.805 -0.2418  0.3143  0.1446
27311W        W43385   7.123  11.198  14.714  0.4809  0.1164  0.0375
27312W        W43386   8.418   3.353   3.892 -0.0477 -0.0775 -0.1769
27313W        W43387  12.138   5.947  15.367  0.0254  0.0239  0.1683
27314W        W43388   1.103   0.928  15.098  0.1128  0.1692  0.1581
27315W        W43389  15.380   9.300   2.941 -0.0918  0.0152  0.0392
27316W        W43390   0.308   6.878   1.745 -0.1435  0.2469  0.2347
27317W        W43391  17.702   4.733  15.987 -0.3290 -0.1813 -0.1033
27318W        W43392   9.180   3.287  12.925 -0.1732 -0.0831  0.2608
27319W        W43393  13.079   8.082   1.299  0.0555  0.0977  0.3038
27320W        W43394   1.757  15.616  13.490 -0.0556 -0.0374 -0.0771
27321W        W43395  11.619   7.155   0.447 -0.4473  0.4804  0.1056
27322W        W43396   1.215   8.235   2.243 -0.1052 -0.0395  0.0496
27323W        W43397   0.156   9.601  15.711  0.0474 -0.0457 -0.1149
27324W        W43398   5.372  14.534  12.449 -0.0473  0.1285  0.2111
27325W        W43399  16.604   8.885   0.161  0.3117  0.3998 -0.1035
27326W        W43400  10.357   6.715   1.648  0.2549 -0.2850 -0.2712
27327W        W43401   3.651   5.900  14.253 -0.0832  0.2017  0.2443
27328W        W43402   4.480  16.994   2.574 -0.0200  0.1684 -0.0367
27329W        W43403  10.515   4.352  11.687  0.3213 -0.3745 -0.3951
27330W        W43404   5.051   4.833  14.998  0.0303  0.1224  0.2453
27331W        W43405   2.086   2.512  11.669 -0.4717  0.3925  0.0707
27332W        W43406  12.044  11.396  14.244 -0.2257  0.0548  0.3029
27333W        W43407  13.265  16.636  13.624  0.1255  0.0828 -0.3204
27334W        W43408  14.668   6.872   1.415 -0.0342 -0.2582 -0.2074
27335W        W43409   5.136  17.264   9.921 -0.3868 -0.0651  0.1616
27336W        W43410  13.697  11.749   0.851 -0.3100  0.2514  0.0003
27337W        W43411  10.793  11.696  13.962 -0.2827  0.0036 -0.1238
27338W        W43412   1.593   5.041   5.673  0.2658 -0.0597 -0.2349
27339W        W43413  12.875   4.325  13.134 -0.1061  0.2547  0.0301
27340W        W43414   9.184   3.291   4.998 -0.0142 -0.0375  0.0664
27341W        W43415   9.300  18.522  14.442 -0.2904 -0.0071 -0.1039
27342W        W43416   5.209   2.387   2.246 -0.1921 -0.2686 -0.2468
27343W        W43417   6.852   1.550   5.201  0.2853 -0.1777  0.1376
27344W        W43418  17.650   8.976   5.482 -0.0300 -0.1551  0.0136
27345W        W43419   7.848   2.909   0.122 -0.1111 -0.0879 -0.0589
27346W        W43420   6.825   7.735  13.813 -0.0493 -0.4112 -0.1621
27347W        W43421  10.232   4.363  14.279  0.0780  0.3707 -0.0232
27348W        W43422   8.015  13.344  14.334 -0.3319 -0.0988  0.1457
27349W        W43423  12.159  12.052   1.735 -0.0282  0.2503 -0.0677
27350W        W43424   6.971  10.515   4.357 -0.0597  0.0230  0.0062
27351W        W43425  14.691  10.635  12.379 -0.2283  0.3043  0.5003
27352W        W43426   9.590  16.023   0.952 -0.0472  0.1312 -0.1273
27353W        W43427   5.826  12.058  12.447  0.1902  0.0375  0.0688
27354W        W43428   1.987   9.772  15.262  0.0123  0.0928 -0.1032
27355W        W43429   2.039   1.479   1.627 -0.2013 -0.2064  0.2445
27356W        W43430   8.312   1.796   1.345 -0.0164 -0.0522  0.0884
27357W        W43431  12.165   9.387  13.269  0.0698 -0.1944  0.0813
27358W        W43432   0.460  14.162   1.369 -0.0698 -0.1188  0.1872
27359W        W43433  11.433   5.581  15.274  0.1499 -0.0544  0.0737
27360W        W43434   6.834   0.325   0.360  0.0907 -0.0560  0.0175
27361W        W43435   0.792   1.675   3.732 -0.0577  0.1272 -0.1009
27362W        W43436   3.738   0.794  15.255  0.0182 -0.1963  0.0105
27363W        W43437   8.640  14.006  12.993  0.0248 -0.0990  0.2081
27364W        W43438   3.801   1.918  15.409  0.2790 -0.2768  0.2751
27365W        W43439   0.984   3.972  15.738  0.1169 -0.1436 -0.1701
27366W        W43440   4.908   1.594  14.570 -0.0332 -0.1336 -0.1052
27367W        W43441   7.587   8.381  11.391  0.3169 -0.0430  0.2326
27368W        W43442  12.004  14.960  14.985 -0.0830 -0.0544 -0.0999
27369W        W43443   7.694  10.138   1.018  0.2242 -0.1719  0.0071
27370W        W43444  12.659   3.368   1.859  0.2437 -0.1850  0.0320
27371W        W43445  16.836   7.059  13.065 -0.1806 -0.0328  0.1600
27372W        W43446  15.442  10.361   1.748 -0.0966  0.0393 -0.2639
27373W        W43447  17.903  13.164   3.472  0.2775  0.0077  0.0734
27374W        W43448   8.603  16.918   3.881 -0.0341 -0.2028  0.3514
27375W        W43449  15.097   2.652   4.057 -0.1281 -0.0889  0.0349
27376W        W43450  18.118   3.937   0.097 -0.3446 -0.0564 -0.3152
27377W        W43451   8.695   2.339   5.470 -0.0470  0.0808 -0.4047
27378W        W43452  10.745  13.419   2.406 -0.0359  0.2114 -0.1520
27379W        W43453  17.778   3.345  15.611 -0.0055 -0.1529 -0.0189
27380W        W43454   7.277   2.946  14.617  0.0432  0.2204 -0.0479
27381W        W43455  13.642  11.532   5.443 -0.1748  0.1686  0.2156
27382W        W43456   4.290  12.565   1.961 -0.1589  0.0375  0.3627
27383W        W43457   3.156   8.027   3.859 -0.0737  0.0421 -0.2880
27384W        W43458  11.744   6.757  12.525  0.2597 -0.0543  0.2160
27385W        W43459   3.939  16.987  15.094  0.2915 -0.0361  0.2290
27386W        W43460  10.976  13.594  14.357  0.4211 -0.0574  0.1059
27387W        W43461  10.845   1.736   5.339  0.0866  0.2287  0.0873
27388W        W43462  13.347   9.960   3.664 -0.0302 -0.0959  0.2881
27389W        W43463   2.924   4.727   3.641  0.1257 -0.1104 -0.1333
27390W        W43464  12.862   9.188  13.743 -0.1798 -0.2407  0.2525
27391W        W43465   2.409  11.659  15.738 -0.1000  0.1530 -0.1001
27392W        W43466   0.276   7.904   5.062 -0.1483  0.0788  0.4065
27393W        W43467   5.042  14.658   4.130  0.1571 -0.0310 -0.1351
27394W        W43468  13.119  17.075  13.882 -0.0593  0.0926 -0.1182
27395W        W43469  15.982   7.956   2.850  0.0318  0.1351  0.1267
27396W        W43470   9.590  12.723  14.906 -0.1197  0.2271 -0.3070
27397W        W43471  10.537  12.834   0.941 -0.1654  0.0885  0.0894
27398W        W43472  16.174  13.198   1.027 -0.0783 -0.2124 -0.0912
27399W        W43473  17.463  16.454  14.739 -0.0082  0.0258 -0.0957
27400W        W43474  14.500   2.123   3.896 -0.1170 -0.0454  0.1621
27401W        W43475  15.265   2.418  11.798 -0.1146 -0.2846  0.0122
27402W        W43476  10.946  16.002   5.133  0.1814  0.3612 -0.0462
27403W        W43477   9.351  11.293  13.215  0.5164 -0.1232  0.0806
27404W        W43478  18.386   8.902  13.364  0.0067  0.1107  0.0024
27405W        W43479   2.134   6.837   2.109 -0.1750 -0.2138  0.3394
27406W        W43480  11.901  16.014   5.165 -0.0913  0.0527  0.0371
27407W        W43481  17.756  11.844  12.205 -0.0087 -0.0469  0.2049
27408W        W43482   8.932   8.669  14.091  0.1120  0.0817  0.4176
27409W        W43483  13.713  15.873   0.563  0.0224  0.2463 -0.0437
27410W        W43484   4.720   6.172   0.111 -0.1380  0.0692  0.0652
27411W        W43485   1.333  10.311  15.424 -0.1171  0.1978  0.1411
27412W        W43486  13.874  17.014  13.264  0.1785 -0.1100  0.0824
27413W        W43487  16.590  14.613   0.090  0.2165 -0.3265 -0.1101
27414W        W43488   3.751   5.891   1.957 -0.2836 -0.0463  0.0721
27415W        W43489  11.424  16.732  11.896  0.0453  0.0005 -0.0432
27416W        W43490   3.565   4.798   0.968  0.4052 -0.0258 -0.1174
27417W        W43491  11.506   0.480   3.588 -0.0127 -0.0623 -0.3430
27418W        W43492  15.070   7.857   0.280 -0.2764 -0.3225  0.0384
27419W        W43493   1.255   1.434  13.796  0.2102 -0.2413  0.2181
27420W        W43494  12.209   6.865  12.753 -0.1449  0.3297  0.4029
27421W        W43495  16.944   9.861  13.039 -0.2629 -0.0627 -0.2866
27422W        W43496  17.721   6.494  15.109  0.2000 -0.0192 -0.2470
27423W        W43497   1.060  15.379   4.110  0.1135 -0.3041 -0.1095
27424W        W43498  11.612  11.841  11.950  0.0375  0.1136  0.2025
27425W        W43499   0.994  16.655   3.317  0.2209 -0.0099  0.0480
27426W        W43500   6.546   8.227  14.615  0.1737  0.1625 -0.1411
27427W        W43501  17.071   7.354  11.723  0.0456 -0.0524 -0.0760
27428W        W43502   8.869   6.302   0.712 -0.0458  0.1010 -0.0121
27429W        W43503  15.795   0.145  13.029  0.2072  0.2294  0.0791
27430W        W43504   9.481   9.626   1.067 -0.3203 -0.0192 -0.0411
27431W        W43505  14.291  10.148  14.379 -0.1818 -0.2520  0.1790
27432W        W43506   6.863   7.437   5.032 -0.1562 -0.0788  0.0140
27433W        W43507   0.441  17.806  12.902  0.1534 -0.0173  0.1383
27434W        W43508  11.587  17.306  13.628  0.1561 -0.1652 -0.1055
27435W        W43509  13.776   9.595  13.705 -0.0802  0.0487 -0.1309
27436W        W43510   7.895   9.836   5.048 -0.3109  0.0109 -0.1631
27437W        W43511   9.976   9.408  11.210  0.0837  0.1593  0.1854
27438W        W43512   9.130  11.256   0.137 -0.0676 -0.2663  0.0343
27439W        W43513  13.187  18.565   3.473  0.1013  0.0063 -0.2333
27440W        W43514   3.504  11.179  13.753 -0.0101 -0.3619 -0.1541
27441W        W43515   5.835  10.635   4.121  0.3192  0.2232  0.2483
27442W        W43516   4.289  17.717  15.639 -0.2054 -0.1632 -0.1112
27443W        W43517  10.440  12.095   3.216  0.0504 -0.0122  0.2140
27444W        W43518   4.692   0.831  11.775  0.0402 -0.0868 -0.2907
27445W        W43519   8.239   0.275  13.065 -0.0075 -0.1515 -0.2555
27446W        W43520  13.372   8.289   2.500  0.0005 -0.1220  0.0101
27447W        W43521   3.989   7.726  12.817  0.0028 -0.3145 -0.0061
27448W        W43522   8.298   7.834   5.433 -0.2007  0.3739 -0.4032
27449W        W43523  14.230  18.322   1.173 -0.2742 -0.0941  0.0412
27450W        W43524   5.292  11.035  14.154  0.0646  0.0664 -0.1627
27451W        W43525   3.541   2.322  13.791  0.0059 -0.1155  0.0239
27452W        W43526   7.748  17.678  11.494 -0.2607  0.3708  0.2592
27453W        W43527   6.507   4.773   3.447 -0.0527 -0.1300 -0.1343
27454W        W43528   2.103  11.542  14.945 -0.0617  0.1440 -0.1749
27455W        W43529  15.617  16.874   1.342 -0.0467  0.0888  0.1473
27456W        W43530   0.973   4.611  13.671  0.0641 -0.0928 -0.2445
27457W        W43531   8.323  14.294  15.207  0.1649  0.3241 -0.2694
27458W        W43532  11.098   0.710  15.819 -0.0200  0.3671 -0.1177
27459W        W43533  17.565   0.806  13.740 -0.3764 -0.1118 -0.2346
27460W        W43534   2.693   3.512  15.444 -0.1245 -0.2225 -0.0394
27461W        W43535   2.330   4.051   1.168 -0.0542  0.1781 -0.0903
27462W        W43536   0.427  10.459   3.861  0.4214 -0.0266  0.1118
27463W        W43537  14.219   9.348  13.505  0.1682 -0.0052  0.1879
27464W        W43538   9.783  10.013  14.394  0.0565  0.1055  0.0634
27465W        W43539  14.137  16.668  11.723  0.0888  0.0819 -0.2405
27466W        W43540   7.392  13.095  12.353 -0.0152  0.2316 -0.1960
27467W        W43541  12.727  17.323  12.457 -0.1954  0.1224 -0.1731
27468W        W43542   6.925   7.751   1.688 -0.1213  0.0819 -0.0758
27469W        W43543  13.813  10.667   3.527  0.3121 -0.0573  0.2089
27470W        W43544  15.017   6.721   1.018  0.2540 -0.0178 -0.3263
27471W        W43545   5.773   4.932  15.800  0.2295  0.1845 -0.0804
27472W        W43546  11.028  17.742   4.231  0.1104 -0.0901  0.1327
27473W        W43547   0.570  14.514   5.264  0.1999  0.0050 -0.0721
27474W        W43548  12.825  16.397   0.869  0.2785 -0.5584  0.0273
27475W        W43549   4.451  13.750  14.619  0.1807  0.0238  0.0672
27476W        W43550   8.095   9.398   4.491 -0.2935  0.2375  0.1480
27477W        W43551  13.514   9.425   4.033  0.0780 -0.0860 -0.4000
27478W        W43552   9.194  12.757   0.138  0.0051 -0.2505  0.1001
27479W        W43553  10.241  17.125  15.302  0.1147 -0.1243 -0.0812
27480W        W43554   4.154   0.838   5.248 -0.2981  0.1328  0.2554
27481W        W43555   9.123   6.467   2.773  0.0749 -0.1247  0.1429
27482W        W43556  17.499   4.738   3.672  0.4164  0.0927  0.0639
27483W        W43557   7.323  10.413  12.247  0.0224 -0.2176 -0.0159
27484W        W43558   6.696  11.598   4.548 -0.1248 -0.3379 -0.0560
27485W        W43559  11.455   3.261  14.217  0.2066  0.1605  0.4626
27486W        W43560   0.916  15.334  14.999 -0.0177  0.1173  0.3502
27487W        W43561   1.322   0.224   5.108 -0.0591 -0.1200 -0.0202
27488W        W43562   9.593   6.422   3.684 -0.2045  0.0140 -0.1937
27489W        W43563   4.817   4.909  11.395 -0.0742 -0.0928 -0.0890
27490W        W43564  12.600  12.377   2.235 -0.0238 -0.1582 -0.0254
27491W        W43565   0.394   5.280  14.864 -0.4476 -0.2504  0.1559
27492W        W43566   0.588  10.977  13.567 -0.2126  0.0510  0.3340
27493W        W43567  11.640   1.796  15.364  0.2433  0.0106  0.0095
27494W        W43568  18.250   2.439  12.106  0.0331 -0.1522  0.1809
27495W        W43569  12.901  18.541  14.838 -0.4249 -0.0165  0.0101
27496W        W43570   0.909   6.630   4.384 -0.2183 -0.0570  0.0649
27497W        W43571  15.344   3.076   1.297  0.0545  0.1372  0.0532
27498W        W43572   6.562   1.568  14.088  0.0587  0.0501  0.0345
27499W        W43573   0.624  14.990   0.987 -0.0921  0.0666  0.0052
27500W        W43574   4.586   0.337   1.841 -0.0212 -0.2368 -0.4049
27501W        W43575   4.566   5.686   0.105  0.2703  0.0493  0.1336
27502W        W43576   1.169   4.698   4.840  0.2629 -0.2509 -0.3491
27503W        W43577   5.862  12.736   2.312  0.0009  0.0540  0.0769
27504W        W43578   7.256   9.639   2.839  0.0980  0.0351  0.0545
27505W        W43579   2.751  16.201  14.529 -0.3280  0.1529  0.1574
27506W        W43580  18.343   0.963   0.935  0.1430 -0.0272  0.2698
27507W        W43581   6.694   1.513   4.139 -0.1399 -0.0164  0.2135
27508W        W43582  12.187   4.991  13.145  0.3190 -0.0439  0.0079
27509W        W43583   3.392   0.209   5.226 -0.0112 -0.1170  0.1935
27510W        W43584  10.057   0.669  14.011  0.0820 -0.1063  0.3958
27511W        W43585  12.645  12.925   1.992  0.0973  0.0257 -0.0998
27512W        W43586  17.500  10.617   0.472 -0.2681 -0.0591 -0.1145
27513W        W43587  11.948   9.600  13.677  0.2100  0.3696  0.0473
27514W        W43588   2.381  14.032   1.889 -0.4797  0.0662  0.0394
27515W        W43589   2.769  14.472   1.807 -0.0925  0.2825 -0.1865
27516W        W43590   5.539  16.333   2.412  0.1470  0.0119  0.3018
27517W        W43591  12.334  14.176  15.590 -0.0699  0.2156  0.0948
27518W        W43592  15.125  18.005  14.604  0.2063 -0.2557  0.2511
27519W        W43593  15.375   5.846   1.197 -0.3657 -0.1470 -0.1356
27520W        W43594  13.022  15.901  15.370  0.0276  0.3358  0.2073
27521W        W43595  15.138   0.654   4.446  0.0072  0.2166 -0.1115
27522W        W43596  15.568  15.177   1.633 -0.2062 -0.0754  0.2338
27523W        W43597  15.120   9.452  13.154  0.3140  0.1172  0.0198
27524W        W43598   8.618  10.717   3.177 -0.0137 -0.1289 -0.2303
27525W        W43599   3.031   6.268   4.733 -0.2561 -0.3664  0.4360
27526W        W43600   7.728   9.454   4.793  0.2305  0.1823 -0.3339
27527W        W43601   5.342   1.845  11.434  0.2043  0.0311  0.0141
27528W        W43602   4.860  17.677   2.082  0.3448 -0.1190 -0.0255
27529W        W43603  15.228   6.016  14.916 -0.1191 -0.0829 -0.1216
27530W        W43604  17.441  12.062   0.254  0.2493 -0.3335  0.2360
27531W        W43605  17.924  12.705   5.332 -0.0153 -0.1396 -0.0161
27532W        W43606   4.032  12.694   4.026 -0.2979  0.0190  0.0307
27533W        W43607  12.203   9.835   0.257  0.2664 -0.2237  0.1729
27534W        W43608  11.430  12.740  11.238  0.1371  0.1682  0.1009
27535W        W43609   4.544   5.943   4.466  0.0883 -0.2361 -0.0729
27536W        W43610   0.835  11.399  13.826  0.3559 -0.1392 -0.1051
27537W        W43611   2.034  13.872   1.600  0.1324 -0.1050 -0.1175
27538W        W43612  17.830   6.323   2.421 -0.1517 -0.4682  0.1649
27539W        W43613  14.646   0.200   2.478  0.0757  0.0287  0.2394
27540W        W43614  16.424   5.490  13.764 -0.0485 -0.2293 -0.0999
27541W        W43615  11.491  11.869   0.116  0.2075  0.1537  0.0323
27542W        W43616  12.737  12.201  10.871 -0.0682 -0.0148 -0.0428
27543W        W43617   3.111  17.159   5.194  0.0419 -0.1696 -0.2889
27544W        W43618   1.366   6.487  12.020 -0.2936 -0.2265  0.0723
27545W        W43619   4.810   9.099  15.838  0.3060 -0.0915  0.0049
27546W        W43620   3.754  10.373   3.932  0.1016  0.2043 -0.2033
27547W        W43621  14.526   3.827   5.233  0.1562 -0.0908  0.2827
27548W        W43622  13.905   4.930  14.209 -0.1163  0.1010  0.2521
27549W        W43623   4.923  14.172   3.126  0.4015  0.0577 -0.1841
27550W        W43624   6.151   6.051   2.578 -0.1502  0.0666 -0.0129
27551W        W43625   0.596   7.360   4.370  0.1896  0.0597 -0.0794
27552W        W43626   9.822   3.651  15.051 -0.2421 -0.1035 -0.1355
27553W        W43627  13.858   1.856  10.789 -0.0564  0.0106  0.3920
27554W        W43628   3.300  16.344   0.494  0.3854 -0.2331 -0.2992
27555W        W43629   3.084  13.640  15.506  0.0196 -0.0238  0.2848
27556W        W43630  15.662  11.184  12.626 -0.0236 -0.1281 -0.1276
27557W        W43631  14.396  16.784  13.439 -0.0074 -0.0620  0.3627
27558W        W43632  12.681   2.194  13.079 -0.2298  0.0366 -0.0714
27559W        W43633   9.294   1.458  14.653  0.4022 -0.0661  0.0711
27560W        W43634  11.955   2.790   4.074  0.3287  0.1338  0.1336
27561W        W43635   9.114  11.162  11.267  0.0505 -0.0903 -0.1090
27562W        W43636   3.766  11.106  13.364 -0.1526 -0.0294  0.1149
27563W        W43637   4.893   9.665  15.639  0.2487 -0.0543  0.0432
27564W        W43638  10.240   6.947  12.582  0.2321  0.1157 -0.1626
27565W        W43639   8.385   1.394   2.315  0.0757 -0.1235 -0.1400
27566W        W43640  12.455  11.292   5.558 -0.0482  0.0474  0.1545
27567W        W43641   9.975  17.395  15.867 -0.1999 -0.4418  0.2218
27568W        W43642  15.773   1.081  13.990  0.2272 -0.1011  0.0957
27569W        W43643   0.281  13.015   4.244  0.1274 -0.0479 -0.3279
27570W        W43644   0.609   3.641  11.348  0.3435 -0.2354 -0.0531
27571W        W43645   6.388   6.705   5.314 -0.1706 -0.0153  0.0424
27572W        W43646   1.687   1.921   2.363 -0.1113  0.0222  0.0434
27573W        W43647  18.337   6.476  12.476 -0.4526 -0.0057  0.2474
27574W        W43648   3.762  11.972   1.847 -0.2843  0.0026 -0.2483
27575W        W43649  12.150   4.230   5.180 -0.2490 -0.1162  0.0142
27576W        W43650   4.377  12.237  12.464 -0.1370 -0.0022 -0.0198
27577W        W43651  14.275  18.391  11.971  0.0613 -0.1945  0.0221
27578W        W43652  18.334   3.447   2.227 -0.1829 -0.1061  0.1843
27579W        W43653  14.624   0.263  12.885  0.1241 -0.0423  0.2728
27580W        W43654  10.637   1.348  14.995 -0.2124  0.2258  0.0533
27581W        W43655  18.239   7.094  12.811 -0.1571  0.4927  0.1077
27582W        W43656   6.661  12.086   4.458  0.0899 -0.1301 -0.1588
27583W        W43657   7.409  15.829   2.437  0.0002 -0.1183  0.4152
27584W        W43658  12.350  17.472  15.170 -0.1196 -0.0031  0.0052
27585W        W43659  11.582   7.869   3.619  0.0777 -0.1009  0.2166
27586W        W43660  16.563   2.594  11.911  0.0187 -0.1155 -0.2226
27587W        W43661   4.252   1.454   1.370  0.1627 -0.0218  0.1409
27588W        W43662   8.640   6.030  14.967  0.0747 -0.0072 -0.2513
27589W        W43663  17.004  10.725   2.401  0.3836 -0.1473  0.1733
27590W        W43664  16.510  16.580  14.882 -0.1971  0.1443 -0.0565
27591W        W43665  14.192   2.592  15.341 -0.3924 -0.1601 -0.0973
27592W        W43666  10.192   1.180  10.748 -0.3182  0.1347  0.2758
27593W        W43667   8.102   4.204  14.132  0.1008 -0.0337 -0.0701
27594W        W43668   2.752  18.306   1.146 -0.0232  0.1118 -0.1140
27595W        W43669   3.695  13.865  12.570  0.2648 -0.1699  0.0881
27596W        W43670   8.215   3.983   2.739  0.2092 -0.3286 -0.1058
27597W        W43671  10.637   6.772  14.778  0.1841  0.1293 -0.1533
27598W        W43672  17.341  13.623  15.429 -0.1526  0.0791  0.1529
27599W        W43673  14.475   1.890  13.186  0.0466  0.2198 -0.2115
27600W        W43674   2.616  18.097   5.070 -0.2428  0.3073 -0.0181
27601W        W43675  15.840  14.193   5.401 -0.1132 -0.4629  0.0811
27602W        W43676  14.410   1.897   4.847 -0.1596  0.1491  0.1237
27603W        W43677  10.512  14.960  11.125 -0.2004  0.0658  0.0791
27604W        W43678  14.516  11.110  15.898 -0.2296 -0.2200  0.2442
27605W        W43679   0.388  10.027   3.553 -0.1422  0.0130 -0.0446
27606W        W43680  14.097  12.736   1.177  0.1931 -0.1750  0.2648
27607W        W43681   6.058   9.064  14.410  0.2880  0.1929  0.0254
27608W        W43682  12.916  14.875  13.745 -0.2988 -0.1998 -0.0284
27609W        W43683   6.892  14.512  11.406  0.2885 -0.1688 -0.1252
27610W        W43684  10.618   9.681  15.892 -0.0947  0.2901 -0.0060
27611W        W43685  12.951  13.091   5.089  0.3320  0.2608 -0.2026
27612W        W43686   9.422  13.304  11.249  0.1636  0.0208 -0.0980
27613W        W43687   5.671   9.172   3.517  0.0685 -0.1346 -0.0383
27614W        W43688  11.551   8.662   3.065 -0.3023 -0.2326 -0.0209
27615W        W43689   1.610   0.123  15.735 -0.1778 -0.3684 -0.2152
27616W        W43690   8.054  13.494  11.948 -0.1040  0.2819 -0.1114
27617W        W43691  10.187   6.013   4.613  0.0058  0.1313  0.3288
27618W        W43692  13.212  13.125   0.151 -0.0987 -0.0197 -0.3838
27619W        W43693   9.469  14.330   2.621  0.3866  0.0234  0.2519
27620W        W43694   8.425  13.028   3.798  0.4844  0.0707  0.2174
27621W        W43695  12.597   1.248  13.860  0.1655 -0.0273  0.0321
27622W        W43696  17.405  12.098  14.722 -0.0414  0.1661 -0.3001
27623W        W43697  13.022  11.567  14.588  0.3234 -0.0432  0.2431
27624W        W43698  18.067  16.685   1.907 -0.0397  0.0181  0.0644
27625W        W43699   4.006   9.204   6.406 -0.0644  0.3275 -0.1096
27626W        W43700  16.387   6.945   3.748  0.1200 -0.0289  0.0240
27627W        W43701  14.500   8.290   1.355  0.1417  0.0007 -0.0776
27628W        W43702   6.131   3.043  15.292  0.0475 -0.1152  0.0483
27629W        W43703   4.333  17.901   2.180 -0.0844  0.0580 -0.1141
27630W        W43704  13.244  12.103  12.284 -0.1451 -0.3890 -0.5117
27631W        W43705  17.170  15.701  12.282 -0.0487  0.1419 -0.2125
27632W        W43706   1.937   3.591   2.039 -0.1150 -0.1030 -0.0869
27633W        W43707  17.746  15.313   0.795  0.1328  0.0684  0.4191
27634W        W43708   9.474  11.655   3.952  0.3149 -0.2622 -0.2420
27635W        W43709   5.343   8.675   0.371  0.5357  0.2562  0.1133
27636W        W43710   9.167  10.314  15.940  0.2153 -0.3628  0.1539
27637W        W43711   9.777  18.317  14.519 -0.0150 -0.0640 -0.1816
27638W        W43712  12.784  13.252   0.393 -0.1268  0.1122 -0.0069
27639W        W43713   3.527   2.941  15.776  0.2365 -0.0382  0.0016
27640W        W43714  18.063   4.858   4.610  0.1446 -0.0996  0.1732
27641W        W43715  15.126   0.428   0.584  0.0428 -0.3738  0.0531
27642W        W43716  10.488   5.177  13.053  0.1703 -0.4185 -0.2662
27643W        W43717   6.627  11.265  14.840  0.1393  0.2801  0.2809
27644W        W43718  18.340   5.254   4.679  0.0196 -0.2666  0.0584
27645W        W43719  13.190  14.915  14.228 -0.0888  0.1776 -0.2117
27646W        W43720   5.642  17.686   1.855  0.0000 -0.1095  0.2088
27647W        W43721   0.851   5.718   4.641 -0.2580  0.0016 -0.0664
27648W        W43722  15.528   6.634  12.496  0.1096 -0.1863 -0.2963
27649W        W43723  17.737   0.638  15.173 -0.2563 -0.1314  0.2145
27650W        W43724   3.766   6.667   6.006  0.1211 -0.0405  0.1516
27651W        W43725  16.321  12.074   3.168 -0.0416 -0.1019  0.1190
27652W        W43726   8.309   7.521   0.570 -0.3413 -0.1952 -0.0671
27653W        W43727   9.504  16.005  13.769  0.3801  0.1144 -0.1529
27654W        W43728   9.530  13.020   0.896 -0.4100 -0.1893 -0.0589
27655W        W43729  10.208   7.444  15.263  0.0656 -0.2906  0.1075
27656W        W43730   1.576  15.850  13.097  0.2079  0.1337  0.3195
27657W        W43731   4.549   7.137   5.036 -0.1626  0.0411 -0.2358
27658W        W43732   2.103   3.335  14.699  0.2164 -0.0475  0.1623
27659W        W43733   6.360  10.725   1.881 -0.0344  0.0281  0.1443
27660W        W43734   8.267   3.801   1.337  0.0205  0.1439 -0.0289
27661W        W43735   4.988   5.282   0.036  0.3465 -0.0243 -0.0143
27662W        W43736  15.519  15.779   1.712 -0.2033 -0.4512 -0.3351
27663W        W43737  18.088  14.724   5.040 -0.2630  0.4121  0.1602
27664W        W43738   6.368  10.896   1.367 -0.0660  0.2778 -0.3625
27665W        W43739  15.725  18.558  14.112 -0.3536 -0.0123 -0.0469
27666W        W43740   0.436  14.849   4.883 -0.1184  0.0449  0.2569
27667W        W43741  10.037   5.748  14.589  0.3754 -0.0216  0.5387
27668W        W43742   4.074   3.767   1.335 -0.3226  0.1459 -0.1120
27669W        W43743  10.098   2.998  14.566  0.0988  0.0071 -0.2056
27670W        W43744   2.264   9.360  15.154 -0.1447  0.0224 -0.1279
27671W        W43745   2.271   7.107   0.909  0.1726  0.1136  0.2036
27672W        W43746  13.411  10.310   0.002 -0.1570 -0.0619 -0.1391
27673W        W43747   3.384   0.266  14.421 -0.2818  0.1599 -0.0522
27674W        W43748  17.262   9.340  14.019 -0.2527 -0.0687 -0.0508
27675W        W43749   0.801   6.269  14.053 -0.2249  0.0746  0.0885
27676W        W43750  18.563  11.654  15.697  0.1665  0.3782 -0.0081
27677W        W43751   2.389   9.068   4.393  0.0074  0.1718  0.0799
27678W        W43752  11.318  12.135  15.713 -0.1362 -0.1853  0.1709
27679W        W43753   5.744  11.514  15.283  0.3410  0.2483  0.1055
27680W        W43754   0.777   1.341  11.034  0.1147 -0.0471 -0.0396
27681W        W43755  14.481  13.866   1.453  0.2031  0.4676  0.2617
27682W        W43756   2.686  15.315  14.349  0.2889  0.1795 -0.0009
27683W        W43757  11.867   8.539  12.884  0.0845 -0.2606 -0.1381
27684W        W43758  15.866  17.165   2.150  0.3863 -0.1592  0.0650
27685W        W43759   2.732  11.115   1.066  0.1539 -0.1871 -0.3968
27686W        W43760   1.326  16.078   1.249 -0.0270 -0.1317  0.1127
27687W        W43761  10.063   0.091   2.238 -0.1434 -0.2885  0.0073
27688W        W43762  14.514  14.264   6.013  0.2181  0.1128 -0.1991
27689W        W43763   4.730   6.176   3.677  0.0685  0.0911  0.3042
27690W        W43764   0.346  11.587  13.070  0.4103 -0.0905 -0.2765
27691W        W43765  14.186   0.145  15.740  0.0678 -0.3244  0.2398
27692W        W43766   4.034   4.548   2.348  0.1203 -0.3473 -0.0310
27693W        W43767   9.050  18.059  10.952 -0.2665 -0.0802 -0.2507
27694W        W43768   5.173   9.483   2.150  0.0775  0.2965  0.2057
27695W        W43769   3.610   5.029  15.212 -0.0350  0.1071  0.2553
27696W        W43770  15.504   1.863  11.773 -0.0956  0.1706  0.1158
27697W        W43771   9.621   7.123  11.862  0.0553 -0.1351  0.0918
27698W        W43772  17.793  14.910  13.840  0.4629  0.2159 -0.4034
27699W        W43773   7.603  13.100  14.133  0.4008  0.1594  0.1817
27700W        W43774   5.921  16.347  12.413 -0.4873 -0.1546  0.2345
27701W        W43775   1.188  16.971   2.755  0.2620  0.3433 -0.3278
27702W        W43776  11.476   5.215  11.964  0.0616  0.1891 -0.2023
27703W        W43777   7.252  17.004  12.242  0.0598 -0.1545 -0.1317
27704W        W43778  11.624  13.491  15.657 -0.1069  0.1910  0.0453
27705W        W43779   9.693  10.638  15.307 -0.0393  0.3788 -0.0825
27706W        W43780   0.353  17.165   2.776 -0.0284 -0.1832 -0.2181
27707W        W43781  15.469  13.436   0.418  0.0677 -0.3859  0.3594
27708W        W43782   5.674  14.713   2.473  0.2092  0.1379 -0.0684
27709W        W43783   2.350  14.080  12.076  0.0674 -0.0727 -0.2475
27710W        W43784   7.584  15.721   0.177  0.2218 -0.0901  0.1080
27711W        W43785   0.813  10.724   3.081 -0.0266  0.2203  0.3053
27712W        W43786   7.678   5.176  12.581  0.1070 -0.0280 -0.3109
27713W        W43787   4.691   6.120  12.866 -0.0223 -0.1238 -0.1701
27714W        W43788  15.444   4.310   1.506 -0.0704  0.1724 -0.0630
27715W        W43789  16.203   6.460  15.714  0.0939  0.1541 -0.0531
27716W        W43790  18.425  10.736   2.046 -0.2506  0.1141 -0.0999
27717W        W43791   2.377   4.539  12.119  0.2152 -0.2949 -0.0451
27718W        W43792   7.077   7.825   4.754  0.2603  0.0906  0.0328
27719W        W43793  16.911  15.347  13.091 -0.0208 -0.2014 -0.1207
27720W        W43794   9.703   4.533  12.922  0.1399  0.0127 -0.1155
27721W        W43795  17.816   4.877  13.735  0.3710  0.0571 -0.1230
27722W        W43796  12.243  16.661   4.999  0.0276  0.1904  0.1295
27723W        W43797  16.058   7.781   3.386  0.0661  0.0347  0.1671
27724W        W43798  10.796  15.103   3.671  0.1937  0.2746 -0.0289
27725W        W43799  12.598   0.572   2.183 -0.1086 -0.3465 -0.2064
27726W        W43800   0.321  11.116   0.196  0.1379  0.2774 -0.2040
27727W        W43801   3.864  13.930  14.716 -0.1542  0.1233 -0.3023
27728W        W43802   1.362   7.299  15.575 -0.0875 -0.2548  0.0745
27729W        W43803   7.824   5.290   0.164  0.1427 -0.1671 -0.0820
27730W        W43804  15.897  11.929   3.447  0.2232  0.0553 -0.3319
27731W        W43805   3.369   6.067   5.073  0.2312  0.2630 -0.0686
27732W        W43806   1.355   3.966  14.772  0.1841 -0.0572  0.2040
27733W        W43807  15.543   3.754   0.983 -0.4539 -0.2392  0.1841
27734W        W43808  11.305   4.266   2.571  0.0446 -0.0301 -0.1110
27735W        W43809  14.282   8.547   2.264  0.3624 -0.2957  0.1255
27736W        W43810   0.410   9.637  11.860  0.2327  0.1032  0.0748
27737W        W43811   7.703  13.325   4.244  0.0666 -0.0158  0.2374
27738W        W43812  12.153   9.879  13.233 -0.0563  0.0961  0.3398
27739W        W43813  14.605  16.065  12.006  0.1279  0.0937 -0.3890
27740W        W43814   4.706   9.316  12.542 -0.1924  0.2450  0.1743
27741W        W43815  17.348   3.838   0.617  0.2013 -0.0789  0.5181
27742W        W43816   7.133  14.320  11.968 -0.3309  0.2824  0.0647
27743W        W43817   8.218  14.036   0.114 -0.0800  0.0851  0.1244
27744W        W43818  15.594  17.641  15.596  0.2200 -0.1741  0.2563
27745W        W43819  12.506   0.486  14.135 -0.1120 -0.3185 -0.0273
27746W        W43820  12.307  11.430  12.997 -0.2639  0.1438 -0.3596
27747W        W43821   4.597   9.933  13.322  0.0619 -0.1055  0.2472
27748W        W43822  11.586  16.783  10.950  0.0130 -0.1057  0.1847
27749W        W43823  13.626  14.796  15.699 -0.0507  0.0832 -0.1691
27750W        W43824  10.021  11.604   5.345  0.1204 -0.0018  0.1627
27751W        W43825   8.673   4.285   5.324  0.0195 -0.1201 -0.0192
27752W        W43826  16.466  15.966  11.440 -0.1337 -0.2616 -0.1205
27753W        W43827  15.558   2.371  15.649  0.1600  0.0938 -0.0076
27754W        W43828  17.403  16.277   3.639 -0.1269  0.0366 -0.2163
27755W        W43829   2.531   8.979  11.941  0.1454 -0.0063  0.0403
27756W        W43830   5.855  11.891   2.225  0.1369  0.2522  0.3125
27757W        W43831  12.886   8.775  14.988  0.1424 -0.3973  0.1340
27758W        W43832   2.580  14.896  13.802 -0.2743  0.0405  0.0765
27759W        W43833   2.755  10.863  11.655 -0.0751 -0.0328 -0.0320
27760W        W43834  17.640   2.137   4.576 -0.3296 -0.0946  0.0345
27761W        W43835   8.440   3.005   5.045 -0.0257  0.1293  0.1501
27762W        W43836  11.928   5.250  12.773 -0.0707  0.4700  0.2087
27763W        W43837   2.760  14.904   4.174 -0.0170  0.0642  0.1426
27764W        W43838  13.726  18.231  11.966  0.2654 -0.0827 -0.4743
27765W        W43839   6.247  17.251   2.486  0.4405  0.0985 -0.1633
27766W        W43840   2.356  17.532  12.951 -0.2041 -0.2333  0.0097
27767W        W43841  12.843   9.799  15.444 -0.1531 -0.0960 -0.0280
27768W        W43842   3.840  12.872   3.609  0.2569 -0.2278 -0.0334
27769W        W43843   3.718   4.340   0.851  0.3708 -0.1653  0.0024
27770W        W43844  17.891  13.729   4.858 -0.1576  0.0098 -0.0515
27771W        W43845   3.247   1.032  12.943 -0.1711  0.2028 -0.1139
27772W        W43846  16.464  16.380   3.564 -0.2156  0.0454 -0.3121
27773W        W43847  11.595  14.732  13.300 -0.1978 -0.0798  0.0221
27774W        W43848   0.905   6.438   3.023  0.0503  0.0723  0.0193
27775W        W43849   4.755   0.723   1.496 -0.0187 -0.0084  0.1410
27776W        W43850   3.065   6.859   2.714 -0.2000  0.2306  0.3193
27777W        W43851   1.151   1.565   3.050 -0.1811 -0.1470 -0.1989
27778W        W43852  11.458   9.739  14.369  0.2127  0.1179 -0.1019
27779W        W43853  12.606   2.111   0.105 -0.1276 -0.1189 -0.1262
27780W        W43854   0.743  17.457  12.282  0.2805  0.2145  0.1206
27781W        W43855   5.485  17.710  12.685 -0.2280 -0.0711 -0.1236
27782W        W43856   9.699  18.461   4.753  0.1865 -0.0082 -0.0792
27783W        W43857  18.509  17.265   1.204  0.3292 -0.2666  0.1740
27784W        W43858  17.971   9.850  13.115 -0.2237 -0.1878 -0.0795
27785W        W43859   4.615   0.274   5.169  0.2655 -0.0147  0.2125
27786W        W43860   1.522  11.208   2.849 -0.3833 -0.0424 -0.1797
27787W        W43861   9.463   4.418   0.896  0.2049 -0.2459  0.0174
27788W        W43862   9.229   7.759  12.852  0.2339  0.0157  0.1547
27789W        W43863  18.198   2.211  15.527 -0.0487  0.1456  0.1131
27790W        W43864   9.378   6.870  12.369 -0.3405 -0.1940  0.1586
27791W        W43865  12.814  15.140   4.656  0.1718  0.1418 -0.1466
27792W        W43866   1.008   3.932   2.225 -0.2532 -0.0132 -0.1624
27793W        W43867   4.595  14.750   1.193 -0.3088 -0.2812  0.1870
27794W        W43868  17.545   9.810  14.183 -0.1257 -0.2474  0.1862
27795W        W43869   8.034   2.320  12.543 -0.0733  0.0957 -0.2075
27796W        W43870  18.458   7.078  13.287 -0.0805 -0.1728  0.3970
27797W        W43871  13.050   0.952  11.978  0.2878  0.1033 -0.1575
27798W        W43872   2.357   9.801  13.692 -0.1065 -0.2029 -0.1943
27799W        W43873   5.584  18.071   5.263  0.1432  0.2926 -0.0009
27800W        W43874   2.620   9.465   4.655 -0.1694 -0.2788 -0.0598
27801W        W43875  15.406  14.465  13.116  0.1586 -0.1989 -0.2866
27802W        W43876  14.250   3.450  13.846 -0.1055  0.2584  0.0257
27803W        W43877   9.394  10.247  15.386  0.0182  0.0209  0.0162
27804W        W43878   3.993   9.789   2.438 -0.0547  0.0039  0.1312
27805W        W43879   1.121   3.286  12.112 -0.1418  0.0948  0.1665
27806W        W43880   7.241  17.406   2.303 -0.2298  0.0660  0.0517
27807W        W43881   5.715   0.962   1.189 -0.0437 -0.2325 -0.1991
27808W        W43882   2.957   2.748   1.184  0.0907 -0.2297  0.0676
27809W        W43883   1.805   6.726  12.227 -0.2047  0.0857  0.0370
27810W        W43884   8.068   7.717   4.252  0.3124 -0.1072 -0.1525
27811W        W43885   1.199   2.166  13.836  0.2427 -0.0419  0.0109
27812W        W43886  15.872  17.731  13.425 -0.1918  0.1741  0.1607
27813W        W43887  14.330   7.156  13.278 -0.1727 -0.2139 -0.1880
27814W        W43888  18.526   3.483   1.349  0.0123  0.1114 -0.2565
27815W        W43889  10.287   8.833   1.868  0.0695 -0.3510  0.0066
27816W        W43890   4.669   5.630  13.812 -0.1204  0.3977  0.0698
27817W        W43891  15.720   5.875  12.183  0.1512  0.2120  0.2149
27818W        W43892   5.234  18.368  14.383 -0.0196 -0.0112  0.0894
27819W        W43893  18.446   4.002   1.138 -0.0624 -0.0016 -0.1522
27820W        W43894   7.037  16.443  13.306 -0.0794 -0.0889  0.2142
27821W        W43895   7.035  11.346   5.346  0.0640  0.1339 -0.1456
27822W        W43896  16.601   7.660  13.962 -0.1737  0.0970  0.3307
27823W        W43897  14.293  12.413   3.924  0.0096  0.4696  0.3665
27824W        W43898  11.499   4.260   1.857  0.2232 -0.0112 -0.3861
27825W        W43899  16.218  11.864   4.757 -0.1560  0.2343  0.1605
27826W        W43900  14.883   3.812  14.985 -0.1806 -0.0807 -0.0296
27827W        W43901  11.374   9.186   0.243  0.2686  0.0384 -0.0998
27828W        W43902  12.280   7.593  11.604 -0.0771  0.2028 -0.0296
27829W        W43903  12.879  11.253   1.486 -0.0529 -0.0196  0.2580
27830W        W43904   6.902  15.351  15.392 -0.0585 -0.2470 -0.1833
27831W        W43905  12.821  16.392  12.897 -0.1989 -0.0968  0.0864
27832W        W43906   0.213  11.259   2.601  0.0570  0.0646  0.1289
27833W        W43907   9.109   4.661   0.071  0.2220  0.3262 -0.1004
27834W        W43908   4.470   7.910   0.997  0.0049  0.2220 -0.0666
27835W        W43909  16.107   3.396  11.029  0.1816  0.0125  0.0834
27836W        W43910   3.761   3.715  15.214  0.4926 -0.0887 -0.3699
27837W        W43911  14.268  12.630   5.082  0.1004 -0.3392 -0.0314
27838W        W43912   3.509   3.492   5.799 -0.1365 -0.3325  0.0782
27839W        W43913   0.795   9.717   3.624  0.2805 -0.0861 -0.1550
27840W        W43914  17.997  16.720  12.495  0.1608  0.2740  0.1908
27841W        W43915   4.126  11.920   2.750 -0.3937 -0.0058 -0.3534
27842W        W43916  14.123   4.157   2.247  0.1874  0.1295 -0.0604
27843W        W43917   3.995  16.811   3.403 -0.1012  0.1944 -0.1615
27844W        W43918   5.287  17.172  14.712 -0.1040  0.1634 -0.0071
27845W        W43919  15.755  16.012  13.907 -0.2961  0.0175  0.0104
27846W        W43920  13.482  17.092  12.954  0.1403 -0.3481 -0.1691
27847W        W43921   0.896   0.807  11.278 -0.2557  0.1382  0.1062
27848W        W43922  11.191   3.380  15.449  0.0714  0.0920 -0.0041
27849W        W43923   2.843   2.597   2.162  0.2155  0.0436  0.1800
27850W        W43924   2.145   8.947   3.315  0.2288 -0.3923  0.1117
27851W        W43925  18.006   1.906   4.881  0.1808  0.1001  0.0199
27852W        W43926  14.502  13.138  11.241  0.0699 -0.1435 -0.4173
27853W        W43927   0.724   0.850  11.836  0.3195 -0.5279  0.1189
27854W        W43928  12.442  13.646  12.507  0.0987  0.1427 -0.0563
27855W        W43929   0.395   5.200   1.798 -0.2186 -0.1237 -0.0652
27856W        W43930   7.475   3.829  15.309 -0.0605  0.2380 -0.0912
27857W        W43931  15.079  18.245   2.586  0.1420  0.1913 -0.3194
27858W        W43932   4.298   4.030   4.630 -0.0303 -0.2833 -0.0733
27859W        W43933  16.188   3.009   2.445 -0.0901 -0.3632  0.1261
27860W        W43934   4.346  13.907  13.227  0.3013  0.0217 -0.0633
27861W        W43935   3.358  11.998   4.700 -0.0519  0.1497  0.3047
27862W        W43936   9.155  13.495   4.450 -0.1380  0.4346 -0.3129
27863W        W43937  17.292   7.933  12.330  0.0787  0.1853 -0.2139
27864W        W43938  10.480   4.409   3.507 -0.2538  0.0083  0.1968
27865W        W43939  18.549  10.332   1.809 -0.0529 -0.1239 -0.2844
27866W        W43940   1.340  15.893   4.383  0.1816 -0.0361 -0.2665
27867W        W43941   2.000   6.041   3.837 -0.2265 -0.0643 -0.0040
27868W        W43942  12.840  17.600  15.190 -0.3462  0.4477 -0.0049
27869W        W43943   6.113  12.598   2.828 -0.0093  0.1474  0.0900
27870W        W43944   0.267  15.268   2.344  0.1485  0.0451 -0.0988
27871W        W43945   1.845  16.445  11.075  0.3333 -0.0263  0.0498
27872W        W43946   0.710   6.208  15.167  0.0689 -0.1189  0.1659
27873W        W43947  17.989  15.430  14.517 -0.3215  0.3656 -0.2337
27874W        W43948  17.851   0.313   0.320 -0.1694  0.1732  0.2150
27875W        W43949   4.914   0.848   0.953 -0.3201  0.0853  0.2077
27876W        W43950  16.600  13.614  12.834  0.2455  0.0125 -0.0551
27877W        W43951  15.448   2.473  12.267  0.1607  0.2476  0.1677
27878W        W43952   2.932   9.249   0.288  0.0230 -0.2529  0.1931
27879W        W43953  16.757   9.838   1.863  0.0432  0.2312 -0.0460
27880W        W43954  11.846   1.663  12.646  0.3754 -0.2150 -0.2060
27881W        W43955   8.770  13.535  13.855  0.0643 -0.0954  0.2244
27882W        W43956   8.904   8.862  13.584 -0.0782 -0.1485  0.3309
27883W        W43957  17.116   7.306  10.307 -0.5247  0.1920 -0.0988
27884W        W43958   3.427  10.730   0.588 -0.1492  0.2125 -0.1344
27885W        W43959  11.625   2.144  14.135 -0.1576 -0.1201 -0.1226
27886W        W43960   7.759   5.287   2.859  0.0125 -0.0605 -0.1686
27887W        W43961  12.787  17.710  13.280 -0.0239  0.3150 -0.2078
27888W        W43962   0.669  14.733   6.140  0.0705  0.3179 -0.0143
27889W        W43963  13.708  11.812   3.301 -0.0413  0.1440 -0.0342
27890W        W43964   4.208   7.346   4.449  0.1030 -0.1230  0.3656
27891W        W43965   5.334   6.131  12.073  0.2568 -0.1346 -0.1351
27892W        W43966  14.873  11.251   2.890  0.0950  0.1627  0.0925
27893W        W43967  15.483  10.094   2.227 -0.1472 -0.4553 -0.0563
27894W        W43968   1.931  11.371   4.602  0.1103  0.0397  0.1169
27895W        W43969   2.348   1.263  12.008  0.1426  0.0542  0.2413
27896W        W43970   3.358   5.868   2.884  0.2177  0.1416  0.2597
27897W        W43971   5.131   5.366   5.131  0.2356 -0.0445 -0.1540
27898W        W43972   7.009  13.655   5.584  0.0043 -0.2376 -0.1263
27899W        W43973  16.783   8.372   0.009  0.5140  0.0657  0.0704
27900W        W43974   3.538   6.384   1.029  0.1080  0.0013  0.0163
27901W        W43975   5.389   5.263   2.754 -0.1975  0.1217 -0.1174
27902W        W43976   0.557   6.153  12.219 -0.2383  0.2649  0.0281
27903W        W43977  11.611   8.258  13.283 -0.2052  0.1099  0.1705
27904W        W43978   4.464   9.988   5.639 -0.3189  0.1501 -0.0581
27905W        W43979  17.897   2.312  10.672  0.0234  0.0192  0.0677
27906W        W43980   0.758   0.654  13.370 -0.0729  0.1129  0.2758
27907W        W43981  12.087   6.341  11.806 -0.1865  0.1430 -0.1085
27908W        W43982  11.795  16.277   1.664 -0.0536 -0.3578 -0.0153
27909W        W43983  17.912  15.854   0.823  0.4141 -0.1429 -0.0532
27910W        W43984   1.436   2.422  11.860  0.1547 -0.0414  0.1266
27911W        W43985  10.805   3.787   3.371 -0.0569 -0.2246  0.0684
27912W        W43986   6.168   0.093  15.801 -0.2734 -0.2972 -0.1776
27913W        W43987  15.765   4.093  11.472  0.0989  0.2054 -0.0933
27914W        W43988   8.346   1.575  12.482  0.2273  0.2622  0.1870
27915W        W43989  15.566  16.736  11.243 -0.1420 -0.2200 -0.1860
27916W        W43990   8.404  14.696   1.841  0.1698 -0.1910 -0.2737
27917W        W43991   4.208  14.200   5.004  0.0013 -0.2347 -0.0516
27918W        W43992   4.892  18.205  12.517 -0.4759  0.1857 -0.1846
27919W        W43993   6.969   9.104  12.824 -0.3563  0.0124  0.0979
27920W        W43994   0.275  16.729   5.108 -0.0520  0.2854  0.2258
27921W        W43995  13.824  16.299  10.763 -0.0309 -0.4479 -0.2098
27922W        W43996   9.273   9.648   4.040  0.1747 -0.0757 -0.0512
27923W        W43997  17.016   2.538  14.567 -0.0698 -0.0115 -0.1256
27924W        W43998  10.576  16.578   4.579  0.1322  0.0721 -0.0127
27925W        W43999   0.013  12.190  11.015 -0.1443 -0.2319 -0.1563
27926W        W44000   9.242  12.834  15.545  0.0361 -0.0077  0.1381
27927W        W44001   1.067  17.170   4.466 -0.2974  0.0662 -0.0158
27928W        W44002  10.097   3.130   0.870  0.4439 -0.1034  0.3159
27929W        W44003   3.912  12.654   0.220  0.2851 -0.4472  0.0651
27930W        W44004   0.336  10.668   1.860  0.1365 -0.1284  0.2729
27931W        W44005   3.506   7.835   4.813  0.0346 -0.0961 -0.1365
27932W        W44006  13.485  13.303  13.769  0.5782  0.0822 -0.2464
27933W        W44007  11.740   5.193  13.207 -0.0117 -0.1392  0.0005
27934W        W44008  16.297   2.130   3.679 -0.2141 -0.1908 -0.1584
27935W        W44009   4.633  10.736  12.328 -0.0909 -0.0116 -0.0860
27936W        W44010   1.416  11.365   0.191 -0.1634  0.1971 -0.3421
27937W        W44011  10.890  13.078  14.238 -0.1693  0.4534  0.1034
27938W        W44012  12.834   6.499   2.131  0.2700 -0.2522  0.0589
27939W        W44013  10.543   4.105  11.209  0.0498 -0.0080 -0.3065
27940W        W44014   4.259   6.213   5.252 -0.1317  0.2161  0.0801
27941W        W44015  13.529  14.037  10.190  0.2722  0.1140 -0.1686
27942W        W44016   9.208  10.027   4.329  0.0842 -0.2191  0.0479
27943W        W44017   5.656   1.748  13.059 -0.0516  0.1004 -0.2631
27944W        W44018   9.909  12.723   0.719  0.0161 -0.1209  0.0905
27945W        W44019   7.170  13.543   4.813 -0.0869 -0.0741 -0.0054
27946W        W44020  14.889  13.602   1.606  0.1389 -0.0240 -0.3514
27947W        W44021  11.664   7.795   4.379  0.1403  0.0320  0.0190
27948W        W44022  11.990  17.976  10.905 -0.3263  0.1708  0.0670
27949W        W44023   0.418  12.423   4.675  0.2763 -0.2029 -0.1255
27950W        W44024  18.182  15.135  14.132  0.0687  0.0791 -0.2919
27951W        W44025  16.364   7.809   4.784  0.1887 -0.0649 -0.2310
27952W        W44026   6.869   0.041   1.904 -0.1473 -0.1102  0.2827
27953W        W44027   7.876  15.348   0.351 -0.0572 -0.3155 -0.1353
27954W        W44028   4.327   2.678   1.678  0.4438  0.0518 -0.0211
27955W        W44029  18.084   8.466   1.750 -0.2541 -0.2990  0.1355
27956W        W44030   6.534   5.916  13.040  0.1773  0.2573  0.0847
27957W        W44031  13.484   1.292  12.981  0.1529  0.0058  0.0858
27958W        W44032   5.439  11.535  12.919 -0.1578 -0.1167  0.0916
27959W        W44033  16.106  17.123  14.888  0.0511  0.0818 -0.2386
27960W        W44034   1.352   8.750   5.031  0.4486  0.0683  0.2244
27961W        W44035   5.258   0.767   3.375  0.1216 -0.1421 -0.1795
27962W        W44036  14.539  15.334   0.553 -0.1799 -0.2345  0.2214
27963W        W44037  16.370  16.282   1.583  0.0904  0.1379  0.2382
27964W        W44038   7.979   8.868   2.752 -0.3220  0.1151 -0.1677
27965W        W44039   2.712  11.632  15.009 -0.3144  0.2705  0.2235
27966W        W44040  13.453   9.966  12.726  0.1890 -0.1464 -0.3602
27967W        W44041  12.587  11.363  11.510  0.1086 -0.0330  0.1726
27968W        W44042  11.274   0.170  15.018 -0.1407  0.1035 -0.5153
27969W        W44043   6.018  16.844  12.404 -0.0938 -0.0599  0.0622
27970W        W44044  12.133  15.713   2.809  0.2260  0.3275  0.0524
27971W        W44045   8.364  18.044   4.973 -0.0956 -0.2424 -0.0302
27972W        W44046   5.382   2.855  13.079  0.0801 -0.1580  0.3233
27973W        W44047  11.531  15.055   1.344  0.0086  0.0367 -0.1522
27974W        W44048   0.901   4.905   3.468  0.3525 -0.1948  0.2839
27975W        W44049   3.280   8.402  14.199 -0.1198  0.1188  0.0751
27976W        W44050   8.008   5.635  11.290  0.1051  0.1831  0.0627
27977W        W44051   5.364   1.804   5.302  0.1253  0.4346  0.3876
27978W        W44052  15.516   2.630   3.152  0.1675  0.1855  0.0415
27979W        W44053  13.134  13.850   1.800 -0.0544  0.1841 -0.0426
27980W        W44054  13.417   4.057  15.407 -0.2314 -0.4104 -0.1231
27981W        W44055  14.290   1.375   2.324 -0.3272 -0.0046 -0.0965
27982W        W44056   9.471   4.215   3.591  0.0082 -0.1885 -0.0433
27983W        W44057  12.854  10.639   3.249 -0.0004 -0.0597 -0.2197
27984W        W44058  13.960  17.444  13.018 -0.2332 -0.4725  0.0245
27985W        W44059   8.708  10.386  12.288  0.1278  0.3085  0.3925
27986W        W44060  13.335  17.611  15.152 -0.0653 -0.0723  0.1100
27987W        W44061  11.326   4.060   3.440  0.1009 -0.1887 -0.3486
27988W        W44062  16.118  11.868   2.173  0.0256 -0.0053 -0.4491
27989W        W44063   7.975  13.756   3.967  0.3628  0.1504 -0.2520
27990W        W44064   3.857   3.182   4.377  0.1864 -0.1276 -0.1327
27991W        W44065   9.699  15.753  15.232 -0.1911 -0.3093 -0.0958
27992W        W44066   5.621   3.170  15.381 -0.0079 -0.1500  0.0385
27993W        W44067   6.296  18.542  11.904  0.0469  0.1064  0.1605
27994W        W44068   9.831  17.595   3.366  0.2795 -0.0592  0.1881
27995W        W44069  11.361  17.765  15.972 -0.0976 -0.0988 -0.1099
27996W        W44070   4.193  17.956   4.096  0.0705  0.2096  0.1859
27997W        W44071   5.924   6.345  12.157 -0.2487  0.3387  0.3600
27998W        W44072  16.304  15.725   5.613 -0.4295  0.2062 -0.0751
27999W        W44073   5.227   1.125   0.387  0.1565  0.1338 -0.0781
28000W        W44074   3.724  10.288  15.111 -0.3479 -0.3055  0.0852
28001W        W44075   3.454  18.361  14.262  0.0783  0.1362 -0.1652
28002W        W44076  14.920  12.054   0.108  0.0357 -0.1082  0.1962
28003W        W44077   6.367   6.636   6.434  0.4608  0.4355 -0.0642
28004W        W44078   2.882  18.414  11.789 -0.1763  0.0743 -0.2110
28005W        W44079  10.709  14.210   3.341  0.1052  0.2682 -0.1397
28006W        W44080   0.205   7.724   0.641 -0.2268 -0.2106 -0.0785
28007W        W44081  12.633  17.509   3.732 -0.0416 -0.1813 -0.0036
28008W        W44082  15.926   8.241   3.343  0.4031  0.1534  0.1556
28009W        W44083   5.180   4.326   2.080 -0.3067  0.0740  0.1153
28010W        W44084  11.124  13.012   2.640  0.2276  0.3917 -0.1445
28011W        W44085   3.331  11.007  15.260  0.2042  0.0676  0.3972
28012W        W44086  18.305   8.043  15.008  0.1694  0.1965  0.2571
28013W        W44087  15.599   6.396   3.805 -0.0555  0.0168 -0.4667
28014W        W44088   9.751  15.320  15.662 -0.2001 -0.0100 -0.1729
28015W        W44089  12.027   6.817   0.810 -0.3214  0.3182  0.2083
28016W        W44090  13.377  15.166  15.417  0.1657  0.2201  0.3412
28017W        W44091  10.610  15.492   3.947  0.0580 -0.1443  0.4260
28018W        W44092   4.607  13.133  13.723  0.0568 -0.1847 -0.1119
28019W        W44093   0.567  15.159   5.296  0.0770  0.2851 -0.2458
28020W        W44094  15.258  17.076   0.356  0.2077 -0.1030 -0.2753
28021W        W44095  14.902   2.957   1.562 -0.0136 -0.2682  0.2421
28022W        W44096  14.361  15.996   1.528 -0.3047 -0.2001  0.0794
28023W        W44097   2.752   9.013   1.504  0.1334  0.3570 -0.2494
28024W        W44098  17.742  13.266   1.063  0.1027 -0.2294 -0.5164
28025W        W44099  12.388  13.163   0.089  0.4147  0.1375  0.0644
28026W        W44100   7.933  15.666   1.243  0.2273 -0.1761 -0.2201
28027W        W44101  12.314   1.745   1.590  0.1661 -0.4687 -0.2015
28028W        W44102   0.684   6.561  13.017 -0.0177 -0.0330  0.5438
28029W        W44103   8.647  11.629  14.651 -0.0600 -0.1523 -0.0488
28030W        W44104  12.127   0.608  15.473 -0.0169 -0.4612  0.1020
28031W        W44105   9.606  17.022   5.282 -0.3032 -0.0650  0.1979
28032W        W44106   9.756   8.104  12.183 -0.3923 -0.4093  0.0039
28033W        W44107  14.733   4.349   0.018 -0.2413 -0.0988  0.1455
28034W        W44108  15.724   1.465  10.814 -0.0003  0.4141  0.0778
28035W        W44109   2.718  12.016   0.875  0.1457 -0.0880 -0.0525
28036W        W44110   0.632  14.719  15.392 -0.1769 -0.1072 -0.2018
28037W        W44111  12.286   4.499   2.155  0.2881 -0.1435 -0.2838
28038W        W44112   7.878   5.458   3.348  0.0823 -0.0726 -0.3315
28039W        W44113  16.006   5.262  13.504 -0.0395 -0.0703 -0.0893
28040W        W44114  16.808  15.090  11.820 -0.0744 -0.0508  0.2264
28041W        W44115  10.206  16.343  11.279  0.2960  0.1761 -0.3421
28042W        W44116   6.289   6.851  12.056 -0.2025 -0.1102 -0.1645
28043W        W44117  10.400  12.986   1.862  0.0869 -0.0442 -0.0760
28044W        W44118   4.281   7.219  13.677  0.0371 -0.2674 -0.0671
28045W        W44119   4.052  15.633   2.024  0.1714 -0.3231 -0.1157
28046W        W44120  15.242   2.833   2.748  0.1319  0.0629 -0.0043
28047W        W44121   4.972  11.396   1.663  0.2700 -0.1164  0.1817
28048W        W44122   1.012  14.943   4.449 -0.2236 -0.1452 -0.1679
28049W        W44123   7.965  10.861  13.440 -0.1032 -0.0338 -0.0884
28050W        W44124   3.555  17.620   4.469 -0.0826 -0.0031 -0.0423
28051W        W44125   5.103   1.602   3.148  0.1265  0.0826  0.0204
28052W        W44126   1.567  11.315   1.175 -0.0668 -0.5027 -0.2612
28053W        W44127  12.130  12.191  14.306  0.2021 -0.0135  0.4072
28054W        W44128   9.183   6.244  15.503 -0.1936 -0.0713  0.2121
28055W        W44129   9.951  17.301  10.956  0.0114 -0.2837 -0.3707
28056W        W44130   2.535   5.414   5.529  0.0404 -0.0223 -0.2752
28057W        W44131   6.987   8.860   2.037  0.1260  0.0548  0.1893
28058W        W44132   8.712   2.916  11.708 -0.2328 -0.0517  0.0939
28059W        W44133  16.124   5.313  11.324 -0.1435  0.0119  0.0007
28060W        W44134   1.016  10.529  15.806  0.1648 -0.1034  0.0562
28061W        W44135   4.883  11.612   3.357 -0.0367 -0.1818 -0.0930
28062W        W44136  11.857   2.763   2.984 -0.0828 -0.2221 -0.0121
28063W        W44137  15.210  17.402   3.597  0.2038 -0.2121 -0.2121
28064W        W44138  17.994  16.590  15.215  0.3741 -0.2457  0.2228
28065W        W44139  16.919   5.121   2.796  0.1421  0.3466  0.0252
28066W        W44140  14.077   9.951  15.384 -0.0829 -0.2730 -0.1611
28067W        W44141  16.736   2.966  12.895  0.0390  0.0391  0.2635
28068W        W44142  16.755  18.258  11.027  0.1988  0.1753 -0.1715
28069W        W44143  13.661   6.759   1.374 -0.1237  0.0336  0.0652
28070W        W44144   8.690  10.820   0.956 -0.4081  0.0712  0.2107
28071W        W44145  13.157  17.159  15.840  0.1103 -0.0008  0.1948
28072W        W44146   7.549   9.779  15.784 -0.0233  0.0164 -0.1057
28073W        W44147  18.423  11.802  12.964 -0.0544  0.1299  0.1169
28074W        W44148   6.723  18.322   3.802 -0.0439 -0.1592 -0.0049
28075W        W44149   3.720  16.277  13.369 -0.0007 -0.1010 -0.3680
28076W        W44150   7.125   2.035  14.920  0.3765  0.4151 -0.0930
28077W        W44151   8.048  17.351   3.413  0.0178 -0.0103 -0.0824
28078W        W44152  17.752   1.399  13.751 -0.5692  0.0320  0.0406
28079W        W44153   4.151   2.367  14.228 -0.1493 -0.1529 -0.0152
28080W        W44154  12.631   1.332   1.354  0.0060 -0.0024 -0.1012
28081W        W44155  10.822   4.482  15.983  0.0868  0.2492  0.2736
28082W        W44156   4.196  12.465  10.418 -0.0380  0.0446 -0.1545
28083W        W44157   6.235   8.650   1.636  0.1444  0.2053  0.0707
28084W        W44158  17.602  18.085  10.649  0.0772  0.0597 -0.0717
28085W        W44159  13.802  15.010   1.848 -0.1076  0.2083 -0.2579
28086W        W44160   9.418   3.805  11.841  0.0863  0.0399 -0.1825
28087W        W44161   9.844  10.419   1.680 -0.3286 -0.1646 -0.1849
28088W        W44162   5.280  10.100   2.152  0.0214  0.2366  0.1049
28089W        W44163  13.905  18.444   2.967  0.1639 -0.1227 -0.1009
28090W        W44164   3.414   4.545   5.063 -0.2843 -0.0580  0.1132
28091W        W44165  16.651   7.279  15.587  0.0669  0.1491  0.1055
28092W        W44166  15.055  11.984   2.845  0.1602 -0.2084 -0.2277
28093W        W44167  10.841   6.019   3.593  0.0049  0.0469 -0.3490
28094W        W44168   0.039   5.870   1.416  0.0350  0.3520  0.0149
28095W        W44169  16.029   7.429  12.440  0.3064  0.0917  0.2367
28096W        W44170   6.475  11.872  15.605  0.2541  0.1431  0.0943
28097W        W44171   8.013   2.717   5.029  0.4400 -0.0204 -0.1098
28098W        W44172  13.469   4.232  13.956  0.1396 -0.0227  0.0055
28099W        W44173  12.990   6.035  14.393  0.2286  0.0204  0.5395
28100W        W44174   3.398   9.408   1.054 -0.0743  0.0584 -0.0628
28101W        W44175   0.798   6.195   4.865 -0.1489 -0.1078  0.1270
28102W        W44176   4.186   4.084  14.266  0.2477 -0.1095 -0.4319
28103W        W44177   8.596  17.975  11.753  0.3694 -0.1723  0.1536
28104W        W44178  17.931  13.691  14.492  0.0140  0.1589  0.2830
28105W        W44179   4.031   2.017  14.613 -0.2490 -0.2150  0.0561
28106W        W44180  11.902  10.299  15.067 -0.1430  0.0042  0.3062
28107W        W44181  17.433   2.878  11.384  0.0469  0.1587  0.2043
28108W        W44182  15.940   6.845   0.888 -0.3284 -0.2632 -0.4840
28109W        W44183  13.503   3.577  11.087 -0.2036  0.2481 -0.2179
28110W        W44184   9.225   9.972   1.907 -0.0123 -0.2988  0.1194
28111W        W44185   3.118  17.131   1.934 -0.1762 -0.0864  0.3352
28112W        W44186   9.557  13.433  14.212 -0.1596  0.1267  0.1400
28113W        W44187  10.421   6.684   4.374  0.0827 -0.1398 -0.0077
28114W        W44188   4.490  10.835   4.574  0.0664  0.0858  0.1161
28115W        W44189  18.370  10.888  12.689  0.0445 -0.1612 -0.2491
28116W        W44190  10.096   5.722   2.780 -0.2200  0.2434  0.0275
28117W        W44191   3.062   0.111  12.205  0.3381  0.1218 -0.0935
28118W        W44192  14.669  11.718  12.031 -0.0853  0.0594  0.1098
28119W        W44193   1.267   5.355  13.498 -0.0229 -0.3541 -0.2043
28120W        W44194   8.118  14.388   5.119 -0.2033  0.1556  0.1186
28121W        W44195  15.384   3.386  15.510 -0.1395 -0.1097 -0.0254
28122W        W44196   4.155  18.552  13.601  0.0661 -0.1814 -0.2905
28123W        W44197   1.382  14.390  14.426  0.2313  0.0660 -0.2045
28124W        W44198  11.529   7.959  11.368 -0.1085  0.0826  0.0637
28125W        W44199  17.068  11.389  12.445 -0.0200  0.0759 -0.2636
28126W        W44200  12.275  16.885  15.620  0.1874 -0.0289 -0.2377
28127W        W44201  15.883   3.835  12.105 -0.0310 -0.0665  0.0674
28128W        W44202  15.744   5.107  12.735  0.0505 -0.0463  0.1845
28129W        W44203   9.737  13.116   4.082 -0.0990  0.2868 -0.2042
28130W        W44204  10.094  16.071   2.270 -0.2517 -0.2461 -0.0996
28131W        W44205  10.447   4.959  13.808 -0.0169 -0.0513 -0.0323
28132W        W44206  13.514   4.340  14.867 -0.0024  0.0237  0.5927
28133W        W44207  12.676   3.290   3.025  0.3252  0.5082  0.2412
28134W        W44208   0.411  10.048  12.964 -0.3359  0.0178  0.1291
28135W        W44209   7.921   7.802   3.800 -0.0271 -0.0487  0.0065
28136W        W44210   1.757   3.930   0.923  0.1413 -0.3145  0.0153
28137W        W44211   5.273  13.303  14.905  0.3200 -0.1817  0.0977
28138W        W44212   0.029   5.747  13.105  0.2588  0.1406  0.2025
28139W        W44213  15.094   5.091   4.964 -0.0815 -0.1546  0.0512
28140W        W44214  16.074   4.877  14.240 -0.1207 -0.2069  0.0934
28141W        W44215   0.179   7.586   4.577  0.2373  0.1155 -0.0298
28142W        W44216  14.615  11.683   2.844  0.1705  0.3692  0.1102
28143W        W44217   1.979   5.520   0.306 -0.3359 -0.0190 -0.1235
28144W        W44218  14.435  13.644  12.167  0.1045 -0.3308  0.1433
28145W        W44219   9.873   6.889   4.270 -0.0689  0.0014  0.0854
28146W        W44220  10.914   6.584  13.974 -0.1124 -0.0553 -0.1442
28147W        W44221   4.345   4.146   4.121  0.1715 -0.1269 -0.0200
28148W        W44222  14.268  10.985   3.792 -0.0430 -0.0241  0.1106
28149W        W44223   3.404  13.398   0.725  0.0957 -0.0805 -0.0876
28150W        W44224  13.612   1.742  14.963  0.3434 -0.1282  0.4806
28151W        W44225  17.402  12.220  12.347  0.1257  0.2060 -0.1402
28152W        W44226   0.834   3.901   4.713  0.2047  0.0993 -0.1232
28153W        W44227   0.696  15.731  14.745  0.0065 -0.1032  0.1126
28154W        W44228   7.366  14.184  14.140 -0.0667  0.3099 -0.0148
28155W        W44229   3.585   7.483  12.994  0.1410  0.0151  0.0334
28156W        W44230  11.353   2.303   2.459  0.1584 -0.4528 -0.1928
28157W        W44231   7.217   1.171   3.944 -0.0852  0.3289  0.3035
28158W        W44232   9.539   0.178  12.091 -0.2404 -0.3078  0.1379
28159W        W44233  11.494   4.737  11.837  0.1218 -0.0441  0.0333
28160W        W44234  18.484   3.199   3.986  0.0061  0.1398 -0.0410
28161W        W44235   7.771   1.967   2.945 -0.3398  0.1111 -0.0337
28162W        W44236  17.304   1.466  12.262  0.3075 -0.1199  0.2835
28163W        W44237  17.334  11.371  13.335 -0.0511 -0.1499  0.2345
28164W        W44238  10.189  15.173  14.796  0.0326  0.1774 -0.3124
28165W        W44239   0.779  14.000  14.882  0.1066  0.2419  0.2204
28166W        W44240   4.566   7.181   5.614 -0.1648 -0.0140 -0.0352
28167W        W44241   9.362  18.494   2.837  0.0848  0.1621  0.0939
28168W        W44242  13.115   4.261  12.599 -0.0851 -0.1306 -0.0908
28169W        W44243   0.790  15.541  12.832  0.0182 -0.2274  0.0888
28170W        W44244  16.339  16.505   4.910 -0.4149  0.0342  0.1578
28171W        W44245   0.663   4.394   2.244 -0.1069  0.1368 -0.2054
28172W        W44246  17.752   7.997  12.691 -0.2134 -0.0405  0.1443
28173W        W44247   1.729  18.151   2.611  0.3519  0.3384 -0.1036
28174W        W44248  14.169   5.415  15.543 -0.3227  0.1140  0.3170
28175W        W44249   6.693   9.137   4.197 -0.1310 -0.0072 -0.2379
28176W        W44250   9.030  11.091  15.692 -0.0355  0.1110 -0.1383
28177W        W44251  11.096   7.312  11.921 -0.0542  0.2220 -0.0975
28178W        W44252   9.816   2.988  14.150 -0.2779 -0.2018 -0.1414
28179W        W44253  14.856   9.901   4.055 -0.0750 -0.1034  0.2901
28180W        W44254   7.401  15.802   5.363 -0.1179 -0.0461 -0.1251
28181W        W44255   7.710   8.908  12.128 -0.0958 -0.1968  0.0695
28182W        W44256   7.524  11.366   2.456 -0.0424  0.2801 -0.1207
28183W        W44257   2.159   8.691   0.974 -0.1589  0.2342  0.0119
28184W        W44258  15.065   6.474  12.390 -0.1835 -0.2905  0.1636
28185W        W44259   6.627   6.699   4.631 -0.2498 -0.3426  0.1741
28186W        W44260   7.667  15.798  13.585 -0.1171 -0.0551 -0.2069
28187W        W44261   4.281  13.027   6.405 -0.0160 -0.0260 -0.2681
28188W        W44262  17.659   4.086  14.197  0.2587  0.1620  0.1663
28189W        W44263  12.692  16.582   5.571  0.4314 -0.1985 -0.0685
28190W        W44264   8.572   1.830   5.501 -0.2448  0.2087  0.6738
28191W        W44265   9.824   6.884  14.114 -0.1095 -0.2199 -0.0781
28192W        W44266   4.526  11.391  11.959  0.0861 -0.1435  0.0009
28193W        W44267   7.031  17.072   0.355  0.1841  0.1846  0.1920
28194W        W44268  14.927   2.403  12.590  0.0013 -0.0741  0.1186
28195W        W44269   1.135  12.678   5.046 -0.2795 -0.0712  0.2568
28196W        W44270  17.658  10.510  15.999  0.0848  0.2027  0.1058
28197W        W44271   7.128   5.607  13.822  0.1411 -0.0140 -0.2174
28198W        W44272  17.220  13.774   5.633 -0.2534  0.0250 -0.0542
28199W        W44273   4.381   8.830  11.669  0.1700  0.2100 -0.0959
28200W        W44274  13.445   4.125   1.990  0.3622 -0.0937 -0.1050
28201W        W44275  16.754   2.225   0.136  0.0090 -0.2595 -0.2001
28202W        W44276   1.522  10.091   2.611 -0.1649 -0.1163 -0.1637
28203W        W44277  10.436   2.615  13.068  0.1690  0.0088 -0.0636
28204W        W44278   5.887  12.089  11.711  0.0860 -0.1834  0.0230
28205W        W44279  16.481   4.373  10.783  0.2839 -0.1941  0.1067
28206W        W44280   7.683  13.763   1.859 -0.0306 -0.1645 -0.0326
28207W        W44281  16.085   5.807  12.582 -0.1056  0.0259  0.0655
28208W        W44282  18.528  16.213   5.634 -0.1649  0.1737  0.0821
28209W        W44283   7.025   6.183   4.247  0.3337 -0.1463 -0.1652
28210W        W44284   9.583   2.198  14.365 -0.3214  0.1150  0.0434
28211W        W44285  12.976  15.392  14.489  0.2391  0.2310 -0.0918
28212W        W44286   5.069   4.572  13.338 -0.0741  0.0216 -0.1097
28213W        W44287   4.668   5.060   3.114  0.0122  0.1928 -0.0655
28214W        W44288  17.396   5.495   4.849  0.1005  0.1909 -0.2959
28215W        W44289   4.853   8.849   2.816 -0.1376 -0.0442  0.3293
28216W        W44290  13.682   7.605   1.821 -0.0820  0.0240  0.0649
28217W        W44291  16.472   3.939   4.353  0.1231  0.2772  0.1918
28218W        W44292  16.073   6.811  13.872 -0.0015 -0.1382 -0.1551
28219W        W44293   6.199   5.442  15.798 -0.1022  0.0904  0.2204
28220W        W44294   3.902  14.081   3.717  0.0368  0.1847  0.1538
28221W        W44295  14.664  15.840   0.714  0.0651  0.6155  0.0380
28222W        W44296  14.101   9.469   0.692 -0.2463 -0.0201  0.1282
28223W        W44297   2.344   2.823  13.845 -0.0163  0.3638 -0.0315
28224W        W44298  15.150   1.678   5.442  0.0841  0.3678 -0.0029
28225W        W44299  12.182   0.160   4.252  0.0087  0.2824  0.1535
28226W        W44300  14.249  15.095   2.755 -0.0559 -0.0330 -0.0094
28227W        W44301   1.712  18.318  12.195 -0.1571  0.5003 -0.3369
28228W        W44302  17.679   1.396   3.604  0.1202  0.0087 -0.0823
28229W        W44303  17.770  17.425  11.290 -0.4284  0.0345 -0.1599
28230W        W44304   1.614   6.380  13.005 -0.1507  0.3634  0.2437
28231W        W44305   4.565   2.347  14.590 -0.0874 -0.1561  0.1708
28232W        W44306  11.998  17.625   1.142 -0.0975  0.1333  0.2367
28233W        W44307  15.650   9.309   0.048  0.1501  0.0745 -0.3392
28234W        W44308   9.639  11.740   4.451 -0.0156  0.0041 -0.0077
28235W        W44309   5.794  17.560  12.364 -0.1193  0.2751 -0.1954
28236W        W44310  16.314  17.771   4.027  0.0759 -0.0956  0.1074
28237W        W44311   9.102   7.404  14.953  0.0083  0.1995  0.3548
28238W        W44312  12.125   9.935  12.675 -0.2104 -0.0481 -0.1115
28239W        W44313  18.087  11.357   0.955  0.1775 -0.0251  0.1977
28240W        W44314  14.993  16.438  12.612  0.1606  0.0436 -0.0996
28241W        W44315  13.532  15.022   5.297  0.0457  0.2242 -0.0907
28242W        W44316  16.767  15.459   0.712  0.0047 -0.2884 -0.3604
28243W        W44317  17.242   4.162  13.025 -0.1354 -0.2135  0.2931
28244W        W44318   6.995   1.040   1.182 -0.3414  0.0654  0.0177
28245W        W44319   2.838   8.878   4.035 -0.0109  0.1687  0.0694
28246W        W44320   5.467   0.279   2.409 -0.3430 -0.4378  0.0996
28247W        W44321   7.364  11.170  15.666  0.1310 -0.1571  0.3749
28248W        W44322   3.434  17.354   4.901 -0.0774  0.0321 -0.0476
28249W        W44323   9.571  14.714  12.750  0.2685 -0.1562  0.0934
28250W        W44324   5.183  15.513   5.362  0.0669  0.2650 -0.2033
28251W        W44325   2.980   8.708   2.817 -0.0196  0.0234  0.1591
28252W        W44326  15.250   8.556   1.254 -0.2334  0.0409  0.0063
28253W        W44327   2.391   9.379  12.797  0.2655  0.1610  0.1360
28254W        W44328   5.573   4.016   0.960  0.1072 -0.0209 -0.0663
28255W        W44329   2.607   3.999   0.340  0.2452 -0.0610  0.1487
28256W        W44330   5.795   3.076  12.920 -0.1123 -0.2378 -0.0477
28257W        W44331  17.000   6.100  12.055  0.3001 -0.1493  0.0584
28258W        W44332  12.579  14.440  12.111  0.1490 -0.1936 -0.0907
28259W        W44333  10.544  15.197   0.175  0.0851 -0.5991 -0.0390
28260W        W44334   5.685  14.189  14.741 -0.1209  0.1367 -0.1001
28261W        W44335   7.262  11.221  10.671  0.0400  0.1061  0.1337
28262W        W44336  12.583   9.905  12.451  0.2676 -0.1318 -0.2449
28263W        W44337  10.245   8.950  12.238  0.0030 -0.0837 -0.2034
28264W        W44338  14.211  10.819   3.323  0.1336 -0.3918 -0.2963
28265W        W44339  18.465   9.923  13.909  0.2597  0.2333 -0.0157
28266W        W44340  13.665  11.814  13.075 -0.3787  0.1529  0.0085
28267W        W44341  14.302  17.982  13.114  0.0464 -0.1187 -0.0678
28268W        W44342  17.046  12.886   5.566 -0.0479  0.2273 -0.0954
28269W        W44343  18.371  18.029  15.224 -0.1196  0.0060  0.2678
28270W        W44344  17.811   6.472  12.544 -0.2450  0.1258 -0.1559
28271W        W44345  17.131  15.775   3.789 -0.2449 -0.0437  0.1759
28272W        W44346   6.855  14.937   1.967  0.4331 -0.2807  0.0891
28273W        W44347   1.399  14.268  15.928  0.0742 -0.2171  0.0366
28274W        W44348   7.040   0.359  13.833 -0.0007 -0.0210 -0.3433
28275W        W44349   3.194   8.938   1.158 -0.0039 -0.0694  0.0690
28276W        W44350   8.125   7.191  11.664  0.1827  0.1610 -0.1893
28277W        W44351   6.289  15.737   1.973 -0.0586  0.0254 -0.0184
28278W        W44352  17.034   0.459   4.828 -0.2403 -0.0056  0.0261
28279W        W44353   6.861  15.898   0.465  0.2374  0.1323 -0.0403
28280W        W44354   1.279  17.546  13.779 -0.0384  0.1711  0.2392
28281W        W44355  18.504   5.327   1.444 -0.0273  0.1067 -0.1669
28282W        W44356  15.616   6.523  11.020 -0.0642  0.0675  0.1841
28283W        W44357   1.097   1.601   5.287  0.0429 -0.0155 -0.1902
28284W        W44358  17.632  11.346  12.328  0.0150 -0.1266 -0.3488
28285W        W44359  11.046   0.944  12.609  0.0309 -0.1399 -0.1786
28286W        W44360  15.989  17.456   0.846  0.1164 -0.0211  0.0983
28287W        W44361   6.075  15.661   0.013 -0.0229  0.2572 -0.1550
28288W        W44362  17.056  15.430  14.217  0.1051  0.3998  0.1909
28289W        W44363  11.824   6.124  14.569 -0.1404 -0.2697 -0.2851
28290W        W44364   3.067  15.305   5.090  0.2021 -0.0873 -0.2298
28291W        W44365  11.582   2.340  15.936  0.0712 -0.2149 -0.3596
28292W        W44366  17.127   7.091   1.829  0.2480  0.3072 -0.3357
28293W        W44367   0.610   8.086  14.205  0.1962  0.1341  0.2477
28294W        W44368   7.381   5.649  11.913  0.1378  0.0555  0.0331
28295W        W44369  10.092  14.762   3.913  0.0175  0.3695 -0.1192
28296W        W44370   7.480  15.143  14.203 -0.2700 -0.1379  0.1202
28297W        W44371   7.066   8.149   5.127 -0.1461 -0.1444  0.1528
28298W        W44372  10.088  18.138  13.781 -0.0410  0.0735 -0.0798
28299W        W44373   0.641  17.007   4.814  0.0817  0.1361 -0.0354
28300W        W44374   1.603  13.806   0.008 -0.1878 -0.1116 -0.2760
28301W        W44375  12.701  10.063  14.189 -0.0414 -0.3097  0.1359
28302W        W44376   4.223   8.229  15.147 -0.2169 -0.2094 -0.2726
28303W        W44377   1.087  10.329   2.883  0.2256  0.0250  0.0568
28304W        W44378   5.592   2.639   3.132 -0.0150  0.2598  0.2191
28305W        W44379   7.706   3.329   5.059  0.1506 -0.2296 -0.0760
28306W        W44380  17.772   5.487  11.981 -0.0858 -0.0745 -0.0664
28307W        W44381   6.719   0.838  15.192 -0.2864  0.0450 -0.0506
28308W        W44382   9.795   3.902   3.317  0.1549  0.0273 -0.2812
28309W        W44383   7.846   8.098  13.850 -0.2278  0.2600  0.3043
28310W        W44384   6.108  18.173  15.563  0.1504 -0.2477  0.2027
28311W        W44385   7.405  16.053   0.523 -0.1131  0.0192 -0.6410
28312W        W44386   2.032  14.111  14.723  0.0832  0.0484 -0.1842
28313W        W44387   9.582  13.358   5.370  0.2815  0.1730 -0.2194
28314W        W44388  16.384   8.196  12.281 -0.0788  0.1843  0.0557
28315W        W44389  14.734   8.990   5.092 -0.0370  0.1240 -0.2845
28316W        W44390   8.351   8.814   4.442  0.1553 -0.1149 -0.2354
28317W        W44391   3.637  13.183  12.516  0.0308  0.0361  0.2787
28318W        W44392   4.119   0.825  14.974 -0.0972  0.0972  0.4265
28319W        W44393   4.245   5.009  12.457  0.1706  0.1074 -0.2418
28320W        W44394   5.354  16.741   3.794 -0.1316 -0.1635 -0.0223
28321W        W44395   5.107   6.007  12.502  0.0402 -0.0340 -0.0250
28322W        W44396  10.477   0.635   3.665 -0.0139 -0.0333 -0.0958
28323W        W44397   9.660  11.436   1.522  0.3463 -0.2429 -0.0168
28324W        W44398   2.263  11.788   5.233 -0.1277 -0.1719 -0.2063
28325W        W44399   3.236  16.455   3.597 -0.1236  0.0241  0.4258
28326W        W44400  18.416   6.012  14.451  0.3747 -0.2618 -0.1036
28327W        W44401  16.167  11.565   0.922  0.0130  0.2397 -0.2032
28328W        W44402  12.177   9.245  11.855  0.0663 -0.1400  0.1404
28329W        W44403  13.123  16.188  13.895  0.1755  0.0999 -0.1694
28330W        W44404   0.582   4.515  13.931  0.2564 -0.2452  0.1217
28331W        W44405  14.866  13.847   3.353 -0.1153  0.0948  0.0297
28332W        W44406  14.829  10.488   1.469 -0.2484 -0.1554 -0.2503
28333W        W44407   0.023  16.475  15.928 -0.0636  0.2241  0.0766
28334W        W44408   4.366   2.074   4.346 -0.2731  0.3845 -0.0708
28335W        W44409  16.296   3.149  12.619 -0.1156  0.1287  0.0462
28336W        W44410   4.967  10.225  13.134 -0.2781  0.1370  0.0980
28337W        W44411  17.956  16.445  14.665  0.0625  0.0706  0.0580
28338W        W44412   9.921  17.788   2.959 -0.0468 -0.0460  0.1126
28339W        W44413   6.567   8.369  16.024  0.1819  0.2705 -0.2076
28340W        W44414   2.576  15.778  14.031  0.0954 -0.1461 -0.3612
28341W        W44415  18.077  12.600   3.490 -0.0676 -0.3100  0.1235
28342W        W44416  16.563   7.712   3.103  0.1888 -0.3138  0.2850
28343W        W44417  12.290   6.385   5.441  0.2999  0.0497  0.2532
28344W        W44418   3.701  14.590  15.413  0.2063  0.1588 -0.2418
28345W        W44419   4.028  12.315   0.607 -0.4099 -0.1174 -0.3590
28346W        W44420   6.551  17.265   0.018  0.0276  0.1079 -0.2034
28347W        W44421   7.746   5.179  15.365  0.1012  0.3138 -0.0464
28348W        W44422   3.784  15.482  15.485  0.0721  0.0370  0.1621
28349W        W44423   5.601   8.753   5.206 -0.4330 -0.3960 -0.1463
28350W        W44424  11.569   6.240   1.286 -0.1239 -0.1916  0.2550
28351W        W44425  15.447   1.026   4.764 -0.0803  0.0757  0.2706
28352W        W44426   6.175   5.069   0.826  0.2250 -0.3281  0.0558
28353W        W44427  14.714   2.169   1.279  0.0189 -0.0686  0.0136
28354W        W44428   3.632   3.228  14.413 -0.1458 -0.2332 -0.1900
28355W        W44429   0.160  15.660   2.720 -0.0001 -0.1776 -0.1861
28356W        W44430   5.811  16.328   5.756  0.1771  0.1891 -0.2157
28357W        W44431  18.487   3.862  12.677  0.0511  0.1854 -0.0778
28358W        W44432   9.977   2.909  12.137  0.1763  0.1045 -0.3462
28359W        W44433   5.422  14.321   5.691  0.1118  0.0104  0.1842
28360W        W44434  13.713   7.158  13.385 -0.1486 -0.4245  0.0365
28361W        W44435   7.002  16.509   4.349 -0.0989 -0.2970  0.0413
28362W        W44436   5.755  14.990   4.876 -0.1047 -0.0168 -0.1321
28363W        W44437  11.455   9.226   2.501  0.1222 -0.0938 -0.0679
28364W        W44438  15.584  13.875  11.057  0.0703  0.0224  0.1094
28365W        W44439   1.015   7.659   0.624 -0.3122 -0.2419 -0.0518
28366W        W44440  11.627  14.199  13.014  0.3257  0.2579 -0.2166
28367W        W44441   0.264  11.462   3.128 -0.0677 -0.1049 -0.0212
28368W        W44442   6.962  17.853  13.281 -0.1348  0.1913 -0.1177
28369W        W44443   6.412   8.576   4.007  0.3163 -0.0448 -0.0381
28370W        W44444   1.814  14.264   1.378  0.1671 -0.0204 -0.1012
28371W        W44445   9.864  18.306   2.534 -0.1056 -0.1114 -0.1609
28372W        W44446  17.400   0.262  11.609 -0.4081 -0.1354  0.1838
28373W        W44447  12.145  11.208  13.777 -0.1978 -0.1491  0.0411
28374W        W44448   6.772   4.694   4.597  0.4737  0.0399 -0.0566
28375W        W44449   4.974  14.425  11.932 -0.4583 -0.1422  0.0069
28376W        W44450  16.152  13.226   5.936 -0.3518  0.1953  0.1671
28377W        W44451   6.164   6.429  11.121  0.1307 -0.0918 -0.1264
28378W        W44452   0.565  12.641   5.115  0.2097 -0.3539  0.2775
28379W        W44453  14.884   8.231  15.999 -0.3073  0.1317  0.0381
28380W        W44454  16.439   4.244   2.665 -0.2310  0.2430  0.2994
28381W        W44455   4.167   2.198   0.984 -0.3373 -0.0664  0.0119
28382W        W44456  16.652  16.887   3.767 -0.2246  0.0509 -0.0711
28383W        W44457  10.471  14.366  14.444  0.2639 -0.3430 -0.3998
28384W        W44458   4.509  14.545   2.955  0.3140 -0.3409  0.0304
28385W        W44459   4.944   1.923   3.851 -0.1159 -0.1429 -0.3371
28386W        W44460  16.113   1.389  12.423  0.1318  0.0738  0.0728
28387W        W44461  17.944  16.398   0.649  0.3585  0.1144  0.0280
28388W        W44462  16.192  18.140   3.087 -0.0585 -0.2807 -0.0633
28389W        W44463   4.662  12.502  11.201  0.1631 -0.1716  0.0996
28390W        W44464   2.926  15.258   1.787  0.0840  0.1852 -0.1991
28391W        W44465   4.072  12.570   2.872  0.0030  0.4052  0.2639
28392W        W44466   4.383  15.514  12.526  0.2354 -0.0655  0.2447
28393W        W44467   5.857   1.472   3.984 -0.2964  0.0150 -0.1056
28394W        W44468   0.264   4.744  14.176  0.1364  0.1987 -0.2203
28395W        W44469   5.310  17.793   3.263 -0.1489 -0.3576 -0.2093
28396W        W44470  12.351  10.466  10.929 -0.1301  0.5027  0.1073
28397W        W44471   9.136   9.516   2.395  0.1472 -0.0261 -0.4351
28398W        W44472   2.946  10.614   0.445 -0.0542 -0.2262 -0.1277
28399W        W44473  17.566  11.741   0.690 -0.1368 -0.1289  0.0662
28400W        W44474  14.141   1.638  15.032  0.0178 -0.1734  0.1562
28401W        W44475   0.997   0.055   2.033  0.1981 -0.4956  0.3702
28402W        W44476   3.260  14.783   1.109 -0.2997  0.2114 -0.0810
28403W        W44477   6.720  17.295  12.416  0.1831  0.1638  0.0467
28404W        W44478   3.550   3.651  10.966  0.5045 -0.2295 -0.1784
28405W        W44479  17.865  17.231  12.789 -0.1040  0.1159 -0.1545
28406W        W44480   6.895  13.087  12.647  0.1850  0.3616  0.1348
28407W        W44481   8.724  17.314  15.656 -0.0112  0.1719 -0.1496
28408W        W44482  10.079  11.875   4.066 -0.1598  0.0205 -0.0447
28409W        W44483   2.620   2.098  14.234 -0.2446 -0.0595  0.2298
28410W        W44484  14.891   5.870  10.828  0.1225 -0.0702 -0.4373
28411W        W44485  11.504   7.384  12.194  0.0839 -0.0250  0.0664
28412W        W44486   2.463   7.600  13.349 -0.2958  0.0080  0.1816
28413W        W44487  14.846  16.859  11.078  0.1003 -0.1748 -0.0817
28414W        W44488  11.967   7.087   2.101  0.0864 -0.0986 -0.1375
28415W        W44489   3.490  16.055   1.627 -0.1857  0.0380  0.0531
28416W        W44490   5.885   8.898  13.432  0.2179  0.4866  0.1704
28417W        W44491   7.569   6.007  12.203 -0.3365 -0.2592  0.1294
28418W        W44492   4.215   3.973   3.556 -0.1831 -0.2019  0.0913
28419W        W44493  10.496   9.849  15.098 -0.0674 -0.3548 -0.1529
28420W        W44494   3.200   4.115   2.120  0.0477 -0.0820  0.0162
28421W        W44495   7.164   9.667  12.890  0.2713  0.2659 -0.0372
28422W        W44496   7.630   7.400  13.569  0.0106  0.1633  0.1632
28423W        W44497   3.452  12.249  11.769  0.2909  0.0515 -0.3546
28424W        W44498   6.368  12.107  13.813  0.0085 -0.1638  0.0444
28425W        W44499   6.570  15.744  16.000 -0.4870 -0.0342  0.0543
28426W        W44500  14.340   7.737  15.443  0.2278  0.1638  0.0519
28427W        W44501  12.807  10.700   0.574  0.0876  0.0022  0.0839
28428W        W44502   9.934   7.397  13.895 -0.0178 -0.2964 -0.0335
28429W        W44503   7.435  15.272   3.087 -0.2253  0.0205 -0.3156
28430W        W44504   3.572  11.133   4.554  0.1170 -0.0129  0.1022
28431W        W44505   7.859  12.586   4.908  0.5456  0.2352 -0.0493
28432W        W44506   1.856  15.549  14.022 -0.0276  0.2893  0.3140
28433W        W44507   3.570   5.256   3.547  0.2498 -0.0741  0.1176
28434W        W44508  10.055   9.610   0.508 -0.1968  0.1149  0.0433
28435W        W44509  15.930   1.651  15.198 -0.2283 -0.1509  0.1766
28436W        W44510   2.296   1.146   2.730  0.1428 -0.0740 -0.0518
28437W        W44511  14.137  14.032  15.323 -0.1118  0.0641  0.0549
28438W        W44512  15.942  10.406  12.293  0.1784 -0.0153  0.0247
28439W        W44513  10.617   6.520   3.729 -0.3533 -0.1698  0.0019
28440W        W44514  17.186   3.141  14.238  0.0542  0.0640 -0.1272
28441W        W44515  18.547  18.303  15.710  0.3962  0.1082  0.2782
28442W        W44516   1.321   1.493  12.342  0.2169  0.2706 -0.0502
28443W        W44517  10.565  18.002  12.519  0.0054  0.0677 -0.0445
28444W        W44518  16.677   9.522  11.495  0.1582 -0.2249 -0.0970
28445W        W44519   5.532  12.356  13.677  0.2395  0.1095  0.0089
28446W        W44520  17.998  10.119  12.280 -0.1885 -0.0087 -0.0315
28447W        W44521   6.629  12.376  15.541 -0.2002  0.1356  0.0162
28448W        W44522   8.107  15.544  12.525 -0.1667  0.0565 -0.1159
28449W        W44523   8.114   3.665   3.621 -0.0019 -0.0252  0.1723
28450W        W44524   0.089   2.227  14.190  0.0915 -0.0163 -0.0004
28451W        W44525  18.373  17.375  13.085  0.1485  0.0225 -0.0342
28452W        W44526   3.682  12.315  14.649  0.0401  0.0012 -0.0356
28453W        W44527   8.313  11.934   5.432  0.0419 -0.1387 -0.1662
28454W        W44528   8.245  12.221   4.108  0.0617 -0.0759 -0.3408
28455W        W44529  13.075   0.507  11.464 -0.0235  0.1404  0.2057
28456W        W44530   7.852   9.132  12.538  0.0520  0.2322  0.0267
28457W        W44531   7.420   4.816  13.938 -0.0687  0.4675  0.1470
28458W        W44532  12.313   5.552   0.453 -0.1484  0.0632  0.0218
28459W        W44533  14.156  10.286  11.710  0.0924 -0.1573 -0.0160
28460W        W44534  12.583  10.849  13.707  0.2207  0.0648  0.2529
28461W        W44535   9.778   3.882   6.027  0.0316 -0.1323 -0.0043
28462W        W44536  15.838   4.494   5.451 -0.2717  0.2167 -0.2875
28463W        W44537   5.782   1.662  13.563 -0.0176 -0.3636  0.1318
28464W        W44538   6.724  16.187   1.780 -0.2373  0.1515  0.0215
28465W        W44539   0.849  10.899   3.693  0.2924 -0.0210 -0.0942
28466W        W44540  12.921   0.619   2.916 -0.0891  0.0702  0.0790
28467W        W44541  14.434  14.272   3.858  0.0300  0.1789  0.1191
28468W        W44542   3.362   0.220   0.489  0.3063  0.1976 -0.0799
28469W        W44543  12.652  12.151   5.014 -0.1865  0.4695 -0.1841
28470W        W44544   7.710  17.168   4.589 -0.2253 -0.0865 -0.2704
28471W        W44545   2.757  17.981  14.890 -0.0163  0.1074  0.3126
28472W        W44546   8.720  11.689   4.387 -0.1049 -0.1148  0.1181
28473W        W44547   5.468  17.230  15.945  0.0792  0.0810 -0.1829
28474W        W44548  16.001  16.807  12.572 -0.1911 -0.1910 -0.0883
28475W        W44549  13.612   6.367  15.901 -0.1074  0.0057 -0.2839
28476W        W44550   3.044  17.979   3.906  0.2518  0.0629 -0.2129
28477W        W44551   1.054   6.896   2.352  0.0502 -0.3293 -0.1246
28478W        W44552  12.467   0.466  12.949  0.1858 -0.3332  0.0820
28479W        W44553   7.950  15.392  14.381 -0.0122 -0.0368  0.2208
28480W        W44554  18.185   6.280  13.960  0.5139 -0.1652  0.3801
28481W        W44555  16.745   5.878   1.530  0.0917  0.2491 -0.0631
28482W        W44556  13.485  16.007   2.015  0.3228  0.0661  0.1926
28483W        W44557  13.626   3.739   5.477 -0.3127  0.0004 -0.0121
28484W        W44558  16.953  11.401   1.903  0.1218 -0.0704 -0.0943
28485W        W44559  17.869   9.302  13.218 -0.1347  0.0973 -0.1054
28486W        W44560  16.720   2.983   1.188 -0.0481  0.4182 -0.3140
28487W        W44561  13.351   8.946   1.216  0.0841  0.0617  0.0962
28488W        W44562   4.395   1.609  13.683 -0.0580  0.1670 -0.2721
28489W        W44563  11.904   6.729   2.562 -0.2248  0.0608  0.3367
28490W        W44564   9.461  17.641  15.859  0.0413 -0.1307 -0.2189
28491W        W44565   2.056   1.966  14.055  0.0231 -0.0847  0.0319
28492W        W44566  13.017   8.222  15.652 -0.2511  0.0079 -0.0670
28493W        W44567  17.755   7.686   1.834  0.2014 -0.0453  0.2157
28494W        W44568   4.363   6.876  14.568 -0.1925 -0.0788  0.1084
28495W        W44569  16.588  12.812   5.351 -0.2177  0.1008  0.3132
28496W        W44570   9.453  16.984  14.694 -0.0090  0.1072 -0.0660
28497W        W44571   3.470  10.419   5.227 -0.0184  0.0090 -0.0396
28498W        W44572  17.311  11.490  12.853 -0.1722  0.0343  0.1739
28499W        W44573  16.052  11.675  13.789 -0.1403  0.1455  0.0598
28500W        W44574   9.067  12.848  15.090  0.3003 -0.0300  0.1839
28501W        W44575  10.125  13.944   2.284 -0.1421 -0.0382 -0.0038
28502W        W44576   5.526  13.804  12.390  0.0873  0.0566  0.1646
28503W        W44577  14.890  14.879   4.211 -0.1254 -0.3808  0.1898
28504W        W44578  15.111  16.355  15.173 -0.3298 -0.1432 -0.1766
28505W        W44579  14.150  18.179   4.197 -0.1660  0.1322  0.0515
28506W        W44580  17.307  10.800  14.117  0.3211  0.0821  0.0605
28507W        W44581   3.220  14.695  14.458 -0.0332 -0.0281 -0.1993
28508W        W44582  12.884   8.566   1.169  0.2939  0.1234  0.0070
28509W        W44583  10.162   0.021   1.681  0.0589  0.2410 -0.0624
28510W        W44584   6.946   8.940  15.622  0.0881 -0.2077 -0.3452
28511W        W44585   4.823   7.249  14.452 -0.0064 -0.3408 -0.0530
28512W        W44586  11.572   2.654   3.351 -0.2744 -0.1408  0.2556
28513W        W44587  13.623  12.048   1.391 -0.1974  0.0634  0.1674
28514W        W44588  15.083  15.932  15.556  0.0202  0.1705 -0.3272
28515W        W44589   2.502   2.643   1.410 -0.1640 -0.0428  0.3931
28516W        W44590   9.378  10.584   2.690 -0.0426 -0.2192 -0.2837
28517W        W44591  14.107   6.748  15.309 -0.0799 -0.1919  0.0263
28518W        W44592   6.086  10.609  15.644 -0.2627  0.2303 -0.3481
28519W        W44593  17.124  14.801  13.155  0.1457  0.0728 -0.1137
28520W        W44594  12.880   5.403   5.607 -0.0634 -0.0603 -0.0359
28521W        W44595   1.721   1.904  13.108  0.1840  0.0599  0.1154
28522W        W44596  10.912  12.762  15.442 -0.1369 -0.0419 -0.3600
28523W        W44597  17.743  14.427  13.858 -0.1378  0.1301  0.2706
28524W        W44598  10.648   0.872   2.035 -0.2726 -0.5113  0.1009
28525W        W44599  13.148   9.340   2.992  0.3722 -0.1908  0.0326
28526W        W44600  17.968   5.475   3.768 -0.0261 -0.0632  0.1506
28527W        W44601   5.614   1.097  14.971 -0.0497  0.1486  0.0674
28528W        W44602  15.279  11.476  12.795 -0.0477 -0.1169  0.0431
28529W        W44603   5.033   8.931  15.006 -0.1234  0.0165 -0.2522
28530W        W44604   4.676  10.150   3.002 -0.0897  0.0343 -0.0657
28531W        W44605   7.549   2.766  12.222 -0.3600 -0.1995  0.1003
28532W        W44606   7.212   8.315   0.821 -0.5035 -0.1516 -0.1043
28533W        W44607  12.258  12.426   5.154  0.0965 -0.2946 -0.0264
28534W        W44608   4.239   2.401  15.455  0.1784  0.0882 -0.2017
28535W        W44609  14.448   8.039  15.070 -0.0738 -0.2008  0.0634
28536W        W44610  12.678   9.557  13.344 -0.2973  0.0399  0.0322
28537W        W44611   1.734  15.285   3.076  0.0640 -0.1674  0.2152
28538W        W44612  12.683  11.085  12.758 -0.1323 -0.0950 -0.2601
28539W        W44613  17.256  12.056   4.498  0.0737 -0.2067 -0.1598
28540W        W44614  17.291   8.216   0.074 -0.0490  0.1070 -0.1269
28541W        W44615  12.998  17.155  12.028 -0.0805  0.1363  0.1715
28542W        W44616   0.324  16.722  14.491  0.0841 -0.0286  0.2481
28543W        W44617   2.286   4.345   4.220 -0.1220 -0.0534 -0.2181
28544W        W44618  12.857  14.678   4.989 -0.2153 -0.0236  0.1859
28545W        W44619   4.256  13.326   5.032 -0.1706 -0.1134 -0.1299
28546W        W44620   7.518   6.308   1.841 -0.0392  0.0825 -0.2108
28547W        W44621  16.798   6.581   0.514  0.1763  0.0852  0.5057
28548W        W44622   5.474  16.261  13.478 -0.0982  0.2087  0.0695
28549W        W44623   9.491   5.672   1.187  0.1446 -0.2458 -0.3060
28550W        W44624  17.173   9.379   0.748  0.0905 -0.1212 -0.0737
28551W        W44625   7.311  17.061  12.805  0.2367 -0.0422 -0.1322
28552W        W44626  14.750  16.009  13.691 -0.0086  0.0105  0.0394
28553W        W44627   3.471  17.338  15.270  0.0047  0.0471  0.1483
28554W        W44628   9.292  15.737   0.758  0.0309 -0.0946 -0.6451
28555W        W44629   5.403   4.119  12.046  0.3360 -0.1269 -0.1617
28556W        W44630  15.981   2.111  15.346 -0.2565  0.0673  0.0452
28557W        W44631   3.292  13.946   1.211  0.0892  0.0764 -0.0802
28558W        W44632   1.388   4.612   4.373 -0.1444 -0.1219 -0.1775
28559W        W44633  16.160   5.629  12.037 -0.0987  0.2412 -0.0942
28560W        W44634   2.467  17.207  10.812  0.1231 -0.2510 -0.0039
28561W        W44635   8.669   0.737   4.439 -0.1564 -0.2248 -0.0395
28562W        W44636   2.770   1.572   1.312  0.3038 -0.2163 -0.1811
28563W        W44637   1.166  12.726  15.075  0.1097 -0.3326  0.0058
28564W        W44638   9.831   6.930  12.832 -0.0515  0.0477 -0.1568
28565W        W44639   1.534   2.818   1.594 -0.0014  0.1346 -0.0025
28566W        W44640  14.894  14.310   2.320 -0.2188 -0.0370  0.4369
28567W        W44641   1.289  11.979   0.392  0.2830  0.1478 -0.1237
28568W        W44642  12.789   8.970   2.230  0.0414 -0.2108  0.0223
28569W        W44643  12.135  13.846   3.673 -0.1680 -0.1080 -0.0739
28570W        W44644   0.542   6.986   2.235  0.1510 -0.0336  0.1260
28571W        W44645  10.515   0.063   0.691 -0.1327 -0.1254 -0.1693
28572W        W44646   5.385   3.792  13.140 -0.0029 -0.0092  0.0975
28573W        W44647  13.854  16.104  11.578 -0.4237 -0.2966  0.1786
28574W        W44648   4.070  15.549   4.201 -0.1533  0.1011  0.0571
28575W        W44649  13.770   4.467   2.286  0.0061  0.0457  0.2293
28576W        W44650   8.252  17.936  12.777 -0.2401  0.1623  0.1016
28577W        W44651  17.011  14.966  14.014  0.0419  0.1446  0.4403
28578W        W44652  15.615  11.517  13.841 -0.0412 -0.0457  0.2107
28579W        W44653  15.548  16.166  13.410 -0.1024 -0.0921  0.0711
28580W        W44654  10.306   6.646  12.085  0.1448 -0.1990 -0.0976
28581W        W44655   1.411  17.941  12.197  0.0413 -0.0531  0.1034
28582W        W44656  16.091   2.165  14.249  0.1803 -0.2702 -0.3615
28583W        W44657   3.399   1.725   3.869  0.2457  0.2299  0.1027
28584W        W44658  16.661  17.369   3.925  0.1783 -0.4508 -0.1983
28585W        W44659  16.415   3.402   4.124 -0.0143 -0.1186  0.2553
28586W        W44660   0.556   6.636  13.873 -0.1286 -0.1104  0.1815
28587W        W44661  17.569  13.931   2.353 -0.5558  0.1961  0.1507
28588W        W44662   1.493   4.806  12.167  0.1260  0.3149 -0.1673
28589W        W44663  12.709   0.720   5.024 -0.2877 -0.2034 -0.0979
28590W        W44664   3.191   2.623  14.857 -0.1031 -0.0020  0.1717
28591W        W44665  18.162  13.139   0.032  0.2094  0.1339 -0.2944
28592W        W44666  10.074   4.521   0.763  0.1188  0.2167  0.0833
28593W        W44667  12.567  10.193   1.725  0.0427  0.0281  0.0584
28594W        W44668   1.855   3.121  15.562 -0.3247  0.4214  0.1688
28595W        W44669   8.619  11.553   5.226  0.2040  0.0009  0.0654
28596W        W44670   2.307  17.935   4.514 -0.0189  0.1092 -0.2052
28597W        W44671   4.888   3.301   2.605 -0.0051  0.0916 -0.2587
28598W        W44672   6.552   7.777  10.886  0.1071 -0.1890 -0.1480
28599W        W44673   5.466  14.905  11.419 -0.0609  0.0718 -0.1113
28600W        W44674   6.735   3.550  12.570 -0.2254 -0.1351  0.1228
28601W        W44675   7.050   9.291   0.777  0.1528 -0.4024  0.0880
28602W        W44676  15.042   1.063   0.840  0.2101  0.0960  0.0512
28603W        W44677  12.251  10.755   4.402 -0.0724 -0.3332 -0.0251
28604W        W44678   5.807   7.427   5.131 -0.0900  0.2470  0.3604
28605W        W44679   4.359  17.205   1.179  0.1270 -0.0730  0.1276
28606W        W44680   9.948   7.652  11.257  0.1420 -0.0325 -0.0951
28607W        W44681   7.453   9.948  11.451 -0.3198 -0.2681  0.4681
28608W        W44682   1.479   6.292   0.805 -0.2127  0.0636  0.1405
28609W        W44683   2.213   3.823  14.944 -0.0678 -0.1471  0.0069
28610W        W44684   2.626   2.225  12.379  0.0395  0.1590 -0.0464
28611W        W44685  10.561  10.571  15.739 -0.0121  0.0103 -0.1885
28612W        W44686   2.914   9.252  12.669  0.1937  0.2919  0.1589
28613W        W44687  11.511  11.468  12.730 -0.3757 -0.3888 -0.3499
28614W        W44688  11.595  17.335   0.446  0.0156 -0.0342 -0.2973
28615W        W44689   1.073   6.631   5.213  0.0701  0.2111 -0.0912
28616W        W44690  13.565  13.053   1.889 -0.0197  0.3402 -0.0371
28617W        W44691  12.589  17.164  11.694  0.1990  0.3586  0.1144
28618W        W44692   8.824   4.989   3.231  0.0594  0.0648  0.5904
28619W        W44693   9.804   4.962   0.755  0.2501  0.1466 -0.1530
28620W        W44694  11.787   6.377   4.308  0.0530  0.0592 -0.0181
28621W        W44695   8.717  15.898   2.763 -0.4856 -0.1267  0.0214
28622W        W44696   5.679  14.266   1.481 -0.1441  0.0234 -0.0813
28623W        W44697   4.312   8.982  14.887  0.1502 -0.0581  0.2216
28624W        W44698   8.239   0.624   0.435 -0.1347 -0.1575  0.5386
28625W        W44699  17.471  11.072   0.124  0.0414  0.0140 -0.0611
28626W        W44700   0.726  13.751  11.478  0.1573 -0.1627 -0.0211
28627W        W44701   5.694   5.187   3.968  0.0024 -0.0836 -0.0358
28628W        W44702   3.785  16.564   0.712  0.1230 -0.5172 -0.0433
28629W        W44703   7.174  12.657  13.789  0.0151 -0.0413  0.1362
28630W        W44704   5.144  18.439   2.328 -0.1791 -0.2909  0.1019
28631W        W44705   8.615  16.918   1.308  0.2127 -0.3412  0.2606
28632W        W44706   0.609  14.613   2.623  0.1502 -0.1009  0.2975
28633W        W44707  13.580   8.588   4.414 -0.0389  0.2473 -0.0118
28634W        W44708   3.295  15.295  15.685 -0.0588  0.2361 -0.2687
28635W        W44709   4.126  10.306  15.432 -0.0953  0.0028 -0.2696
28636W        W44710   0.418   9.083  13.847 -0.3898  0.0315  0.1743
28637W        W44711  16.081  13.076  12.520 -0.1727  0.2162 -0.1860
28638W        W44712   8.991  12.075  11.285 -0.1964 -0.1640 -0.3182
28639W        W44713  12.203   4.888   1.899 -0.3595  0.2410  0.1562
28640W        W44714  15.031  13.471  12.728  0.0113  0.3159 -0.1176
28641W        W44715  10.368  17.516   2.718  0.2358  0.0323  0.0322
28642W        W44716   4.379  12.803  15.083  0.0290 -0.0657 -0.1117
28643W        W44717   9.131  13.162  14.234  0.0571 -0.0002  0.0456
28644W        W44718   7.749   0.288  15.269 -0.0005  0.2417 -0.0482
28645W        W44719   0.394  14.785   5.701  0.0189  0.1414 -0.1574
28646W        W44720   5.911   9.487  15.291 -0.0752 -0.0025 -0.1557
28647W        W44721   6.546  15.914   2.702  0.0252  0.0009  0.4007
28648W        W44722  17.655   7.181   2.108  0.3888  0.0442  0.1489
28649W        W44723   1.238  13.830  15.153 -0.1045  0.3747  0.2026
28650W        W44724  17.303  12.942  11.266  0.3613 -0.0441 -0.4479
28651W        W44725  12.428  10.680   1.868  0.2825  0.6094 -0.1788
28652W        W44726  10.936  10.233  12.961 -0.0301  0.1913 -0.0936
28653W        W44727  10.065   7.714  12.221  0.0748  0.1126 -0.1610
28654W        W44728   5.272   8.269  15.506 -0.2665 -0.1401 -0.0985
28655W        W44729   5.954   9.963   3.620 -0.0632  0.1624 -0.1910
28656W        W44730  12.549   5.809   2.815 -0.1614 -0.1121 -0.2348
28657W        W44731   2.074   0.154   3.807  0.0807  0.0838 -0.1523
28658W        W44732   3.736   1.376   2.158  0.0344  0.0923  0.1009
28659W        W44733  18.275  12.879  11.289 -0.0458  0.4130 -0.1246
28660W        W44734   5.058   9.613   0.457  0.0894  0.2927 -0.0846
28661W        W44735   7.255   0.168   0.649 -0.2312  0.0832  0.1452
28662W        W44736  15.401  12.763   2.213  0.0158 -0.0650 -0.0698
28663W        W44737   0.489   8.854   3.297 -0.3111 -0.0766 -0.1791
28664W        W44738   0.938  15.355   0.319  0.3216 -0.3215 -0.1528
28665W        W44739   9.662   9.640  14.777  0.0857 -0.2169 -0.0220
28666W        W44740   7.470   0.409   5.068  0.0680 -0.0620 -0.1732
28667W        W44741  11.765  15.761  14.891  0.0996 -0.1094  0.0073
28668W        W44742   4.194   1.766  13.276 -0.3085 -0.2287 -0.1504
28669W        W44743  11.605  12.775   4.101  0.2242  0.2637 -0.1989
28670W        W44744   5.569  18.423   2.029 -0.0185  0.2116 -0.0495
28671W        W44745   3.536   2.201   3.835 -0.1179 -0.1156 -0.1228
28672W        W44746   1.312  16.034   2.543 -0.0852 -0.0641 -0.2870
28673W        W44747   8.865   5.007  13.319  0.0820 -0.0858 -0.0203
28674W        W44748   6.762  12.938   3.579  0.0915 -0.1622 -0.1912
28675W        W44749   5.126   0.484   9.760  0.0243  0.1583  0.2043
28676W        W44750   2.337   3.090  15.643  0.3505 -0.0522 -0.1396
28677W        W44751   6.067  17.156   3.406  0.2309  0.1758  0.1863
28678W        W44752   8.786   0.558   2.396 -0.1840 -0.0792  0.0834
28679W        W44753   4.467   4.814   2.241 -0.1275 -0.0871 -0.3553
28680W        W44754  14.820   6.115  12.911  0.0521 -0.2344  0.1778
28681W        W44755  13.611   8.558  11.906 -0.1342 -0.0812  0.0358
28682W        W44756  16.477   9.950  10.991  0.0801  0.1272 -0.1162
28683W        W44757  17.636   8.598   0.933 -0.1145 -0.4030 -0.0259
28684W        W44758  12.464  15.535   2.486 -0.4192  0.2772  0.0969
28685W        W44759   4.572  11.750   2.971  0.2228 -0.3745 -0.0078
28686W        W44760  12.212  12.854  15.576  0.0441  0.3486  0.2477
28687W        W44761  10.053   3.646   4.773 -0.1846  0.0835  0.2699
28688W        W44762  16.860  10.578  14.253  0.1237 -0.2316 -0.1381
28689W        W44763   6.393  12.250   4.948 -0.0469  0.2594  0.1666
28690W        W44764   1.363   7.806   4.331  0.2280 -0.1218 -0.3837
28691W        W44765  16.620   6.040   5.770  0.4366 -0.1761 -0.2774
28692W        W44766  17.541  17.960   3.209 -0.5670 -0.2098  0.2286
28693W        W44767   9.136  13.388   5.968 -0.3977 -0.0473 -0.1162
28694W        W44768  14.990  17.866   4.279 -0.0974 -0.0670  0.1440
28695W        W44769   5.404   4.106  15.555 -0.2348 -0.2075 -0.1978
28696W        W44770   5.400  10.717  15.591  0.3453 -0.0480  0.2562
28697W        W44771  17.595   8.120   2.011  0.2634  0.0120  0.1803
28698W        W44772   7.757   8.808  15.057 -0.1120  0.0919  0.1824
28699W        W44773   1.020   1.231  15.474 -0.2517  0.2227 -0.2409
28700W        W44774   8.634  13.989  14.293  0.0235  0.1044 -0.0352
28701W        W44775  15.862  14.046   1.939 -0.0600  0.0842 -0.0146
28702W        W44776   6.891   3.694  14.167  0.1897  0.2883  0.2987
28703W        W44777   8.978  11.663  11.580 -0.1673 -0.2005  0.2427
28704W        W44778  13.529  15.886   2.934 -0.0581 -0.2020 -0.3955
28705W        W44779   3.473   2.517  11.820  0.3222  0.0537  0.3014
28706W        W44780   8.558  17.420   3.554  0.2600  0.3553  0.2030
28707W        W44781  17.508   9.684   1.129  0.3310 -0.3646  0.1668
28708W        W44782  13.098   0.636  10.555 -0.2710 -0.1839  0.1536
28709W        W44783   4.399   6.834  12.163 -0.1224  0.1781 -0.0813
28710W        W44784   9.719   7.939   1.538 -0.2749  0.0314  0.0336
28711W        W44785  13.270   9.950  10.864 -0.1493 -0.1659  0.0342
28712W        W44786   7.532   3.109   0.930  0.4096  0.1990 -0.0787
28713W        W44787  17.013   9.599   5.418  0.0121  0.0975  0.4540
28714W        W44788  11.703   0.230  13.586  0.1616 -0.0119 -0.1744
28715W        W44789   5.880   3.540   4.552 -0.3738 -0.1755  0.0360
28716W        W44790  15.082   9.332  13.684 -0.0655  0.1086 -0.1167
28717W        W44791  17.249   3.494  15.640  0.0432  0.1480  0.2867
28718W        W44792   8.150   2.195  13.304  0.1914 -0.0631 -0.0197
28719W        W44793   9.397   2.482  12.599 -0.1024 -0.2843  0.0475
28720W        W44794   4.610  12.823   2.768  0.4116  0.1300  0.2009
28721W        W44795  13.709   2.202  13.890 -0.1367 -0.0106  0.2348
28722W        W44796   4.328   5.600  11.929  0.0855 -0.0639  0.0996
28723W        W44797  17.482  12.234  11.816  0.1184  0.0980 -0.0816
28724W        W44798  16.622  15.315  14.045  0.3329 -0.1321  0.0526
28725W        W44799  14.726   5.619  11.998  0.0153 -0.0833 -0.2647
28726W        W44800  10.552  15.212  15.252 -0.2646  0.1269  0.0200
28727W        W44801  13.600  15.211  14.334  0.3130  0.1895 -0.0513
28728W        W44802   3.667   8.335   3.030 -0.0164  0.1018 -0.2288
28729W        W44803   2.906   8.217  13.699  0.4166  0.1413  0.2693
28730W        W44804   5.340  11.394   1.078  0.1747  0.2849  0.0001
28731W        W44805   8.982  15.915  12.577  0.0098 -0.1812 -0.0097
28732W        W44806  14.853   0.565   4.891 -0.0437  0.1260  0.0858
28733W        W44807  17.331  14.383   1.539  0.0343 -0.1730  0.0349
28734W        W44808   2.438  16.513   2.677  0.1573  0.3270  0.1194
28735W        W44809   7.180   4.984   4.675  0.1819 -0.0818  0.4723
28736W        W44810   6.463   9.488  12.185 -0.1544  0.0725  0.2113
28737W        W44811  18.548   7.818   2.254  0.1316  0.1079 -0.1510
28738W        W44812   0.158  10.061  11.597  0.1739 -0.1434 -0.1595
28739W        W44813   3.289   7.647  15.523 -0.0941 -0.0952 -0.0642
28740W        W44814  10.799   4.772   5.250  0.1997  0.1685  0.1644
28741W        W44815   6.967  12.693   3.248  0.0338 -0.1476 -0.0532
28742W        W44816   1.708  18.153  14.394 -0.2555  0.0010  0.0447
28743W        W44817   5.198   5.474   3.956 -0.0623  0.1032  0.2177
28744W        W44818  17.260   7.519   3.718  0.4463 -0.0363  0.5388
28745W        W44819   1.307   0.462   4.167 -0.1906 -0.1176 -0.3100
28746W        W44820   5.440  10.496  13.010  0.0961  0.1970 -0.0083
28747W        W44821   6.669  15.780   4.999  0.1382 -0.0996 -0.1927
28748W        W44822   9.038   7.854   5.261 -0.1286 -0.3072 -0.0547
28749W        W44823   0.900   7.967   5.022 -0.1177 -0.1760 -0.0959
28750W        W44824  15.729   2.256  11.962 -0.3178 -0.0001  0.0903
28751W        W44825  13.779   3.822   2.309  0.1554 -0.2172 -0.0168
28752W        W44826   3.811  18.524  14.680 -0.1112  0.0327  0.1714
28753W        W44827  12.759   3.053   5.095 -0.3273  0.1189 -0.4762
28754W        W44828   6.340   7.052  14.267  0.2854 -0.0044  0.0371
28755W        W44829   6.688   7.779   5.346  0.1707 -0.4642 -0.1223
28756W        W44830   5.609  17.118   5.474  0.0223 -0.0839  0.0226
28757W        W44831  18.127   7.983  13.022  0.0691  0.0520  0.2030
28758W        W44832   0.493   3.908   2.079 -0.1118 -0.4065 -0.0531
28759W        W44833  13.801  11.275   4.432  0.0136 -0.0251 -0.0581
28760W        W44834  11.157  18.295   2.920  0.0255  0.0026 -0.1283
28761W        W44835  16.742  10.905  15.001 -0.3431 -0.1849 -0.1050
28762W        W44836   7.534  11.320   1.773 -0.0174  0.1959  0.0113
28763W        W44837   0.863  11.565  13.350  0.1789  0.2885  0.2255
28764W        W44838  15.390   7.311  14.786 -0.0772 -0.1838 -0.0605
28765W        W44839   6.640   3.510  13.043 -0.1637  0.1322 -0.1712
28766W        W44840  13.048  12.506  12.979 -0.3577 -0.0428  0.4011
28767W        W44841  15.434  14.162   5.047 -0.0846 -0.0653  0.1067
28768W        W44842  12.985   1.594  10.818  0.1413  0.3314  0.2567
28769W        W44843   0.058   1.639  13.129  0.1263 -0.0721 -0.0590
28770W        W44844  12.444   9.106  15.055  0.1009 -0.1202  0.0163
28771W        W44845   6.056   3.023   5.613  0.3923  0.2782  0.0503
28772W        W44846  14.016   1.065   4.832  0.0139 -0.0573  0.2947
28773W        W44847   5.695   3.602  12.798  0.3098  0.2231 -0.2101
28774W        W44848   6.988   0.768  15.576 -0.1941  0.2026 -0.0610
28775W        W44849  11.791  12.797   1.397 -0.2405  0.1553  0.3888
28776W        W44850   9.076   0.827   2.878  0.1481 -0.1723 -0.2013
28777W        W44851  18.340   2.614  12.571  0.1587  0.0934 -0.3269
28778W        W44852   1.613   3.152   5.059 -0.0257 -0.0689  0.2575
28779W        W44853  13.676  17.331  15.968  0.2228 -0.1106  0.0689
28780W        W44854   2.200   9.488   1.406  0.2027 -0.1132  0.1302
28781W        W44855  14.637  10.535  14.113  0.0638  0.0650  0.1537
28782W        W44856   0.798  15.996   2.628 -0.0410 -0.1646  0.0266
28783W        W44857   8.717   0.150   3.471 -0.1481  0.0741 -0.1744
28784W        W44858  13.026  16.577  11.158 -0.2444 -0.1453 -0.5345
28785W        W44859  13.993   5.700  13.406 -0.0917  0.1297  0.1321
28786W        W44860   3.539   0.286  10.836  0.2160  0.0941 -0.0787
28787W        W44861  12.503  15.513  12.830 -0.0525  0.0157 -0.1949
28788W        W44862   3.269   0.588  15.220  0.0168 -0.1096  0.1274
28789W        W44863   1.460  15.845  14.126 -0.0396 -0.3411  0.0424
28790W        W44864   7.275   0.237   3.088 -0.4347 -0.2879  0.1009
28791W        W44865   2.918  10.677  14.654  0.0376 -0.1445 -0.0410
28792W        W44866   9.135  10.754   0.114 -0.0306  0.3932 -0.3876
28793W        W44867   1.058   8.327  13.319  0.0309  0.0183  0.1774
28794W        W44868   8.671   6.131   1.117 -0.1704 -0.2210 -0.1655
28795W        W44869   2.033   4.037   0.001 -0.1293 -0.0656 -0.0866
28796W        W44870   0.516   3.936  13.967 -0.0532  0.1254  0.2801
28797W        W44871   3.945   4.134   9.975  0.5279 -0.0546  0.0390
28798W        W44872  15.588  12.641  14.695  0.0017  0.1910  0.0011
28799W        W44873   4.174  14.222  11.559 -0.1174  0.3065 -0.1154
28800W        W44874  12.568   0.343  15.139 -0.0158 -0.0856  0.5115
28801W        W44875   7.837   1.489  12.792 -0.0655 -0.1750 -0.0552
28802W        W44876  15.760   7.292   5.461  0.0696 -0.0923 -0.4195
28803W        W44877  15.742  10.243   1.270 -0.2764 -0.1046  0.1220
28804W        W44878  16.074  15.713  14.565  0.0165 -0.3136 -0.3832
28805W        W44879  15.102   8.756   4.019 -0.2780 -0.0942 -0.0725
28806W        W44880   4.188   6.551   3.932 -0.0714 -0.0897 -0.1339
28807W        W44881   5.849  15.206   1.188 -0.1736 -0.0436  0.0422
28808W        W44882  11.317   1.899   4.268 -0.2347 -0.1242  0.1352
28809W        W44883   8.371   0.025   5.055 -0.2308  0.0838  0.0776
28810W        W44884  11.733   8.023   0.834  0.0944 -0.0745 -0.2300
28811W        W44885   9.676   9.254   0.782  0.1546  0.0422 -0.0850
28812W        W44886   0.419  10.125  11.995  0.0734 -0.0229  0.2527
28813W        W44887  15.043   8.697  12.496  0.1232  0.1725  0.0347
28814W        W44888   9.136  15.001   1.697 -0.0706 -0.3166 -0.1728
28815W        W44889  11.522  11.108   1.726  0.5337  0.1014  0.2954
28816W        W44890   7.249  18.109   3.400  0.1220  0.0064 -0.1507
28817W        W44891  16.388   5.730   0.638 -0.1271 -0.2206  0.0883
28818W        W44892   8.350  10.777   5.753 -0.2016  0.1533  0.3273
28819W        W44893   7.047   2.504   2.757  0.1979  0.1038  0.0904
28820W        W44894   8.991  11.033   0.591 -0.1241  0.1658 -0.0611
28821W        W44895   3.958  14.833  13.583  0.1534 -0.2783  0.0153
28822W        W44896  14.103   2.812   1.707 -0.0471 -0.1542  0.0116
28823W        W44897  14.717   1.921   1.678 -0.1255 -0.1366  0.4141
28824W        W44898   6.206   0.639  12.033  0.0731  0.2277  0.2398
28825W        W44899   9.994   6.161   3.939  0.0194 -0.1033  0.0853
28826W        W44900   3.891  11.408  14.285  0.3481 -0.0804  0.0823
28827W        W44901  10.472  18.356  10.657  0.2473  0.1037  0.5507
28828W        W44902   1.541   6.719   1.096 -0.0465 -0.1236  0.1725
28829W        W44903  14.803  12.627  14.009  0.1354 -0.2637 -0.0866
28830W        W44904  11.956  10.529   2.127 -0.0488  0.1563 -0.2334
28831W        W44905  11.618   6.643  15.797 -0.1028  0.0529  0.2512
28832W        W44906  17.132   1.677  14.532 -0.0152  0.0605  0.0528
28833W        W44907  18.373  17.462   5.221 -0.0610 -0.0533 -0.0734
28834W        W44908   5.258   8.167   4.409  0.0596  0.0117  0.1704
28835W        W44909  11.292   5.007   4.492  0.1891  0.0989 -0.1259
28836W        W44910   6.494  17.224   1.578  0.0306  0.2473 -0.3308
28837W        W44911   2.861  12.777   2.484  0.0908 -0.4371 -0.0200
28838W        W44912  13.091   9.994   5.087  0.1884 -0.1593 -0.1605
28839W        W44913   4.675   8.721  13.196  0.3117 -0.0036  0.5335
28840W        W44914   1.160  10.508   2.359 -0.1602  0.1336 -0.2908
28841W        W44915  15.171  13.120   4.957  0.1019  0.1291 -0.0551
28842W        W44916   6.208   0.123  14.658 -0.0490 -0.2798  0.3623
28843W        W44917  15.033   3.764  11.952 -0.1845  0.1495 -0.1133
28844W        W44918  14.466  12.115   0.514 -0.1888 -0.1625 -0.2499
28845W        W44919   1.005  13.333  13.468 -0.0474 -0.1704 -0.0160
28846W        W44920  14.157  14.462   0.672  0.1415 -0.1001  0.0113
28847W        W44921   7.861  18.205   3.916  0.4279 -0.1958 -0.0809
28848W        W44922  15.396   6.424  11.503  0.0212 -0.1422  0.2348
28849W        W44923  13.055  10.228   1.830  0.0468  0.3152  0.0427
28850W        W44924   4.458   9.616  14.782 -0.0130 -0.0882 -0.1412
28851W        W44925   9.553   5.871   4.365  0.2667  0.2319 -0.0116
28852W        W44926   2.864  11.285  11.381  0.1715 -0.1414  0.1999
28853W        W44927   9.140  16.906  12.134 -0.0225  0.2376  0.0066
28854W        W44928  12.306   8.875   2.350 -0.1407 -0.1419  0.3280
28855W        W44929  17.106   8.110  11.400  0.2418 -0.2028  0.0721
28856W        W44930   4.610   0.543  15.386 -0.0204  0.1215  0.1415
28857W        W44931  12.115  17.797   2.405 -0.0419 -0.4203 -0.1860
28858W        W44932  10.391  15.346  13.586  0.0327  0.1229  0.1113
28859W        W44933  12.589   9.072  13.207  0.3454  0.1650 -0.0198
28860W        W44934   2.768  11.410   3.177  0.1857  0.2584  0.0593
28861W        W44935   8.800  10.141  13.367  0.0071  0.0636  0.2073
28862W        W44936   0.957   1.274  12.069 -0.2654  0.1426 -0.3341
28863W        W44937   1.747  16.904  13.279  0.1601 -0.1897 -0.2848
28864W        W44938  15.194  11.908  10.988 -0.1572  0.2818  0.2764
28865W        W44939   9.473   8.993   4.835 -0.0453  0.0085 -0.1730
28866W        W44940   6.205  13.515  14.004  0.1328  0.0036  0.0368
28867W        W44941   4.112   9.366   0.355 -0.0760  0.1354 -0.1376
28868W        W44942   4.066   0.425   0.910  0.3554 -0.0209  0.3032
28869W        W44943  17.201  12.696  12.985  0.2069  0.3157 -0.1878
28870W        W44944   4.839   8.682   0.084  0.1591 -0.3502  0.0088
28871W        W44945   5.934   1.582  15.989  0.2139  0.2623 -0.1653
28872W        W44946   5.988   7.478   2.208 -0.0844 -0.0422  0.2031
28873W        W44947  16.244   9.618  16.010  0.1843  0.1142 -0.0811
28874W        W44948  15.631  17.631   5.469  0.1880  0.0050  0.0155
28875W        W44949   5.387   3.183   5.453  0.0023  0.1422  0.0022
28876W        W44950   8.174   8.919   6.000 -0.0612  0.2426 -0.1178
28877W        W44951   0.751   6.137   4.363 -0.2198 -0.2600  0.0238
28878W        W44952  17.782   4.716  11.050 -0.5295 -0.0691  0.1721
28879W        W44953   7.505  13.018   3.320 -0.2027  0.0764  0.1737
28880W        W44954   3.665  12.835   1.004 -0.3613 -0.1111  0.2320
28881W        W44955  10.084   8.565  11.069 -0.2262  0.0260  0.1451
28882W        W44956   4.417  12.806  14.023 -0.1153 -0.0587  0.1177
28883W        W44957   0.140   7.045   0.683 -0.2050 -0.0184 -0.1401
28884W        W44958  12.951  17.661   4.810  0.2704 -0.4253  0.0068
28885W        W44959  12.587  17.016  15.193  0.2245 -0.1554 -0.0371
28886W        W44960   6.019  11.704   3.031 -0.0066  0.0544  0.1364
28887W        W44961   9.561   5.067  15.517 -0.0489 -0.2232 -0.2016
28888W        W44962   2.030  15.285   5.243 -0.1497 -0.0466  0.2153
28889W        W44963   1.178   8.799  14.375  0.1534  0.1897  0.2274
28890W        W44964   2.301   5.068  14.328  0.0398 -0.0510 -0.0814
28891W        W44965  14.288  17.717  14.391  0.0669  0.1744  0.1583
28892W        W44966   6.160   8.319  14.071  0.2416  0.3783  0.0975
28893W        W44967   2.859   1.128  11.588 -0.0625  0.0832 -0.4525
28894W        W44968  16.583  11.585   4.479  0.1031 -0.0526  0.1044
28895W        W44969   1.357  10.730   6.041 -0.0777  0.2601 -0.0818
28896W        W44970   3.671   5.405   1.631  0.0347 -0.1200  0.2627
28897W        W44971   7.097  17.684   3.694  0.1307 -0.3167 -0.2561
28898W        W44972   3.361   0.052   3.179  0.0824  0.0678 -0.2245
28899W        W44973   6.342  13.809  11.646  0.3115 -0.2011 -0.1313
28900W        W44974   1.210   6.885  13.466  0.2302  0.0440  0.3377
28901W        W44975   3.884   2.706   5.172 -0.0784 -0.2015  0.0214
28902W        W44976  13.045   8.093   3.525  0.1133  0.0368 -0.0221
28903W        W44977   8.008  15.366   2.416 -0.2541 -0.2404  0.0287
28904W        W44978   7.016  10.111  13.845  0.1495 -0.2522  0.0998
28905W        W44979  11.905   0.883   5.137 -0.1272 -0.0314  0.3882
28906W        W44980   5.296   5.884  13.309  0.0048 -0.1420  0.0961
28907W        W44981  11.589  10.099  11.980  0.2778 -0.0419 -0.0267
28908W        W44982   7.963   7.846  13.421 -0.1261 -0.0742  0.1129
28909W        W44983   9.494   7.038   5.058 -0.2775 -0.1390  0.1361
28910W        W44984  14.487   3.324   4.992 -0.0524 -0.1793  0.3133
28911W        W44985   8.351   4.497   2.606 -0.0990  0.2655  0.1099
28912W        W44986   5.956   1.411  12.558  0.0753 -0.1156 -0.0567
28913W        W44987  13.944  15.680  14.972  0.1242  0.0169 -0.1754
28914W        W44988   5.759  14.306  15.189  0.3089 -0.1107  0.1346
28915W        W44989  16.946  12.853   4.551 -0.0064 -0.1033  0.0426
28916W        W44990  14.896   9.660   4.489 -0.0613 -0.5023 -0.0023
28917W        W44991   3.856   0.385   5.259  0.2828  0.1433 -0.0317
28918W        W44992   5.214   3.399   3.114 -0.0301 -0.3797  0.2231
28919W        W44993  17.417  13.096   3.553 -0.1955 -0.2708  0.0443
28920W        W44994  15.441  15.177   3.222 -0.0715 -0.1099  0.0340
28921W        W44995  17.602   6.899   1.664  0.1837  0.0231  0.3430
28922W        W44996  14.169  15.352   1.791 -0.0649  0.4388 -0.2669
28923W        W44997   5.409   9.608  15.533 -0.0344  0.2343  0.3045
28924W        W44998  11.374  15.253  12.172 -0.2686 -0.2829 -0.1802
28925W        W44999  13.418  11.660  11.386  0.4070  0.1887 -0.3630
28926W        W45000  12.799   2.371   0.573  0.3559  0.0174 -0.0704
28927W        W45001   0.415   2.310   2.797  0.1733 -0.2314 -0.0765
28928W        W45002  16.092  16.913  13.050 -0.1265 -0.1571  0.0760
28929W        W45003  13.093   1.692  13.721  0.0293  0.0466 -0.1395
28930W        W45004   9.310  18.023   0.076  0.0721 -0.0511 -0.0004
28931W        W45005   1.365  18.106   4.212  0.2606 -0.0161  0.0262
28932W        W45006  13.203   6.146   4.928  0.0491  0.2721 -0.1918
28933W        W45007  15.259   4.285  13.257 -0.0031  0.0461  0.1393
28934W        W45008   6.470  17.172  13.349 -0.0676  0.1495  0.2418
28935W        W45009   2.401  14.429  12.853  0.2145  0.1692 -0.1040
28936W        W45010  12.238  13.504   1.502 -0.2139  0.1403  0.1718
28937W        W45011  11.504  11.462  13.377  0.1012 -0.4430  0.1494
28938W        W45012  11.063  18.444   4.827 -0.1027  0.0635 -0.0393
28939W        W45013   4.700   0.005  12.783 -0.1780 -0.0764 -0.1071
28940W        W45014  16.085  10.988   2.039  0.2194 -0.1266 -0.0968
28941W        W45015  14.713   7.757  10.826 -0.1072 -0.0758 -0.0900
28942W        W45016   6.872   4.880   5.072 -0.0798 -0.1902 -0.1630
28943W        W45017  12.484  17.897   4.627  0.1731 -0.0415 -0.2113
28944W        W45018   9.782  16.372   2.534 -0.2048 -0.3385  0.0496
28945W        W45019  13.735  13.173   0.576  0.4578  0.2742  0.1256
28946W        W45020   4.095   9.290   2.841  0.2885 -0.0349  0.0357
28947W        W45021   7.132  15.767  11.783  0.0574 -0.1674 -0.0176
28948W        W45022   7.968  11.923  10.902  0.0365  0.4478 -0.5856
28949W        W45023   9.932   2.866  11.234  0.0487  0.0571 -0.3036
28950W        W45024  11.642   0.300   4.222 -0.0080 -0.2234  0.2660
28951W        W45025   8.401  15.506   1.312  0.2021 -0.1290 -0.0133
28952W        W45026   9.365   1.736   3.065 -0.1018  0.2914 -0.1818
28953W        W45027   8.562   3.307  14.354  0.0378  0.0399 -0.1973
28954W        W45028   5.613  17.388  11.222  0.5334 -0.1684  0.3682
28955W        W45029  11.133   9.357  11.763 -0.3001 -0.1479 -0.3457
28956W        W45030   1.161   9.415  13.156  0.2187 -0.0492 -0.2344
28957W        W45031   9.843   2.681  15.758  0.2035 -0.2265 -0.2930
28958W        W45032  12.518   4.365   4.427  0.2808  0.2984  0.2505
28959W        W45033   6.792  12.380  13.829 -0.2934 -0.0410  0.1473
28960W        W45034  10.299  16.400  10.718 -0.3741  0.0225 -0.1198
28961W        W45035   9.681   4.919  11.656  0.2452  0.0183 -0.1030
28962W        W45036  11.695   8.631   4.831  0.2664  0.0519 -0.1054
28963W        W45037   9.378   6.464  15.003  0.4247 -0.0381 -0.0405
28964W        W45038  14.829  13.097   1.438 -0.0663  0.0437  0.0000
28965W        W45039   6.444   6.233   3.568  0.1416 -0.0506 -0.1341
28966W        W45040   7.949   1.476   1.546  0.3783  0.2583  0.0131
28967W        W45041  11.626   4.253  14.101 -0.0007  0.0759 -0.1335
28968W        W45042   5.397  12.986   3.204 -0.2161 -0.1065  0.1195
28969W        W45043  10.381  10.849  13.845 -0.1165  0.0298 -0.3406
28970W        W45044   0.394   8.417  14.567  0.0658  0.1992 -0.1470
28971W        W45045  15.994  16.904   4.831  0.0801 -0.0118  0.1339
28972W        W45046   4.763  16.278   0.842 -0.0198 -0.1071  0.1277
28973W        W45047  13.431   6.917  10.923 -0.1201 -0.0350  0.1511
28974W        W45048   8.454   8.297   1.038  0.0141 -0.3076 -0.2120
28975W        W45049  16.401  15.232   2.566  0.0955 -0.2513 -0.3492
28976W        W45050  11.866  12.861   4.626 -0.1041 -0.0190 -0.3808
28977W        W45051  12.362  12.968   1.488  0.1812 -0.1688 -0.1996
28978W        W45052  18.247   9.233   3.766 -0.0183  0.1380  0.0207
28979W        W45053   6.499   6.176   0.110 -0.1153 -0.1955 -0.1748
28980W        W45054  17.918  17.443   4.330  0.1361  0.1849  0.0834
28981W        W45055  15.438   6.872   3.564  0.0440 -0.0447  0.0245
28982W        W45056   0.136   9.698   5.455  0.3794  0.0150  0.2369
28983W        W45057  16.366  11.862   3.681 -0.3180 -0.1174  0.2552
28984W        W45058  10.444   2.063  11.870  0.1080 -0.1319 -0.3775
28985W        W45059   3.935  17.799  11.747 -0.0880  0.1511 -0.3105
28986W        W45060  16.176  10.875  14.963 -0.1052  0.2390 -0.0214
28987W        W45061   4.436  17.058  15.347 -0.0002 -0.3408 -0.2329
28988W        W45062   4.050   4.812  13.996  0.0358  0.0215 -0.0089
28989W        W45063  11.985  12.908   5.105 -0.1347  0.0903  0.1095
28990W        W45064  10.983   2.043   0.354 -0.0361  0.1742 -0.1534
28991W        W45065  12.269  16.676   0.330  0.1001  0.2330  0.1067
28992W        W45066  17.392  12.977   4.666 -0.0151  0.0181  0.0795
28993W        W45067  17.365  17.993  13.911 -0.0505 -0.0111  0.2212
28994W        W45068   1.618  14.341  12.518 -0.0885 -0.1492  0.2133
28995W        W45069   6.901  15.363   0.832  0.2841  0.1936  0.0276
28996W        W45070  18.317  17.374  12.536  0.0843  0.0049  0.0266
28997W        W45071   7.473   0.751  12.428  0.1214  0.1446 -0.0620
28998W        W45072   3.782  16.925   4.857 -0.1661 -0.0377  0.2784
28999W        W45073  12.652  13.359   1.711 -0.0519 -0.0664 -0.0364
29000W        W45074  13.031  14.226  13.710 -0.1769  0.0482 -0.0902
29001W        W45075  15.419   8.640  15.390 -0.0603 -0.2839  0.0405
29002W        W45076  10.092  10.870   1.305 -0.1925  0.0323 -0.2063
29003W        W45077   7.124   7.053  12.722 -0.0496 -0.0409 -0.3211
29004W        W45078   8.528  18.118  12.394 -0.1079  0.1916 -0.0838
29005W        W45079  11.248  11.736   4.924 -0.0121  0.0314 -0.1277
29006W        W45080   6.198   0.850   3.123  0.0770  0.3045  0.0636
29007W        W45081   4.670  14.889   2.495 -0.0539 -0.1779  0.0174
29008W        W45082   7.674   1.884   2.412  0.1161  0.0082  0.1271
29009W        W45083   1.011   2.258   3.500  0.2106  0.0577  0.3521
29010W        W45084   7.463   2.670   4.899 -0.3329 -0.2680 -0.2943
29011W        W45085   1.761   5.252   4.167 -0.1778 -0.1215 -0.0237
29012W        W45086  17.876  12.930  10.380 -0.2345  0.1267  0.0189
29013W        W45087   9.234  16.217   4.756  0.1666  0.0237  0.0403
29014W        W45088   9.494   8.352   1.024 -0.0883  0.0021 -0.1802
29015W        W45089  17.419  17.365  12.500  0.0028 -0.2959 -0.2085
29016W        W45090   5.549   2.564   9.656  0.2970  0.0553 -0.1036
29017W        W45091   3.092  15.033   3.800  0.0392  0.4528  0.1719
29018W        W45092   8.657   1.266  11.573 -0.1315  0.0688 -0.1523
29019W        W45093   1.995  12.681  14.709  0.1788 -0.1182 -0.0313
29020W        W45094   5.928   9.379  13.671  0.2514 -0.2100 -0.1120
29021W        W45095  12.462   0.429   2.888  0.0045 -0.2945  0.0940
29022W        W45096   2.977  16.973   4.474  0.0544 -0.0518  0.0799
29023W        W45097  12.655  17.083   4.224  0.2001 -0.1612 -0.5749
29024W        W45098  10.145   0.317  14.416 -0.1330  0.0779  0.1511
29025W        W45099  13.045   5.923   1.248 -0.0819  0.0854  0.1498
29026W        W45100   0.718  18.543  15.008  0.2855 -0.1078  0.0616
29027W        W45101   3.381  17.942  13.890  0.5936  0.4588 -0.1079
29028W        W45102  13.351  15.554  12.298 -0.0476 -0.0735 -0.1787
29029W        W45103   1.082   9.732   1.493  0.2783 -0.0693  0.2124
29030W        W45104   1.250   4.955   3.898  0.0315  0.2470 -0.2153
29031W        W45105   8.357   8.106  11.994 -0.0987 -0.2147 -0.0554
29032W        W45106   6.457   2.330   1.020 -0.1144 -0.0071  0.2155
29033W        W45107  18.081   3.284   2.644  0.0838  0.0343  0.0487
29034W        W45108  10.326  10.508  14.540 -0.2461 -0.1519  0.1610
29035W        W45109   0.930  11.610  12.855 -0.2624  0.1886  0.1226
29036W        W45110   3.482   0.875   0.161  0.0122 -0.0810  0.1448
29037W        W45111  14.005  17.084  15.663 -0.1100  0.0468 -0.3080
29038W        W45112   4.904   5.224  14.039  0.0214  0.0210  0.3369
29039W        W45113  17.768  13.791   5.788  0.0568 -0.2433 -0.3239
29040W        W45114  13.248  17.846   5.289 -0.1734  0.0170  0.3569
29041W        W45115   9.930   6.618  15.691 -0.1520  0.0624 -0.0137
29042W        W45116   9.417  14.606   5.329 -0.1104 -0.0091  0.0638
29043W        W45117   2.435   4.396  15.867  0.0757  0.1097  0.4756
29044W        W45118  16.015   3.684  11.673 -0.1566  0.0947  0.0707
29045W        W45119  11.695   9.563   0.422 -0.0957 -0.0055 -0.0688
29046W        W45120   7.090  14.443   2.237 -0.0256  0.1691 -0.2194
29047W        W45121  13.690   7.378  14.341 -0.0178 -0.1961 -0.0772
29048W        W45122  15.376   2.354   0.643 -0.3893 -0.2438  0.2158
29049W        W45123  11.422   7.626  12.671 -0.2545  0.1166 -0.0604
29050W        W45124   0.303  15.891  15.711 -0.2753  0.1798  0.0792
29051W        W45125   9.822  14.702  15.446  0.2917 -0.1996 -0.1680
29052W        W45126  10.548   9.933   2.164 -0.1847  0.2026  0.0946
29053W        W45127  11.480   3.478  11.078  0.1409  0.3324 -0.2841
29054W        W45128  11.726   3.171   3.273  0.1545  0.2334  0.0045
29055W        W45129  15.800  12.220  14.532  0.1814  0.0453 -0.0425
29056W        W45130   7.577  18.228  15.937  0.3918 -0.0456  0.0545
29057W        W45131  17.046  16.528  12.365 -0.4482 -0.2148  0.0229
29058W        W45132   5.055  15.185  10.220 -0.0013 -0.0629 -0.3272
29059W        W45133  14.075  16.508  13.066 -0.1231 -0.2573 -0.1648
29060W        W45134  15.731  14.398  14.907  0.0885 -0.0294  0.0216
29061W        W45135  12.576   1.564   0.239  0.0183  0.1061  0.0803
29062W        W45136   1.700  14.147   0.369  0.0400  0.0193  0.0231
29063W        W45137   7.323   4.093   2.014  0.2368  0.2639  0.1827
29064W        W45138   7.870   0.272  14.221  0.0889  0.0408 -0.0695
29065W        W45139  12.620   6.221   3.087  0.1920 -0.1243 -0.0944
29066W        W45140   5.062  11.181  10.643  0.3389 -0.0494 -0.3891
29067W        W45141   8.097   8.958  13.506 -0.0110 -0.0465 -0.3884
29068W        W45142   5.357  17.611  12.040 -0.0571  0.1029  0.4116
29069W        W45143   2.273   5.873   0.048 -0.0954 -0.3220 -0.3892
29070W        W45144   2.980  18.262  11.167 -0.1633 -0.0866  0.1573
29071W        W45145   4.472   9.347  11.531 -0.3540 -0.3328 -0.0923
29072W        W45146  11.985   5.748  14.904 -0.2556  0.0878 -0.0193
29073W        W45147   7.967  10.791  11.334  0.3703  0.2320  0.1173
29074W        W45148   8.420  14.748   3.816 -0.1423 -0.0176  0.1301
29075W        W45149   7.229  15.302   2.051 -0.1893  0.1119  0.1126
29076W        W45150   1.494  15.190   4.278 -0.0744 -0.3850 -0.0105
29077W        W45151   7.234  10.703  15.561 -0.1588  0.2627  0.1369
29078W        W45152   1.381   1.047  12.827  0.3437 -0.1151 -0.1076
29079W        W45153  16.134  10.162  14.318  0.0101 -0.0055 -0.0463
29080W        W45154  13.825  12.331   3.584 -0.0782 -0.1968 -0.1455
29081W        W45155   8.597  12.839   1.957 -0.0571  0.1657 -0.0369
29082W        W45156  11.876   0.727  12.765  0.2725  0.2401  0.1379
29083W        W45157   0.530   4.109  15.464 -0.2383 -0.2478 -0.3947
29084W        W45158  12.755  16.691   4.972 -0.3268  0.2756  0.0329
29085W        W45159  16.504  12.739  12.389 -0.3027  0.2384  0.2716
29086W        W45160  11.774   2.592   2.490  0.2274 -0.0968  0.2262
29087W        W45161   5.723  11.079   1.125  0.2194  0.0945 -0.1662
29088W        W45162   8.701   1.095   3.078 -0.1258  0.0788 -0.2880
29089W        W45163   5.801   9.437  14.764  0.0355  0.0296 -0.1069
29090W        W45164  10.793   3.008   1.883  0.0867  0.2484  0.1632
29091W        W45165   9.692   3.584   2.864 -0.2048 -0.0179 -0.3564
29092W        W45166   7.937  11.961   3.006  0.0013 -0.2864 -0.1140
29093W        W45167  15.173   4.933  12.497  0.0430 -0.0694  0.3263
29094W        W45168   6.355  14.005   3.253 -0.0400  0.1232  0.3490
29095W        W45169  17.390   0.336  12.278 -0.2424  0.2864 -0.1788
29096W        W45170   1.457  13.556  11.596 -0.1637 -0.0718 -0.1083
29097W        W45171   9.737  14.719   2.450  0.1602 -0.0786  0.1282
29098W        W45172  12.300   9.086  15.582  0.1818 -0.1566 -0.1330
29099W        W45173   6.203   0.586  15.518 -0.0953 -0.0091  0.0040
29100W        W45174   8.344  10.703  13.079 -0.1034  0.0335 -0.0243
29101W        W45175   4.386   0.847   5.833  0.1644  0.1600 -0.0058
29102W        W45176   1.866  18.249   4.538  0.1278  0.2202 -0.0504
29103W        W45177   8.569  17.360  14.653  0.0763 -0.2884  0.1783
29104W        W45178  14.778  16.298  13.081  0.0371  0.4049  0.0227
29105W        W45179   6.523   1.757  15.534 -0.1746 -0.2558  0.0753
29106W        W45180  10.237  17.126   4.004  0.1566  0.0254 -0.0026
29107W        W45181   7.823   3.296   1.408 -0.0146 -0.0624  0.1394
29108W        W45182  12.801   0.308   0.109  0.1219  0.2407 -0.1838
29109W        W45183  18.457  17.142   2.482 -0.5466 -0.1125 -0.1460
29110W        W45184   0.858   6.591  11.979  0.0293 -0.1245  0.2389
29111W        W45185   2.337  13.499  12.259  0.2262 -0.1937 -0.2898
29112W        W45186   6.264  16.622  11.716  0.0740  0.1546  0.4323
29113W        W45187   5.411   3.320   4.269  0.2020  0.1892 -0.0818
29114W        W45188  18.069   3.827  14.615 -0.4915 -0.0693  0.0244
29115W        W45189  14.003   4.840   2.576 -0.0539  0.1621  0.0880
29116W        W45190  16.755  16.908   1.129  0.0270  0.3918 -0.1712
29117W        W45191   0.797  12.833  15.384  0.2814  0.0538 -0.0393
29118W        W45192  10.242   1.760   5.213 -0.0548 -0.1176 -0.1102
29119W        W45193  15.243  17.105   4.750  0.0836  0.1696  0.0965
29120W        W45194  13.989  18.325  12.605 -0.2610 -0.1961 -0.0160
29121W        W45195  12.065   9.662   4.039 -0.1283  0.4149  0.3319
29122W        W45196   8.851   2.546   2.432 -0.1778 -0.0662  0.1677
29123W        W45197  11.689  18.153   2.525  0.1149 -0.1283 -0.2627
29124W        W45198  13.158   8.924   1.851  0.1188 -0.1112  0.2865
29125W        W45199   1.325   5.957   4.711  0.2066 -0.0198  0.0619
29126W        W45200   7.079  14.280   3.550 -0.0537 -0.0717 -0.2245
29127W        W45201  18.277   7.428   1.236 -0.0076 -0.2522 -0.0724
29128W        W45202  17.554  11.870  12.654  0.4455  0.2468  0.0173
29129W        W45203  17.165  17.950   1.646  0.2526 -0.2566  0.0304
29130W        W45204  17.214   3.854  15.253  0.3995  0.0080 -0.0335
29131W        W45205  11.595  13.735  12.823  0.0664  0.0356  0.2736
29132W        W45206   2.338   2.971  15.074  0.2011 -0.1899 -0.0387
29133W        W45207   3.651  14.646   4.444 -0.0071  0.0882 -0.0699
29134W        W45208  13.355   8.079  13.291 -0.0658  0.3195 -0.0416
29135W        W45209  16.078   1.442   3.223 -0.0648  0.0867  0.1342
29136W        W45210  17.270  13.856   0.899 -0.0152 -0.0398 -0.0068
29137W        W45211   0.091   1.986  14.700  0.1548  0.2064 -0.2618
29138W        W45212   1.876  13.181  11.744  0.3446 -0.1241 -0.0453
29139W        W45213   3.589   1.372  14.376 -0.0071 -0.0575  0.2858
29140W        W45214   3.321   6.444   5.402 -0.1142  0.1003  0.3441
29141W        W45215   3.862   7.125   4.209 -0.2394 -0.2075 -0.0634
29142W        W45216   0.849  17.949  16.019 -0.0814  0.2274  0.0337
29143W        W45217  16.135   5.163  11.785  0.1206 -0.0189  0.0611
29144W        W45218   7.512  13.841   0.399 -0.2706  0.0177  0.0130
29145W        W45219  13.410   7.283   1.647  0.4069 -0.1740  0.2705
29146W        W45220   8.453  17.399  14.182  0.2992  0.2404 -0.0895
29147W        W45221  11.177   9.101  13.012 -0.4025  0.0876 -0.1654
29148W        W45222  14.148  11.036  11.327 -0.1998  0.0189  0.2569
29149W        W45223  15.818   6.809  15.396 -0.2083 -0.3256  0.0511
29150W        W45224   2.368  10.093  12.024 -0.1146 -0.1023 -0.1397
29151W        W45225  18.552   6.966   3.820  0.0931  0.0707 -0.0701
29152W        W45226   3.046   0.024   0.802 -0.1226  0.2383 -0.0886
29153W        W45227  12.977   6.725  11.063 -0.2384  0.0263 -0.0874
29154W        W45228  10.615   1.147  10.999  0.2155  0.1189  0.1754
29155W        W45229   7.827  13.333   1.533 -0.0477 -0.2867 -0.1874
29156W        W45230  14.719  10.513  14.592  0.1231 -0.2652 -0.0187
29157W        W45231  10.744   8.243  11.799 -0.0533 -0.1167  0.1866
29158W        W45232  17.059   2.128  13.922 -0.0841 -0.0543 -0.0301
29159W        W45233   1.348  11.685   2.907  0.0342  0.1015  0.0521
29160W        W45234   7.858   4.309   2.426 -0.1677 -0.3741  0.2067
29161W        W45235   3.019  15.742   2.766  0.1495 -0.0524 -0.0163
29162W        W45236   1.498  13.601   4.298 -0.1777 -0.0282 -0.0083
29163W        W45237  14.951   8.066   2.004 -0.1663  0.5039  0.0998
29164W        W45238   8.443   4.283   2.142  0.4055  0.0383  0.1419
29165W        W45239  13.657  11.760   1.910  0.1578 -0.1455  0.1009
29166W        W45240   0.526   7.951   4.684 -0.0821  0.0031 -0.1126
29167W        W45241  11.286  10.511  12.301 -0.0410  0.0738 -0.2798
29168W        W45242  13.048   3.672  15.450  0.3119  0.1857  0.0077
29169W        W45243  12.846   8.356  14.648  0.3558  0.1641  0.3188
29170W        W45244  16.391   6.368  12.598 -0.2499  0.1249  0.1758
29171W        W45245  13.506   9.614   2.763  0.2426  0.0604  0.0114
29172W        W45246   4.208   9.833   0.142  0.0919 -0.2070 -0.2954
29173W        W45247  10.831   9.326  13.630 -0.2433 -0.2630 -0.1819
29174W        W45248   9.160  11.977   1.679 -0.1354  0.0179 -0.3027
29175W        W45249  18.454  12.946  15.660  0.1677  0.2609 -0.1455
29176W        W45250  15.486   3.469  12.697  0.2164  0.0859  0.1838
29177W        W45251   1.278   4.022  12.230  0.1111  0.0555  0.1872
29178W        W45252   3.052   6.530   0.104  0.1510 -0.1561  0.0544
29179W        W45253  17.085   3.951   3.400  0.0282  0.3680  0.0283
29180W        W45254  14.126   7.949   4.691  0.1114  0.3826 -0.0976
29181W        W45255  15.272   8.245   3.864  0.0308  0.1188 -0.2124
29182W        W45256  14.752  15.354  11.301  0.1447  0.1567 -0.2643
29183W        W45257  16.007  14.686   3.882 -0.1722  0.1536  0.0373
29184W        W45258  10.826   5.518   3.602 -0.0922 -0.0104 -0.0110
29185W        W45259   0.906   7.590  15.387 -0.3703 -0.1621  0.1140
29186W        W45260   0.397   3.273  14.780 -0.2246 -0.2420 -0.0317
29187W        W45261  13.468   6.931  13.842 -0.1540 -0.5880 -0.1390
29188W        W45262   7.990   6.030   1.846 -0.0738 -0.0335 -0.0227
29189W        W45263   1.930  10.347   0.423 -0.3570 -0.1289 -0.0961
29190W        W45264   9.952   8.684  14.066  0.0570  0.2885  0.2707
29191W        W45265   6.752   0.824   2.542 -0.0521 -0.2549 -0.0635
29192W        W45266  14.163  14.265   5.681  0.2866  0.2387  0.4089
29193W        W45267   0.756  17.596   3.553  0.2291 -0.0362 -0.0194
29194W        W45268   7.163   4.645  15.968 -0.3867 -0.1125  0.0706
29195W        W45269  12.341   2.030  12.758 -0.1684 -0.1106 -0.0006
29196W        W45270   3.561   2.157   2.113 -0.1046 -0.2775  0.1552
29197W        W45271   0.363  15.009  12.431  0.1924 -0.0915  0.0930
29198W        W45272  10.323  11.980  11.896  0.4242  0.0918  0.0121
29199W        W45273  17.009   4.553  14.326 -0.0871 -0.0290 -0.1787
29200W        W45274  16.235  17.121   3.957  0.2719  0.0376 -0.2968
29201W        W45275   3.124   3.144   5.738 -0.0700  0.1968  0.2069
29202W        W45276   1.234  16.325   1.751  0.3267  0.2603 -0.2051
29203W        W45277   0.307   7.160   3.484 -0.1436 -0.1490 -0.0732
29204W        W45278   3.589  13.810  15.482 -0.1557  0.1035  0.0931
29205W        W45279   1.424   1.304  14.269 -0.0416 -0.1519 -0.0144
29206W        W45280  15.565  15.089  13.807  0.1945 -0.0217 -0.0973
29207W        W45281  11.501  17.715  12.107  0.0720 -0.2643  0.3457
29208W        W45282   1.255   6.721  12.939 -0.0079 -0.0153 -0.1328
29209W        W45283  17.341  18.427  14.524 -0.0427  0.2025  0.2442
29210W        W45284   4.152   5.412   2.969 -0.0898  0.2060 -0.2988
29211W        W45285  15.605   2.185   1.035  0.3025  0.0213  0.4623
29212W        W45286   9.263   0.906  14.556  0.1778 -0.2557  0.1724
29213W        W45287   8.323  10.871   1.842 -0.0780 -0.0858  0.1933
29214W        W45288   1.183  17.706   1.960  0.0148 -0.0638  0.2338
29215W        W45289   9.251   4.636  13.524  0.1309  0.3977  0.2297
29216W        W45290   1.892   7.920  15.281 -0.1975 -0.4263  0.0129
29217W        W45291  16.904   2.872   3.557 -0.1868 -0.0872  0.1135
29218W        W45292   6.856  13.559   3.927 -0.0443 -0.0667  0.4952
29219W        W45293   2.162   2.310   1.508  0.1552 -0.1190  0.0456
29220W        W45294   6.980   4.334  13.122 -0.1628 -0.1076 -0.0709
29221W        W45295   6.672   8.928   2.503  0.2338 -0.1783 -0.0948
29222W        W45296   2.409  16.294  13.433 -0.1863  0.0202  0.1509
29223W        W45297  10.208  17.406  12.150  0.1158 -0.2503  0.4495
29224W        W45298   0.233   3.577  11.057  0.0893 -0.0053  0.0173
29225W        W45299   9.649  12.616  15.968 -0.2123  0.0177  0.3388
29226W        W45300   7.963  16.082   4.680  0.1195 -0.0434 -0.3992
29227W        W45301  17.061   0.826  12.942  0.0580  0.2381  0.3125
29228W        W45302  16.677  18.059  13.636 -0.3557  0.0726 -0.0838
29229W        W45303  16.404  15.820   0.680 -0.3321  0.2961  0.0914
29230W        W45304   6.437   5.244   2.034 -0.1860 -0.0567  0.1457
29231W        W45305  15.154  12.513  12.357 -0.1643  0.2091 -0.0191
29232W        W45306   8.585   5.682   5.020  0.0716 -0.0665  0.2461
29233W        W45307   3.791  17.546  12.374 -0.1046 -0.0054 -0.5780
29234W        W45308  14.140   6.381   3.693 -0.1144 -0.0600  0.1856
29235W        W45309   6.768   1.072   4.310  0.4311 -0.0255 -0.0602
29236W        W45310  16.168  10.974   5.095 -0.0830  0.2223  0.1089
29237W        W45311   9.739   1.649   1.253 -0.3065 -0.1794  0.3348
29238W        W45312   3.140   4.400  10.990  0.2097  0.0134  0.0137
29239W        W45313   9.903   1.548   6.076  0.1970  0.0327 -0.2764
29240W        W45314   6.646   0.829   5.930 -0.2184 -0.1050 -0.2350
29241W        W45315   9.320  12.318  12.630  0.2079  0.2772 -0.3708
29242W        W45316  16.691  10.784   0.737  0.4238 -0.0213 -0.1556
29243W        W45317  13.954   0.578  11.829 -0.0837 -0.0132 -0.1318
29244W        W45318   2.587   0.776  15.734  0.1111  0.1941  0.1677
29245W        W45319  18.168   0.338  12.817 -0.0266  0.1183  0.1521
29246W        W45320  14.073  11.109  12.613  0.1852 -0.0464 -0.1850
29247W        W45321   8.694  10.709  15.736 -0.0024 -0.1615 -0.2288
29248W        W45322  11.891  12.810  11.308 -0.0048  0.0352  0.1163
29249W        W45323   2.361  15.399  15.375 -0.0874  0.2528 -0.0175
29250W        W45324   5.442  18.535  13.334 -0.0012 -0.2636  0.2039
29251W        W45325  11.430  13.895   2.676 -0.2931  0.1677 -0.3706
29252W        W45326   7.388  16.922   2.708 -0.2743  0.0050  0.0991
29253W        W45327  15.831  13.094   1.494 -0.0468  0.4011  0.3350
29254W        W45328   2.675   3.636   1.261  0.3282 -0.0706  0.1650
29255W        W45329  16.168  17.227   3.162 -0.0229 -0.5918 -0.0118
29256W        W45330  11.109   5.056   2.640 -0.0532  0.3380 -0.2593
29257W        W45331   0.040   2.463  13.714  0.1650 -0.1249 -0.0839
29258W        W45332  11.165  11.482  14.130 -0.1196 -0.0001 -0.1749
29259W        W45333   9.340   6.793  12.863  0.2216  0.0983  0.1920
29260W        W45334   6.483  15.315  12.520  0.0401 -0.0802 -0.1006
29261W        W45335   7.168  14.178   3.029  0.1619 -0.0503 -0.2216
29262W        W45336   7.302   8.133  15.356 -0.0243 -0.0475  0.0409
29263W        W45337   6.747  15.325   2.324  0.1022  0.2668  0.0411
29264W        W45338   0.711  15.467   0.987 -0.2759 -0.0205  0.0790
29265W        W45339   6.045  17.683  11.940  0.1496  0.1142 -0.0345
29266W        W45340   5.707   4.855   2.744  0.0552 -0.2325  0.2379
29267W        W45341   7.486   4.748  15.009 -0.1907 -0.1655 -0.0218
29268W        W45342   6.440   2.714   2.775 -0.1271 -0.2452 -0.0676
29269W        W45343  17.666   9.832  12.457  0.0377  0.1171  0.2907
29270W        W45344   3.017  15.780   4.786  0.1807  0.0095  0.0238
29271W        W45345   2.274  13.540  13.945 -0.0506 -0.1916  0.1635
29272W        W45346  13.275   5.681   0.487 -0.1291  0.0474 -0.2427
29273W        W45347  11.801   1.652   1.479 -0.2324  0.0198 -0.2148
29274W        W45348  10.500   8.033  11.390 -0.0997 -0.2147  0.1668
29275W        W45349   2.118   0.092  14.747  0.0590  0.2145  0.0548
29276W        W45350   9.784   6.140  13.407 -0.0847 -0.0918  0.0430
29277W        W45351  17.841   2.248   1.111 -0.3037 -0.3311 -0.1287
29278W        W45352  11.637   6.071   1.725  0.1920  0.2082 -0.1403
29279W        W45353  12.738   9.254  11.805 -0.0753 -0.2318 -0.1503
29280W        W45354  13.202   7.125   2.671  0.0032 -0.2126  0.1001
29281W        W45355  10.304  16.422   2.778 -0.2563 -0.2592  0.0238
29282W        W45356  13.758   0.246   0.488  0.0756 -0.1707  0.0155
29283W        W45357  10.670   8.213  15.453  0.2497  0.0134 -0.2324
29284W        W45358   9.228  17.740  15.386 -0.2346  0.1033  0.2627
29285W        W45359  10.556  15.016   0.642 -0.0965  0.1113 -0.0304
29286W        W45360   3.565   7.391  13.625  0.3303 -0.1141 -0.1767
29287W        W45361   5.667  15.081   2.795 -0.2164  0.4429  0.0586
29288W        W45362   4.755  10.077   0.483  0.2750  0.0225 -0.0214
29289W        W45363  17.596  13.882   1.300 -0.0306  0.0217 -0.1696
29290W        W45364  17.792  11.024  14.861 -0.1000 -0.0921  0.2460
29291W        W45365   7.102   2.655   1.211 -0.0372 -0.1505  0.1261
29292W        W45366  16.074   6.103   0.080 -0.2330  0.1895  0.1187
29293W        W45367  18.444  12.681  13.678 -0.1761 -0.2002 -0.0537
29294W        W45368   1.634   9.640   2.352 -0.0721  0.0394 -0.0089
29295W        W45369   7.992  13.983  11.104  0.0434 -0.3212 -0.0347
29296W        W45370  17.559   5.255  11.056 -0.1716  0.4353 -0.0499
29297W        W45371   8.420  13.971   1.432  0.2715 -0.1816  0.4387
29298W        W45372   4.535   6.505   3.040  0.0161 -0.0191  0.0775
29299W        W45373   5.670   0.599  15.219  0.0507  0.0670  0.2765
29300W        W45374   8.277  17.566  11.674  0.5298  0.3403  0.2925
29301W        W45375   3.947  17.552   4.863 -0.1361  0.0500  0.0250
29302W        W45376  12.976   2.120   1.780  0.0822  0.1739 -0.1467
29303W        W45377  18.204  18.403  12.098  0.2706  0.0508 -0.0210
29304W        W45378  10.510   0.360  12.294  0.0703  0.1583  0.0715
29305W        W45379   7.579  10.531  11.698 -0.2108 -0.2598  0.3923
29306W        W45380   3.571  10.825   3.101  0.0079 -0.2381  0.2196
29307W        W45381   4.623  14.373  13.239 -0.1492 -0.2167 -0.0485
29308W        W45382   0.859   7.961   2.460  0.0629  0.3865 -0.0535
29309W        W45383  16.409   7.700   4.129 -0.1924 -0.0061  0.1869
29310W        W45384  13.620   2.780   0.888  0.0138 -0.1790 -0.3753
29311W        W45385  13.855  14.244   2.423  0.2910  0.1121 -0.3220
29312W        W45386   9.659   7.644   0.165  0.2778  0.1826 -0.0216
29313W        W45387  13.674   0.811  15.022 -0.0019  0.2408 -0.2677
29314W        W45388   8.970   3.027   1.736  0.0376 -0.2159 -0.1962
29315W        W45389   5.642  13.528   1.363 -0.0961 -0.2861  0.1920
29316W        W45390  16.909   1.699   2.746 -0.1280 -0.0264 -0.2171
29317W        W45391  12.527  15.354   5.020  0.2737 -0.3964 -0.0984
29318W        W45392   7.378  12.709   4.929 -0.0505  0.3024  0.0954
29319W        W45393  10.815  12.080  12.625  0.0825 -0.0024  0.1652
29320W        W45394   4.021   9.427   2.034  0.2664 -0.0350 -0.0039
29321W        W45395   8.724  15.776  10.980 -0.2589  0.3354  0.0376
29322W        W45396   9.854   3.457  14.527 -0.0091 -0.0580  0.4791
29323W        W45397   3.264   3.061  13.607  0.1078  0.3159 -0.0329
29324W        W45398   0.105   9.871   1.760  0.0882  0.1033 -0.0689
29325W        W45399   3.271   5.364  15.053 -0.0095  0.0772  0.3509
29326W        W45400   8.877  13.374  11.365  0.3766 -0.0743 -0.1339
29327W        W45401  16.569  13.676   1.328 -0.2413  0.0213 -0.0020
29328W        W45402   6.631  14.552   5.537 -0.2247  0.3891 -0.0205
29329W        W45403   1.584  14.812  14.595  0.2320 -0.0089 -0.4348
29330W        W45404   2.953   7.404  13.206  0.0188 -0.1562 -0.0033
29331W        W45405   9.610   0.747  14.973  0.0990 -0.0473 -0.0090
29332W        W45406  13.961  13.912   4.419  0.1970  0.2382 -0.4386
29333W        W45407  12.205  16.039  14.031  0.0201  0.1017  0.0799
29334W        W45408   2.338  12.782   6.057  0.2156 -0.2923 -0.0082
29335W        W45409  14.123  13.249   3.058 -0.1156 -0.2874 -0.2116
29336W        W45410  10.216  11.316   2.547  0.2283  0.1833 -0.2012
29337W        W45411  14.958  18.460  15.352 -0.0814  0.0132 -0.0384
29338W        W45412  16.112  11.453  15.518  0.0424 -0.1798 -0.0078
29339W        W45413   3.891   9.986   0.466  0.4599 -0.0744 -0.0369
29340W        W45414   3.667   6.211  12.917  0.0757  0.0599  0.0640
29341W        W45415  12.644   7.617   1.227 -0.2921  0.0252  0.1583
29342W        W45416   5.304   9.413  11.227 -0.1704  0.2348 -0.0998
29343W        W45417  15.085  15.382  12.636  0.2715 -0.0938  0.1943
29344W        W45418  18.333  15.757  14.929  0.2004 -0.0903  0.0074
29345W        W45419  10.124  10.124  11.508 -0.2142 -0.0703 -0.1370
29346W        W45420  12.532   7.469   0.304  0.0447 -0.3492 -0.1783
29347W        W45421  10.794   5.943  15.853 -0.0132 -0.1222  0.1935
29348W        W45422   8.579   9.625  10.990 -0.0370  0.0616 -0.1021
29349W        W45423  10.111   0.899   2.019 -0.0323  0.1724 -0.0284
29350W        W45424  15.891   5.782   0.525  0.1398  0.2502  0.3441
29351W        W45425  16.720   5.593   1.115  0.0197 -0.1398 -0.0591
29352W        W45426  16.071   2.059  11.117  0.1359  0.3686 -0.2653
29353W        W45427  13.949   9.010  11.678 -0.2055  0.3158 -0.0090
29354W        W45428   3.056   7.263   3.030  0.1628  0.0347 -0.0916
29355W        W45429   7.813  10.533   4.700 -0.0571  0.0222 -0.2310
29356W        W45430  14.531  11.276   1.027 -0.3519 -0.1762 -0.3656
29357W        W45431  13.892  14.834   0.462 -0.3962 -0.0727  0.1150
29358W        W45432   0.876   2.006  13.337 -0.1851 -0.0918 -0.0709
29359W        W45433   9.318   6.992   2.904 -0.0794 -0.0726 -0.1007
29360W        W45434  15.572   3.921   5.101  0.0733  0.0170 -0.0402
29361W        W45435  18.136   8.745   1.269 -0.1926  0.2188  0.0675
29362W        W45436   4.496  16.960   4.248  0.0888  0.2119 -0.0006
29363W        W45437   3.573   8.589   3.442 -0.0712  0.3617  0.0086
29364W        W45438   6.351   4.940   4.378  0.0516  0.0523 -0.1196
29365W        W45439   9.997   5.689   4.298  0.0052 -0.0094  0.1877
29366W        W45440  14.553   4.391  12.406 -0.0004  0.3679 -0.4922
29367W        W45441  11.974  18.311  15.598  0.0506  0.2008  0.1190
29368W        W45442  11.955   0.543  14.446 -0.0636  0.1272 -0.1119
29369W        W45443   2.330  14.335  15.623  0.1101 -0.0966  0.0958
29370W        W45444  17.185  16.242  15.285 -0.4303  0.0880  0.0668
29371W        W45445   2.110   3.232   1.674 -0.1838  0.0967  0.0091
29372W        W45446   5.270  16.716  13.276  0.2367 -0.1211 -0.0386
29373W        W45447   7.507   1.360   2.448  0.1699 -0.0941 -0.2859
29374W        W45448   5.678   6.759   6.030 -0.0889 -0.0825  0.1800
29375W        W45449  11.944  11.492   5.496 -0.2235  0.1236  0.1105
29376W        W45450   9.792  14.188   0.182  0.3992 -0.0111  0.1885
29377W        W45451   9.860   8.179   3.425 -0.3999  0.0149  0.0562
29378W        W45452   5.091   8.675   5.191 -0.0139 -0.1956  0.1059
29379W        W45453  14.565  15.578   1.608 -0.2429  0.0876  0.0866
29380W        W45454   7.575  10.507   2.394  0.1586  0.3788 -0.0839
29381W        W45455   4.181  10.496   4.811  0.0804 -0.0913  0.0984
29382W        W45456  10.529  14.151  14.957 -0.2738 -0.3683 -0.1427
29383W        W45457   2.162   3.395   4.383 -0.0409 -0.4149 -0.1171
29384W        W45458   1.698  10.831   0.448  0.2571 -0.2197 -0.0117
29385W        W45459   9.875  12.702   4.874  0.3649  0.2516  0.2411
29386W        W45460   0.600  16.399   2.293  0.0611 -0.1481 -0.0222
29387W        W45461  15.319  13.470   1.337  0.0405  0.0935  0.1444
29388W        W45462   3.977  14.241   0.934 -0.1489 -0.0592 -0.0594
29389W        W45463   4.392   7.291  12.643  0.4222  0.2278 -0.0855
29390W        W45464  17.080  13.945  12.265 -0.0926  0.0845  0.2343
29391W        W45465  10.221  14.200   0.529 -0.2971  0.2213  0.1845
29392W        W45466   8.965  12.010  15.398  0.0826 -0.1678  0.1191
29393W        W45467  11.935  10.943   0.134  0.2390 -0.0316  0.1976
29394W        W45468   9.908   8.231  13.907  0.0115 -0.2249 -0.0205
29395W        W45469  12.042   3.519  15.243 -0.0772  0.0175 -0.0846
29396W        W45470   3.893   1.805   2.402 -0.2799 -0.1052 -0.0629
29397W        W45471   5.638  18.324  14.754 -0.0296 -0.0376 -0.1260
29398W        W45472  13.976   4.505   0.297 -0.0318  0.0861 -0.1439
29399W        W45473  17.459   1.555  11.533  0.2483  0.0747  0.2510
29400W        W45474   1.750  16.294   4.275  0.3739 -0.1243  0.1116
29401W        W45475  16.001  14.938   1.722 -0.1645  0.0789  0.3445
29402W        W45476   1.269   5.038  13.911 -0.0718  0.2146 -0.2976
29403W        W45477   5.929   1.416  14.745  0.0479  0.3436 -0.2466
29404W        W45478   3.638  18.235  12.740  0.0234 -0.1473 -0.0665
29405W        W45479   2.513   1.646  11.293  0.0508  0.1391  0.0614
29406W        W45480  14.091   3.003  14.513  0.2602  0.2370  0.0505
29407W        W45481  15.431   5.420   4.732 -0.1352 -0.0219  0.0970
29408W        W45482  13.787   6.455  13.960  0.0715  0.0166 -0.2275
29409W        W45483   5.963   0.772   4.101  0.1127 -0.1897 -0.0082
29410W        W45484   0.057  18.385   4.261  0.0496 -0.2980 -0.1950
29411W        W45485  14.337  13.385   1.347 -0.2127  0.0475  0.2495
29412W        W45486  18.214   7.825   0.446 -0.1430  0.2251  0.4879
29413W        W45487  11.268   7.777  15.040 -0.0675 -0.1025  0.1785
29414W        W45488  18.302  12.987   5.420 -0.1850  0.1482 -0.1700
29415W        W45489  16.915   7.482  12.664  0.1501  0.0152  0.1172
29416W        W45490   9.172  13.509  11.737  0.3250  0.1743  0.3317
29417W        W45491   3.475   7.272   1.770 -0.2939 -0.0876 -0.0130
29418W        W45492  14.360   8.299   3.767  0.0556  0.2727  0.2200
29419W        W45493   0.421  14.307  11.666 -0.1116  0.0505  0.2784
29420W        W45494   2.633   8.479   2.581  0.2805  0.0140  0.0696
29421W        W45495  14.952   0.947  11.634  0.1888 -0.0749 -0.0990
29422W        W45496   1.254   2.803  12.232  0.2238 -0.1984  0.2814
29423W        W45497   3.349  11.974  14.326  0.0024  0.1494 -0.1460
29424W        W45498   5.039   6.482   1.209 -0.1029 -0.0494  0.1697
29425W        W45499  12.317   6.199  14.202  0.0841  0.3542 -0.1070
29426W        W45500  16.909  13.467  14.738  0.1581 -0.0478 -0.3167
29427W        W45501  11.305   1.517   6.114  0.2335 -0.0898  0.0490
29428W        W45502  14.189  14.408   0.166  0.0557 -0.0604 -0.0274
29429W        W45503  14.045  10.029   1.262 -0.4537 -0.1039 -0.2914
29430W        W45504  13.410  17.912  10.927 -0.2986 -0.0415  0.0326
29431W        W45505   4.236  15.322  15.310 -0.0869 -0.3663 -0.1897
29432W        W45506  11.253  13.798   3.771 -0.0748  0.2759  0.0683
29433W        W45507   7.567  14.338  12.806  0.0639 -0.0778 -0.1659
29434W        W45508  12.420  10.994   1.405  0.0342 -0.1385 -0.2441
29435W        W45509   4.363   0.788   1.807  0.2078  0.0603 -0.3845
29436W        W45510  13.669   6.604   5.193  0.0160  0.4605 -0.0316
29437W        W45511   0.974   1.990  14.694 -0.3070  0.0433  0.2892
29438W        W45512   8.225  14.308  14.251  0.2723 -0.0145  0.1790
29439W        W45513   5.113   9.214  15.426 -0.1113 -0.0318 -0.1985
29440W        W45514  10.197   0.608   2.633 -0.2419 -0.2291 -0.1177
29441W        W45515   1.349  10.928  11.616 -0.3424 -0.3299 -0.0316
29442W        W45516   3.568   0.580  11.762 -0.1506 -0.3244 -0.1362
29443W        W45517   6.917   4.138   4.673 -0.0582  0.1726  0.2147
29444W        W45518  18.313   7.091  14.972  0.0496 -0.1005  0.0069
29445W        W45519  17.045   0.429   3.709 -0.0637  0.1819  0.1076
29446W        W45520  12.309   8.292   5.416  0.0276 -0.0784  0.3626
29447W        W45521   1.409   0.929  15.474 -0.1011 -0.3337 -0.1552
29448W        W45522  13.408  16.201  14.379 -0.1581 -0.0423 -0.0168
29449W        W45523   4.747   8.414   4.212  0.1782 -0.0013 -0.0403
29450W        W45524  17.151   4.654  12.848 -0.3612  0.0599 -0.1484
29451W        W45525  16.582  13.893  11.312  0.3822 -0.2551 -0.2704
29452W        W45526  13.443  18.412   3.049  0.0600 -0.0497 -0.1697
29453W        W45527  15.867   0.155  10.546 -0.4990  0.1170 -0.2173
29454W        W45528   2.757  11.662   2.191 -0.2389 -0.3817  0.1035
29455W        W45529  14.404  10.222   1.609  0.0985 -0.0906  0.0849
29456W        W45530  11.776   7.430   1.770  0.0473  0.0594 -0.1666
29457W        W45531  13.482   6.711   2.844  0.2881 -0.0656  0.2901
29458W        W45532   7.720  15.601   4.445 -0.2736  0.0108 -0.0812
29459W        W45533   5.414  15.888   1.146 -0.0677  0.0028  0.0849
29460W        W45534   2.607  10.670   0.867 -0.0172 -0.0414  0.0511
29461W        W45535   8.045   4.097  14.781  0.0965  0.2129 -0.0792
29462W        W45536   4.640  15.267   1.286 -0.0197 -0.4173 -0.0928
29463W        W45537  18.421  11.181  11.794  0.0423 -0.1586  0.0857
29464W        W45538   3.522  13.236  13.166  0.0879 -0.2919 -0.0046
29465W        W45539  10.878   9.940  14.093  0.1812 -0.1829 -0.2729
29466W        W45540  16.487   4.696  11.788  0.1550  0.1141 -0.1088
29467W        W45541  14.916   5.657  14.784 -0.3118 -0.3477  0.1282
29468W        W45542   0.122   5.796   6.334  0.0725 -0.0676 -0.1503
29469W        W45543   1.784   1.918   1.353  0.1315 -0.3061 -0.0041
29470W        W45544   9.030   7.551   4.808  0.2868  0.3069  0.4259
29471W        W45545   4.032  15.997  13.893  0.2833  0.2315  0.0811
29472W        W45546   1.867   0.839  12.752  0.0940 -0.0998 -0.2752
29473W        W45547   6.165   9.491  13.253  0.2740 -0.0348 -0.0690
29474W        W45548  12.090  18.399  13.523 -0.2253 -0.0088  0.0418
29475W        W45549  16.463  11.775  15.861 -0.1142  0.4665 -0.4805
29476W        W45550  11.761   1.976   3.952  0.0521  0.0628 -0.2594
29477W        W45551  12.517  13.958   4.129 -0.1243 -0.3377 -0.0652
29478W        W45552  14.042   8.874  14.051 -0.2025 -0.1927 -0.2872
29479W        W45553  15.382   5.961  15.640  0.0356  0.4763  0.0522
29480W        W45554   4.705  14.349   1.668  0.0044 -0.0506 -0.0237
29481W        W45555   5.251   8.869  15.901 -0.1260  0.0678 -0.0538
29482W        W45556   4.136  15.170  15.871  0.3886 -0.0884 -0.0131
29483W        W45557   4.869  13.945   0.993 -0.0900  0.0465 -0.0681
29484W        W45558   7.291   7.418   0.986 -0.0684 -0.0540 -0.3060
29485W        W45559   1.724   6.853   5.150  0.2095 -0.1145  0.1972
29486W        W45560  14.195   3.237   3.051  0.3987 -0.1861 -0.3032
29487W        W45561   6.747  13.308  14.541 -0.1159 -0.1168  0.0916
29488W        W45562  13.403   5.119   1.681 -0.2031  0.0889  0.2060
29489W        W45563  18.492  14.350   0.855 -0.2337  0.1387 -0.2151
29490W        W45564   5.624  12.921  12.826  0.1548  0.0362  0.2458
29491W        W45565  11.075   4.330   4.147  0.0326 -0.0950 -0.1330
29492W        W45566  13.074  14.565  12.247 -0.1622 -0.0474  0.1866
29493W        W45567   1.091   8.360  14.100  0.0798  0.0340  0.1730
29494W        W45568  10.119   5.321  11.686 -0.1119 -0.0797 -0.2581
29495W        W45569   3.701   0.348   3.364  0.0428 -0.0640 -0.3152
29496W        W45570  15.412   0.979   1.791  0.1109 -0.0520 -0.0419
29497W        W45571  13.802   4.377  15.492  0.4005  0.0521  0.0955
29498W        W45572  15.508  12.920   3.638  0.2978 -0.2275 -0.1160
29499W        W45573   5.669   0.593  14.668 -0.1216 -0.0264 -0.1109
29500W        W45574  17.118   2.654  14.082  0.3545 -0.1562  0.0112
29501W        W45575  11.781   7.493   0.825 -0.4530  0.2591 -0.2970
29502W        W45576  13.032   6.839   3.088  0.1106 -0.0908 -0.2787
29503W        W45577  15.382   0.377  13.289 -0.1546 -0.0712  0.1454
29504W        W45578   2.785  13.811  12.132  0.1972 -0.0185  0.0743
29505W        W45579  16.984   1.416  11.624 -0.1262 -0.0552 -0.1231
29506W        W45580   0.843   3.555  13.885 -0.2183  0.1000 -0.0955
29507W        W45581   6.453  14.646  13.354 -0.0763 -0.4153  0.2265
29508W        W45582   9.115  13.765  11.236 -0.1917 -0.0555  0.1454
29509W        W45583   1.003   4.055  13.700 -0.1351  0.1222  0.0923
29510W        W45584   3.352   5.357  11.332 -0.0036 -0.0520 -0.0811
29511W        W45585   1.158   6.333   1.314 -0.0012  0.1712 -0.0916
29512W        W45586   6.151   7.682  15.411  0.2252 -0.0776 -0.1223
29513W        W45587   4.200   4.952   3.214 -0.2231 -0.1137 -0.1369
29514W        W45588   4.779   2.916   5.285  0.0379 -0.0464  0.0039
29515W        W45589  16.383   6.441  14.590  0.1424 -0.1978 -0.3515
29516W        W45590  16.046  12.385   0.516 -0.0287 -0.1061  0.0958
29517W        W45591   6.912   2.210   0.870  0.0163 -0.1831  0.0175
29518W        W45592  15.539  16.345  11.545  0.0578 -0.0828  0.3219
29519W        W45593  17.837   2.350   5.046 -0.0187  0.0719  0.1087
29520W        W45594   7.151   5.149  12.647  0.0288 -0.1430  0.0517
29521W        W45595   0.515   0.404  14.434  0.0317  0.1210  0.1460
29522W        W45596  12.920  14.713   4.392  0.2533 -0.0027 -0.1719
29523W        W45597   0.893  10.983   4.684 -0.4347 -0.2846  0.3761
29524W        W45598   7.895  13.968  12.170 -0.1839  0.1934  0.1094
29525W        W45599   7.613  14.024  13.185  0.1221 -0.0148  0.2138
29526W        W45600  11.834   6.036   5.298 -0.0976 -0.0598 -0.0075
29527W        W45601   4.193   3.621   3.186 -0.1200  0.0465 -0.2001
29528W        W45602  16.247  14.561  10.564  0.1920 -0.0266  0.0537
29529W        W45603  16.876   4.863  13.339  0.0488 -0.1210  0.1113
29530W        W45604   4.823   2.051   2.187 -0.0317 -0.5019 -0.1605
29531W        W45605  14.614   3.941  14.567  0.1592  0.4740  0.1273
29532W        W45606  10.916  15.486   4.464 -0.3044 -0.1319  0.3895
29533W        W45607  15.644   2.761   4.386 -0.2093 -0.0929  0.1477
29534W        W45608  15.005  11.185  13.194 -0.1978  0.2100 -0.1586
29535W        W45609   1.618  13.284   4.692  0.1068 -0.2289  0.0911
29536W        W45610  16.624  16.772  15.519  0.2139  0.0155 -0.0863
29537W        W45611  14.059   1.519  12.812 -0.0988 -0.0306  0.2189
29538W        W45612   6.402   0.442   5.007 -0.0020  0.0623  0.1244
29539W        W45613   5.901  16.924  15.788  0.0027  0.1364 -0.1439
29540W        W45614   8.389   0.572  14.269  0.3215  0.0420  0.1684
29541W        W45615  16.653   8.741  15.697 -0.0161 -0.0233 -0.3132
29542W        W45616  13.511  15.108  11.555 -0.3277  0.0397  0.1964
29543W        W45617   2.454   0.837   3.782 -0.0067 -0.0914  0.0795
29544W        W45618   8.183   0.463   4.791  0.2582 -0.1634 -0.2178
29545W        W45619  10.423  18.012  14.296  0.1109  0.1536 -0.3719
29546W        W45620   7.942  12.071  15.379  0.2281 -0.1073 -0.0886
29547W        W45621   9.837  12.177   3.682  0.1682  0.0165 -0.3371
29548W        W45622   1.556  12.658   2.960 -0.1232 -0.1327  0.0343
29549W        W45623  14.209  16.725   3.428  0.0367  0.1002 -0.0119
29550W        W45624   1.742   2.660  12.480  0.2879 -0.1267  0.0646
29551W        W45625  12.323   5.012  11.670  0.0876 -0.2253 -0.1199
29552W        W45626  10.292  18.282   5.760 -0.0781 -0.3457 -0.2010
29553W        W45627  13.578   2.836   4.787 -0.2882 -0.0354  0.0120
29554W        W45628  15.406  13.517  14.972  0.1830 -0.2773  0.0034
29555W        W45629  12.567  11.444  10.938 -0.1982  0.2743  0.0943
29556W        W45630   0.585  10.036   0.807 -0.4035  0.2757  0.0369
29557W        W45631  12.768   5.773   3.975  0.0997 -0.1939 -0.0915
29558W        W45632   0.812   3.057   1.332  0.3011 -0.1235  0.0383
29559W        W45633  18.155   8.117  11.609 -0.0514  0.0017 -0.5019
29560W        W45634  11.299   7.889   2.445  0.0847 -0.0145 -0.5854
29561W        W45635   6.631   1.812   1.042 -0.0843  0.3510 -0.0557
29562W        W45636   9.225   8.073  13.395  0.0798  0.3834  0.2054
29563W        W45637   2.786   8.004   0.692  0.3078  0.0934 -0.1928
29564W        W45638   1.785  12.112   0.971 -0.0102 -0.0071 -0.0830
29565W        W45639  10.875   1.015  14.675 -0.1368  0.4173 -0.1714
29566W        W45640  16.871   3.688  14.362  0.1804 -0.0771 -0.0966
29567W        W45641   5.834   3.251  12.479 -0.1974 -0.0433  0.3634
29568W        W45642   2.412  17.138  12.544 -0.1402  0.0499  0.0507
29569W        W45643  11.030  11.660  13.547  0.0210 -0.0214 -0.0460
29570W        W45644   2.030   4.236  12.394 -0.1525 -0.0691 -0.1795
29571W        W45645   3.684   1.096   3.061 -0.0493  0.2846 -0.0022
29572W        W45646  16.718  14.490  13.109 -0.2539  0.1615 -0.0014
29573W        W45647   6.524  13.599   2.992 -0.0274  0.0446  0.1052
29574W        W45648   0.829  14.331   0.343 -0.2261  0.0025 -0.1196
29575W        W45649  10.212   5.454  14.967 -0.0790 -0.2924  0.1913
29576W        W45650   3.322  14.567  12.651 -0.0824  0.3150  0.3007
29577W        W45651   6.761  16.336  11.550  0.1646  0.1409 -0.1059
29578W        W45652   6.558   8.825   5.376 -0.1545 -0.1194 -0.1187
29579W        W45653  11.869   4.447  11.603  0.0322 -0.3400  0.1491
29580W        W45654  18.385  16.653  11.970 -0.1990 -0.2013 -0.0509
29581W        W45655  11.264  17.861  15.444 -0.1441 -0.0590  0.1898
29582W        W45656  11.148  10.757  14.840 -0.2676 -0.2419  0.3291
29583W        W45657   2.801   9.870   2.078  0.0267 -0.0141  0.3286
29584W        W45658   9.765   3.129   0.452 -0.0300  0.0379 -0.3089
29585W        W45659   0.422  15.040   3.609 -0.0346  0.1538 -0.0351
29586W        W45660   8.680  15.516   5.260  0.0674 -0.3381  0.1282
29587W        W45661  15.359   5.698   3.298  0.1653  0.2075 -0.0487
29588W        W45662  17.559   0.914  14.232  0.0067  0.0483  0.0937
29589W        W45663   5.583   2.599   2.134  0.1987 -0.0651 -0.0022
29590W        W45664  15.650   8.888   2.730 -0.3246  0.1196  0.2157
29591W        W45665   4.024  10.756  15.077  0.0380  0.3007 -0.2501
29592W        W45666   2.775   9.540  14.342 -0.0192 -0.2598 -0.2437
29593W        W45667   9.066  14.099   2.297  0.5445  0.0469 -0.0247
29594W        W45668   5.638   4.192   4.089  0.0012  0.1905 -0.0655
29595W        W45669   8.520   6.527   4.031  0.1552 -0.1352 -0.0390
29596W        W45670  15.426  11.218   0.424  0.0482 -0.1978  0.0699
29597W        W45671   5.322  10.643   5.676 -0.1612 -0.1720  0.0425
29598W        W45672   2.473  11.077   0.577  0.1280 -0.1521  0.1683
29599W        W45673   9.319   9.796  14.482 -0.0051  0.2141  0.2066
29600W        W45674   2.077  14.997  14.170 -0.1386  0.0808 -0.0385
29601W        W45675   9.607  16.870   2.452 -0.1595 -0.3064 -0.2327
29602W        W45676   4.647   3.537   3.053 -0.1374 -0.0468 -0.0205
29603W        W45677   0.908  10.809  12.631 -0.1640  0.2874 -0.0707
29604W        W45678   0.351   6.843   5.847  0.2951 -0.0882 -0.0778
29605W        W45679  17.463   5.955   2.338 -0.0973  0.0435 -0.1715
29606W        W45680  10.227   9.634  11.551  0.1591 -0.0047  0.2383
29607W        W45681   5.506  14.688   0.672  0.0624 -0.0218  0.0856
29608W        W45682  11.715   0.348   3.130  0.3015  0.2697 -0.3172
29609W        W45683   1.452  17.339   1.805  0.0661  0.6953 -0.4743
29610W        W45684   3.837   8.498  15.625  0.0729  0.0625 -0.2971
29611W        W45685   6.182   3.319  13.141  0.0718 -0.1822  0.2711
29612W        W45686   5.739   0.911  13.077 -0.4187  0.1688 -0.1002
29613W        W45687  12.686   1.125   0.412 -0.0452  0.0920  0.1481
29614W        W45688   1.880  17.300  11.100 -0.1363  0.2134 -0.0707
29615W        W45689  12.815  16.876  15.685 -0.0239  0.3809 -0.2200
29616W        W45690   4.574   9.980   1.546 -0.0429 -0.5380  0.0823
29617W        W45691  16.161   9.777  12.793  0.0161 -0.4522  0.0322
29618W        W45692  14.438   6.038   4.038  0.3843 -0.3856 -0.1378
29619W        W45693  13.989   6.848  13.107 -0.0355 -0.0695 -0.0568
29620W        W45694   9.416  16.365  10.423  0.1699 -0.1349 -0.2018
29621W        W45695  12.177  10.841   0.543 -0.0222 -0.1525  0.1948
29622W        W45696  14.472   9.152   2.378 -0.1924 -0.0982 -0.4497
29623W        W45697   5.062   2.457  14.532  0.1975 -0.1236  0.2224
29624W        W45698  13.036   2.080  15.782 -0.1187 -0.0416  0.0021
29625W        W45699   1.496  12.040  13.672 -0.2904 -0.0722 -0.1322
29626W        W45700   4.895  11.578  15.730  0.2357 -0.2503  0.4620
29627W        W45701   0.747  18.288  13.317 -0.1819  0.0637  0.1774
29628W        W45702  11.123  10.531  10.412 -0.0587 -0.1035  0.1635
29629W        W45703  11.903   1.087  11.881  0.2198 -0.1034  0.3669
29630W        W45704  14.775  12.171   3.780 -0.2776 -0.0910 -0.0097
29631W        W45705   1.469   9.186  13.622  0.3853 -0.1535  0.2795
29632W        W45706  18.328  14.743   1.119  0.3225  0.0320  0.2102
29633W        W45707   4.022  16.118   2.294  0.0163  0.2722  0.0863
29634W        W45708  11.171   1.107  14.100 -0.1726 -0.1690  0.0709
29635W        W45709  11.684  12.147  14.560 -0.2113 -0.1365  0.2017
29636W        W45710   1.337   9.773   6.083  0.0340  0.0137 -0.0432
29637W        W45711   7.542  12.782  14.591 -0.1437  0.1232 -0.0894
29638W        W45712  12.543  12.667  10.802  0.1043  0.1884 -0.3669
29639W        W45713  16.871   8.545  15.252 -0.0268  0.2021 -0.0442
29640W        W45714  13.856   5.861  11.592 -0.0647  0.3414  0.1307
29641W        W45715   2.079  15.929   4.436  0.0747 -0.1041 -0.0768
29642W        W45716  11.479   4.501  13.643  0.0335 -0.0157 -0.0808
29643W        W45717  16.671  17.517   4.876  0.4765  0.1556  0.1320
29644W        W45718  14.522   9.260  14.782  0.1634  0.0040 -0.0987
29645W        W45719   6.182  17.240  14.572 -0.0836  0.0575  0.0193
29646W        W45720  14.083   1.331  13.990 -0.1369  0.1596  0.1309
29647W        W45721  13.219  17.411   1.683 -0.0680 -0.1287 -0.1869
29648W        W45722   6.513   8.379  12.430 -0.0999 -0.0062  0.1932
29649W        W45723   8.664  17.780  10.826 -0.0240  0.1432  0.0929
29650W        W45724  18.049   2.691   0.913  0.0601  0.1097  0.0433
29651W        W45725   0.752  15.167   2.268  0.0186  0.1858  0.0586
29652W        W45726  12.709   4.674   1.912  0.0691 -0.0622 -0.2410
29653W        W45727  18.155   0.199   1.783 -0.1706 -0.1578  0.2981
29654W        W45728  16.717  17.750  10.609 -0.1979  0.0786 -0.1271
29655W        W45729   6.934   9.182   2.876 -0.2067 -0.2409 -0.2402
29656W        W45730  17.505  15.454   4.988  0.1269 -0.1222 -0.4096
29657W        W45731   2.520   1.591  12.886  0.0218  0.0560  0.1900
29658W        W45732   6.130   5.603   0.630 -0.0569 -0.1409 -0.2237
29659W        W45733  14.207   0.060   0.594 -0.2267 -0.1009 -0.1917
29660W        W45734  14.533  10.426   2.076 -0.0457 -0.0951  0.1178
29661W        W45735   9.729  12.216   2.354  0.4495  0.3706  0.3425
29662W        W45736   5.581   9.529   1.772 -0.2488 -0.0765 -0.1175
29663W        W45737  10.850  10.477   4.635 -0.2228  0.0266 -0.0819
29664W        W45738  10.865   5.437  15.401 -0.2361  0.0753  0.1404
29665W        W45739   2.541  15.065  12.441 -0.2794 -0.4636  0.0637
29666W        W45740   1.254   3.429   5.330  0.0706  0.1450 -0.1824
29667W        W45741  14.635   3.819   5.718 -0.3541  0.2329  0.0084
29668W        W45742  13.231   1.404  11.250 -0.1148 -0.0183 -0.0563
29669W        W45743  11.020  11.260   3.275  0.2632  0.1508  0.1431
29670W        W45744   1.556   0.168   0.213  0.1307  0.1789 -0.0879
29671W        W45745   1.363  18.510   1.618  0.0847  0.0509 -0.1429
29672W        W45746  13.190  16.449   0.395  0.0466 -0.0132  0.0839
29673W        W45747   4.912   8.765  14.455  0.1055  0.1091 -0.2353
29674W        W45748   5.242  11.396  11.683  0.2129  0.0012  0.1777
29675W        W45749  15.699   1.509  12.682 -0.2593  0.1134 -0.1909
29676W        W45750   8.738  14.577  13.515 -0.1197 -0.1283 -0.0088
29677W        W45751  13.045   1.390  11.704 -0.1353 -0.2756 -0.0845
29678W        W45752   2.277  15.819  13.621 -0.0036  0.1482 -0.0619
29679W        W45753  10.486  12.992  12.030  0.3606 -0.4759 -0.2881
29680W        W45754   1.336   7.844   3.815 -0.3147 -0.1048  0.0092
29681W        W45755  18.076   1.834  15.861 -0.0439 -0.0524  0.0655
29682W        W45756   7.145  15.983  11.321 -0.2456 -0.0133  0.0672
29683W        W45757   0.050  16.358   2.123 -0.1687 -0.3028  0.1359
29684W        W45758  10.301   2.078  13.365 -0.0948 -0.0403  0.0153
29685W        W45759   6.497  12.264  14.703  0.2629  0.4827 -0.1153
29686W        W45760   4.013   7.870   4.299 -0.0227  0.2892  0.0068
29687W        W45761   3.928  10.493   5.259 -0.0551  0.3533 -0.0916
29688W        W45762   6.653   3.681   0.753  0.1663 -0.1995  0.1451
29689W        W45763   2.373  13.153  12.669 -0.0441  0.0056  0.1403
29690W        W45764   5.724   6.617   2.379  0.1387 -0.1498  0.3047
29691W        W45765   8.626   3.238   0.258 -0.0674 -0.2346  0.1058
29692W        W45766  12.183  17.535  11.128 -0.3352  0.1686 -0.0932
29693W        W45767  13.044   8.645   6.077  0.1312 -0.3846  0.1180
29694W        W45768   3.803  14.690   3.841  0.1704  0.1478  0.0143
29695W        W45769  12.361   5.669  15.823  0.2064 -0.0284 -0.2088
29696W        W45770   5.070  10.311  12.609  0.0738 -0.1326  0.3683
29697W        W45771  10.324   9.703  10.288 -0.3363  0.1755 -0.3031
29698W        W45772  17.246   3.222   4.179 -0.2157  0.0040 -0.3841
29699W        W45773  11.754  14.153   1.737 -0.0167 -0.1048  0.5249
29700W        W45774   9.207  13.959  15.274 -0.0182 -0.2568  0.4218
29701W        W45775   2.642   5.217   5.012  0.0641 -0.0648  0.1524
29702W        W45776   2.990   0.192   4.854  0.2234  0.1061  0.1336
29703W        W45777  13.225   2.023   3.605 -0.1159  0.1404  0.1968
29704W        W45778   9.430  17.813  11.532  0.1538 -0.4631  0.0541
29705W        W45779  11.438   0.985  12.949  0.5338  0.0030 -0.2128
29706W        W45780  14.928  14.755  14.961 -0.2721 -0.4447  0.0993
29707W        W45781  15.877  16.795   5.628  0.2583 -0.0446 -0.2938
29708W        W45782  11.425   2.853  11.488  0.2855  0.1309 -0.2377
29709W        W45783   0.263   8.694  13.374 -0.0721 -0.1887  0.2933
29710W        W45784   5.716  18.532  12.597  0.0250  0.0028  0.2483
29711W        W45785  14.970   2.553   1.041  0.0066  0.2642  0.2122
29712W        W45786   6.093  14.206  11.485  0.0805 -0.0763  0.1600
29713W        W45787   3.553   5.817  12.347  0.2034 -0.1275 -0.0234
29714W        W45788   2.469  14.728   2.549  0.3364 -0.1349 -0.1978
29715W        W45789   0.336   8.223   2.496  0.2606  0.1028 -0.2137
29716W        W45790  10.789   8.929   4.239 -0.0648 -0.0635  0.2811
29717W        W45791  16.594  13.123   4.241  0.0095 -0.1586 -0.1694
29718W        W45792  10.569   2.728  11.474 -0.1657  0.2520 -0.0993
29719W        W45793   7.189  12.959  12.997 -0.4206 -0.2883 -0.0235
29720W        W45794  10.983  11.956  15.998 -0.0488 -0.1381  0.0689
29721W        W45795   8.076  17.089  12.516  0.1955 -0.0208 -0.2656
29722W        W45796  14.231   6.373  12.997 -0.1568  0.0327 -0.1716
29723W        W45797  12.560   1.138   3.593  0.1490 -0.2740  0.1026
29724W        W45798  14.913   9.940   0.939 -0.1278 -0.0681  0.3286
29725W        W45799   1.212  17.271   2.381 -0.0527  0.1683  0.1894
29726W        W45800  17.177  17.739   5.382 -0.1374 -0.1345 -0.0912
29727W        W45801  15.251  10.509  11.932  0.0535  0.3202  0.1533
29728W        W45802  14.010   8.486   0.543  0.1522  0.1896 -0.0842
29729W        W45803  14.694   8.914   0.059  0.0558  0.2343 -0.0317
29730W        W45804  11.104  15.465   5.011  0.1628  0.3179 -0.2524
29731W        W45805   7.348   2.713   4.383 -0.5804 -0.2081  0.2987
29732W        W45806  14.856   4.667   5.974  0.2064 -0.0109  0.0298
29733W        W45807  16.433   8.857  14.383 -0.0038 -0.0287 -0.0035
29734W        W45808   1.453  16.730   3.118  0.0580  0.1521  0.1454
29735W        W45809   4.613  13.212  15.704  0.0903  0.1887  0.0459
29736W        W45810  14.005   1.647   3.968 -0.1032  0.1690 -0.0272
29737W        W45811  17.708  16.778   3.208 -0.0286  0.0427 -0.0647
29738W        W45812  15.923   2.508   5.300  0.1938 -0.2033 -0.5938
29739W        W45813  17.137  17.037  12.303 -0.0256  0.0636  0.1247
29740W        W45814   1.724   8.255   3.906 -0.2008  0.0432 -0.1249
29741W        W45815  14.262  18.428   2.576  0.3189 -0.0753  0.1976
29742W        W45816   2.736  18.266   0.628  0.0538 -0.2075  0.0499
29743W        W45817  14.210   3.897  12.674  0.1279 -0.2745 -0.2335
29744W        W45818  17.108  18.402   5.883 -0.0894 -0.2605  0.1186
29745W        W45819  14.452  16.033  12.506  0.2209  0.1310  0.1143
29746W        W45820   8.158   7.400   2.069  0.1876 -0.0774  0.1977
29747W        W45821   8.342  10.415   1.465  0.2148 -0.4509  0.1542
29748W        W45822  11.392   9.267   3.148 -0.0619 -0.3842 -0.0755
29749W        W45823   9.534  11.932  11.143  0.1410  0.1678 -0.4273
29750W        W45824  10.175  11.320   1.698 -0.1886  0.2856  0.0381
29751W        W45825   6.660  14.982   4.457 -0.1186  0.1243 -0.1439
29752W        W45826  11.694   7.971   2.222  0.2859  0.5722 -0.0815
29753W        W45827  18.470   0.280   2.545  0.3307  0.3096  0.0440
29754W        W45828   6.007  15.134  14.482 -0.3417 -0.1108 -0.2460
29755W        W45829  17.661   4.148   4.046 -0.0543  0.0029 -0.0778
29756W        W45830   7.081   9.729   3.259  0.2718  0.2965  0.1529
29757W        W45831  15.785   8.539   1.779  0.2650 -0.1039 -0.0704
29758W        W45832   8.189   7.028   0.700  0.2242 -0.2191 -0.1042
29759W        W45833   1.708  15.151  13.755  0.1890 -0.0318  0.1624
29760W        W45834   8.211  11.620  15.559  0.0598 -0.2892  0.0435
29761W        W45835   0.783   2.871  13.012  0.1190 -0.1578  0.0657
29762W        W45836   6.277   3.322   1.009 -0.0674  0.0276  0.0761
29763W        W45837  12.498  13.644  13.797 -0.2194  0.0490 -0.0172
29764W        W45838   3.801   9.520   0.017 -0.4492 -0.0845  0.0380
29765W        W45839   3.259   0.249   2.003 -0.2863  0.0195  0.3653
29766W        W45840   9.242   7.192  15.336  0.0700  0.1338 -0.0206
29767W        W45841   0.252  13.585  12.905 -0.1874  0.0553 -0.1891
29768W        W45842  13.083  10.657   4.243 -0.1244 -0.0232 -0.0754
29769W        W45843  11.665  15.395  11.814  0.2416  0.2641 -0.3181
29770W        W45844   1.939   4.987   2.670  0.2670  0.1886  0.2713
29771W        W45845   5.285   8.969   3.099  0.2070 -0.4205 -0.0007
29772W        W45846  10.413   3.974   0.774 -0.1016 -0.0869  0.0793
29773W        W45847   2.680   5.168   3.788 -0.1388 -0.0212  0.1783
29774W        W45848  17.702  11.150  15.694 -0.0622  0.2772  0.4342
29775W        W45849  12.211  17.896  14.835 -0.1749 -0.1714 -0.2370
29776W        W45850  11.228   7.631   4.599  0.2322  0.2264 -0.0247
29777W        W45851  11.726  12.130   9.650  0.3444  0.0402 -0.2694
29778W        W45852  17.581   5.960   2.903 -0.0953  0.0584  0.0257
29779W        W45853   9.943  11.224   6.108  0.1815  0.1232  0.1104
29780W        W45854  15.304   3.263  14.318  0.0092 -0.2407  0.5177
29781W        W45855   6.702  13.104  15.788  0.0801 -0.0754  0.2628
29782W        W45856  11.167   1.903  10.571  0.3801 -0.2307  0.1412
29783W        W45857   6.078  16.402   4.895  0.0135  0.1979  0.2617
29784W        W45858  10.095   5.809  12.612 -0.1803 -0.2996 -0.2169
29785W        W45859  10.940   3.978  15.882  0.1001 -0.2215  0.0809
29786W        W45860  10.551   7.203  11.696  0.1333  0.0672 -0.1044
29787W        W45861  16.793   8.942   5.749  0.0280  0.0384  0.2683
29788W        W45862   9.254   8.164   1.396  0.0726 -0.1285  0.0159
29789W        W45863   2.315   3.373  11.509  0.0513 -0.5004 -0.1192
29790W        W45864  13.354  11.075  13.436  0.0347 -0.0935 -0.0418
29791W        W45865   3.905   9.221  13.589  0.0623  0.3217  0.0485
29792W        W45866  14.369   1.785  16.015 -0.0435 -0.1190 -0.1778
29793W        W45867   1.940   7.950   0.695 -0.0232  0.1629  0.4014
29794W        W45868  16.985  16.093   0.939 -0.3638 -0.2114 -0.4404
29795W        W45869  18.546   8.682   0.964  0.1022  0.1266  0.1351
29796W        W45870  10.396  13.923  11.839 -0.3065 -0.3198  0.0419
29797W        W45871  11.191   3.762  11.986  0.1396  0.0869  0.1206
29798W        W45872  17.120  10.495   2.842  0.1699 -0.2611 -0.0171
29799W        W45873   0.047  12.712  10.855  0.1609 -0.1528 -0.1334
29800W        W45874  18.122   8.987   5.636  0.0024 -0.1609  0.2330
29801W        W45875  11.660  17.321  13.091 -0.1136  0.2840  0.0060
29802W        W45876  11.586  15.939  11.115  0.1244  0.1107  0.3147
29803W        W45877  11.994   5.034   3.394  0.0934  0.0297 -0.2332
29804W        W45878   2.761  13.977   2.690 -0.0793 -0.1697  0.5144
29805W        W45879   9.758  12.333  12.493  0.0573 -0.0866 -0.0411
29806W        W45880   4.914  11.082  15.958 -0.0079  0.2160  0.0228
29807W        W45881  11.568  15.806  13.222  0.0909  0.0523  0.4040
29808W        W45882   7.448  10.248   4.498  0.0333 -0.2423  0.4489
29809W        W45883  14.385   5.578   3.906 -0.3371 -0.0037  0.0523
29810W        W45884   7.839   0.741   5.024  0.1335 -0.0360 -0.1740
29811W        W45885  10.382   0.526   0.852  0.0686  0.2452  0.0958
29812W        W45886  10.848  14.648   3.827  0.2790  0.0555 -0.0712
29813W        W45887   4.972   1.961   1.285  0.4608  0.1614 -0.0570
29814W        W45888  12.854  12.091   2.595  0.0806  0.0180  0.0284
29815W        W45889  17.232   7.824   0.335 -0.1279  0.0445 -0.2508
29816W        W45890  13.904   3.296   1.888  0.1640  0.0377  0.1086
29817W        W45891  17.429   3.300   5.792  0.2541  0.0539  0.1376
29818W        W45892   7.989   2.533  15.811  0.1204  0.0078  0.0722
29819W        W45893  16.360   8.242  15.224 -0.1754 -0.3711  0.0207
29820W        W45894   7.460  13.206   4.733  0.1022  0.0753 -0.0659
29821W        W45895   2.978  16.071   0.847  0.1163 -0.1065  0.0948
29822W        W45896   6.262  18.567  10.867 -0.1579 -0.1354  0.0419
29823W        W45897   4.674   3.632   5.643 -0.1419 -0.0098 -0.0948
29824W        W45898  17.486   1.333   4.062 -0.2003  0.1069  0.0143
29825W        W45899   8.734   9.227   2.211 -0.0069  0.1914  0.1783
29826W        W45900  16.607   5.568   4.402  0.2644  0.3389  0.0747
29827W        W45901  11.550   3.307  13.739 -0.2400 -0.0973 -0.1320
29828W        W45902  13.173   9.642   0.633  0.1901  0.2636  0.1068
29829W        W45903   9.436   1.067  11.793  0.0784  0.0029 -0.1529
29830W        W45904   9.812   2.725   0.857  0.1146  0.2705  0.1776
29831W        W45905  10.797   8.340  14.462 -0.2363  0.2427 -0.0065
29832W        W45906  17.985   2.550  12.890  0.3094  0.1510 -0.0030
29833W        W45907   8.301   0.633  12.598  0.1720 -0.1652 -0.0101
29834W        W45908   0.337   2.913  11.930  0.0326 -0.0412 -0.0866
29835W        W45909  11.271   4.553   5.228  0.1931 -0.0032 -0.0698
29836W        W45910   0.829   0.189   2.646 -0.1757 -0.2066  0.0491
29837W        W45911  15.971  17.697   3.247  0.0705  0.1254 -0.0742
29838W        W45912  10.858  15.527   1.795  0.0605  0.0264 -0.1756
29839W        W45913  13.296  10.480   0.459 -0.0380  0.0309 -0.1788
29840W        W45914  13.644   5.829   3.404 -0.0563 -0.0451  0.0856
29841W        W45915  16.924   8.799   3.234 -0.1301 -0.0113 -0.0073
29842W        W45916   4.304   9.442  13.828 -0.0380 -0.1040  0.0440
29843W        W45917   0.708   2.298  13.697 -0.1654 -0.0328 -0.0316
29844W        W45918  12.051  14.565  12.344  0.1247 -0.0910  0.3687
29845W        W45919  16.223  11.134   3.659  0.3314  0.0789 -0.1031
29846W        W45920  11.834  12.222   0.098 -0.0744 -0.2037  0.0965
29847W        W45921  14.538   5.395   2.749 -0.1798 -0.0658 -0.2456
29848W        W45922  17.948   2.914   4.877  0.0659 -0.1326 -0.3126
29849W        W45923   4.163   5.068  13.498 -0.1330 -0.1507 -0.2536
29850W        W45924  17.619   3.905  13.237  0.2280 -0.1005 -0.0540
29851W        W45925   2.748   3.007  11.425 -0.0285 -0.2210  0.1493
29852W        W45926   1.503   2.081   0.011  0.0724  0.0331  0.0851
29853W        W45927   8.584  15.892  13.998 -0.0013  0.1933 -0.1908
29854W        W45928   6.548   8.200  11.727 -0.0644 -0.2158 -0.1375
29855W        W45929  12.333  11.357   5.085 -0.3107 -0.0139  0.0047
29856W        W45930  16.070   3.733   4.156 -0.2666 -0.2001  0.1204
29857W        W45931  15.377  13.696  10.198  0.1607 -0.2679  0.2301
29858W        W45932  10.779   2.371   4.660  0.0730  0.1029  0.1142
29859W        W45933  10.133  11.449   4.280  0.1951  0.1152 -0.0382
29860W        W45934   1.140  11.049   3.187  0.0177 -0.2313 -0.1232
29861W        W45935  11.767   4.046   1.379 -0.0922 -0.2011 -0.1224
29862W        W45936  15.969  14.878  14.918  0.2524 -0.0201 -0.0686
29863W        W45937  14.637  15.835  15.744  0.2064  0.0453 -0.0496
29864W        W45938   2.541   3.788  11.983  0.1724  0.1747  0.2706
29865W        W45939  13.205  10.613  13.381 -0.2391 -0.2180  0.2452
29866W        W45940  11.782   6.201  12.458 -0.2552 -0.1358  0.0321
29867W        W45941   1.230   3.469   3.395  0.3707 -0.4067 -0.0411
29868W        W45942  11.549   3.791   1.781  0.0371 -0.2821  0.0960
29869W        W45943  14.573  16.996  12.454  0.0060  0.0962 -0.2448
29870W        W45944   4.342   4.571  13.472 -0.1090 -0.2592  0.1760
29871W        W45945   4.549  15.273  13.484  0.0832 -0.1189  0.1473
29872W        W45946   6.085  15.234  12.166  0.0157 -0.1311  0.1177
29873W        W45947  17.366   7.810  13.033  0.0251  0.2114 -0.0294
29874W        W45948  12.410  16.950  13.631  0.2551 -0.1308  0.2551
29875W        W45949   7.862   0.748  14.462  0.1312 -0.1453  0.1705
29876W        W45950   7.712  13.511  13.161 -0.0188 -0.2290  0.1821
29877W        W45951  10.173   3.157   4.519 -0.4292  0.1790 -0.0341
29878W        W45952   8.580  10.063  11.937 -0.1718  0.0157 -0.2856
29879W        W45953  17.979  17.448   4.937  0.0300  0.1960  0.0107
29880W        W45954  17.068   5.816  14.341 -0.2025 -0.0357 -0.0740
29881W        W45955   4.032  15.267   3.787  0.1927 -0.2594  0.0083
29882W        W45956  18.014  11.900   1.186  0.2768  0.1399  0.1520
29883W        W45957  17.428  12.712   2.768  0.2238  0.0292 -0.1025
29884W        W45958   4.114   4.143  13.670 -0.3094  0.0350  0.3211
29885W        W45959   9.154   0.486   0.179  0.1481 -0.1857  0.1922
29886W        W45960  10.408  16.062  12.547  0.2993 -0.0903 -0.1917
29887W        W45961   5.601   3.594   5.194 -0.0945  0.1103 -0.1090
29888W        W45962   0.826   3.007   2.652 -0.3003 -0.1839  0.0953
29889W        W45963  10.965   3.432  11.558 -0.0721 -0.1875 -0.1728
29890W        W45964  16.549  10.734  11.755 -0.0679  0.2873  0.1427
29891W        W45965   5.497  11.621   1.938  0.0922  0.0903 -0.2185
29892W        W45966   9.970   2.279  15.421  0.2568  0.0323  0.0730
29893W        W45967  14.473  17.480  13.845  0.0557 -0.0076  0.1136
29894W        W45968  17.753   6.673   3.418 -0.0243 -0.0679  0.1697
29895W        W45969   0.017   4.558   1.085  0.1578  0.2171  0.0915
29896W        W45970  16.734  10.167  12.743  0.1943  0.0011 -0.2437
29897W        W45971  14.361   9.063   0.979  0.1579  0.2419  0.0884
29898W        W45972   2.467  13.510   4.494  0.0641  0.0042  0.1169
29899W        W45973  13.363  12.070   4.183  0.2066 -0.0613 -0.3351
29900W        W45974   0.847  18.438  15.862  0.2433 -0.0366 -0.2516
29901W        W45975   6.270   2.629   4.502  0.0248  0.1388  0.0217
29902W        W45976  17.706   5.745  10.978  0.3484  0.1397 -0.2441
29903W        W45977  12.913   9.208   0.754  0.1608  0.1095 -0.2472
29904W        W45978   0.803   7.099  13.939 -0.0364 -0.2221  0.6613
29905W        W45979   5.093   1.322   5.107  0.1705  0.2457  0.3482
29906W        W45980  12.714  13.805   1.573  0.1223 -0.1057  0.0194
29907W        W45981   7.727  17.042   2.344  0.0813  0.2732 -0.0742
29908W        W45982  12.244   6.411   4.106  0.1842 -0.1318 -0.0323
29909W        W45983   1.657   0.600   2.244  0.0324 -0.0452 -0.2150
29910W        W45984  14.547   7.146  14.776 -0.3220  0.1049 -0.0326
29911W        W45985   0.184   2.828  15.270  0.0349  0.0224 -0.3452
29912W        W45986   3.289   8.733   1.617  0.0514  0.0568 -0.1598
29913W        W45987   7.117   9.286   4.336 -0.1456 -0.0113 -0.2863
29914W        W45988  18.258  12.204  11.408  0.0300 -0.3000 -0.1777
29915W        W45989  12.000   2.299  13.811 -0.4063  0.0832 -0.1441
29916W        W45990   3.315   5.029   3.912 -0.3897 -0.0043 -0.2258
29917W        W45991   5.663  15.669   3.836 -0.3852  0.0003 -0.0373
29918W        W45992   0.743  13.555   5.277  0.0630 -0.0155  0.2631
29919W        W45993  10.448  10.283  12.548 -0.0827  0.1656 -0.2113
29920W        W45994  14.536  16.355   5.005 -0.2627 -0.0268 -0.1392
29921W        W45995  16.365  12.382  11.423  0.0571 -0.0209 -0.0231
29922W        W45996   3.140   7.817  14.734 -0.3337  0.0142  0.4808
29923W        W45997   6.260   0.819  11.410 -0.1767  0.0840  0.1101
29924W        W45998   0.364  17.310   3.648  0.0365  0.1738  0.0313
29925W        W45999  11.280   0.717   0.459 -0.0195 -0.0725 -0.2272
29926W        W46000  16.070   9.082  14.779 -0.3655  0.2402 -0.2084
29927W        W46001   6.365   7.985  13.614 -0.1019 -0.1809  0.0447
29928W        W46002   3.510   3.896  11.422 -0.3076 -0.0706 -0.0887
29929W        W46003   4.831   6.769   0.797  0.0913  0.2025  0.2157
29930W        W46004   8.014   1.906   0.359  0.1826  0.1562 -0.0171
29931W        W46005   9.450   5.164   1.752 -0.2827 -0.0137 -0.3066
29932W        W46006   7.025  11.724   0.576 -0.0631  0.3037  0.2017
29933W        W46007   8.921   8.565  12.524  0.0769 -0.0407  0.0157
29934W        W46008  11.426   8.372   2.130  0.2272  0.0791 -0.3333
29935W        W46009  11.804   9.194  12.203 -0.1234 -0.0678  0.1338
29936W        W46010   7.489   5.620   5.956  0.1850  0.2765 -0.0701
29937W        W46011  16.767  10.144   0.824 -0.2380  0.0075 -0.2233
29938W        W46012   6.099   0.892  10.433 -0.0796  0.2263 -0.0926
29939W        W46013   0.450  17.372  10.458 -0.1344  0.0235 -0.1981
29940W        W46014  14.250   9.738   1.666 -0.0797 -0.2839  0.1441
29941W        W46015   0.843   9.706   5.946 -0.0286  0.0061  0.0211
29942W        W46016  13.235  18.026  13.292 -0.0909  0.0889  0.4522
29943W        W46017   1.398   2.699  13.826 -0.1080 -0.2179  0.3421
29944W        W46018  13.465  18.074   3.498 -0.1577  0.0423  0.1334
29945W        W46019   7.108  13.267  15.486  0.1258 -0.0043  0.2714
29946W        W46020  13.024  15.947   0.600 -0.2360 -0.4132  0.3347
29947W        W46021  10.815   5.416  15.871  0.1282 -0.1218 -0.1105
29948W        W46022   4.616  10.654   0.642  0.0139 -0.1648 -0.1002
29949W        W46023  10.305   9.843   0.985 -0.2310 -0.1034  0.2381
29950W        W46024   3.922   3.187  16.012  0.2856  0.0678  0.3393
29951W        W46025  14.231   5.201   4.153  0.2354  0.0574 -0.0058
29952W        W46026   2.831  14.869   4.891 -0.1578  0.2322  0.0727
29953W        W46027   8.428  16.495  10.576  0.3098  0.1230  0.1486
29954W        W46028   6.520   4.482  13.188  0.0705 -0.2408  0.0734
29955W        W46029   2.365   8.340  12.795  0.3772 -0.0284  0.1474
29956W        W46030  16.982  12.386   4.812  0.1419  0.3035 -0.3312
29957W        W46031   6.377   0.462   0.820  0.1866  0.1386  0.1228
29958W        W46032   7.448   0.690  12.990  0.0869 -0.0227 -0.0425
29959W        W46033   9.906   7.138   0.350  0.0270 -0.0791  0.0589
29960W        W46034  15.891  13.178   3.867  0.3424  0.0414  0.0247
29961W        W46035   1.034  14.582   5.050 -0.0348 -0.1934 -0.1924
29962W        W46036  17.385  16.675   1.500 -0.0181 -0.0183  0.2744
29963W        W46037   4.376   8.438   2.601  0.0761 -0.0486  0.1720
29964W        W46038   6.307   5.233   5.440  0.1771 -0.0802 -0.1379
29965W        W46039   5.326   5.528   1.213  0.3494  0.2844 -0.0053
29966W        W46040   4.423   9.472   2.319 -0.1519  0.2365  0.2759
29967W        W46041   7.153   3.092   4.975  0.2128  0.1796 -0.0707
29968W        W46042  16.995  11.261  14.734 -0.0845  0.1418 -0.1154
29969W        W46043  11.209  17.347  14.268 -0.4338  0.0116 -0.0543
29970W        W46044  12.411   4.122  11.626 -0.0246 -0.0376 -0.0104
29971W        W46045   5.941  11.906  14.926 -0.1300 -0.1618  0.1086
29972W        W46046   4.697  11.312  12.492  0.0047  0.0010  0.1438
29973W        W46047   4.745  18.486   2.816  0.0054  0.3735 -0.1065
29974W        W46048   1.905  10.224  12.784 -0.2031  0.0140  0.1386
29975W        W46049   1.934   4.789   0.704 -0.2740  0.2113  0.1297
29976W        W46050  16.468  17.293   0.742  0.4781  0.1002 -0.2190
29977W        W46051   6.560  18.307   4.284  0.2873  0.0568  0.0770
29978W        W46052  12.144  14.285   2.062 -0.0389 -0.2257 -0.1571
29979W        W46053   0.275  14.019   2.381  0.3181  0.0336  0.2942
29980W        W46054   0.149  11.561  15.007  0.0914 -0.1196  0.2119
29981W        W46055   8.405  10.821  14.784 -0.2965 -0.0015 -0.0721
29982W        W46056  15.003  17.038   2.408  0.0741  0.2112  0.2720
29983W        W46057   4.162   6.650   2.156 -0.2624 -0.2066 -0.0492
29984W        W46058   6.431  17.601  14.927  0.0336 -0.3341 -0.3478
29985W        W46059   7.715   9.540   3.748 -0.1549 -0.2373 -0.5239
29986W        W46060  14.731   0.018   2.927 -0.0353 -0.1316  0.0928
29987W        W46061   5.587  10.217   4.449 -0.1052  0.0459 -0.2041
29988W        W46062  14.452   6.398  15.153 -0.1280  0.0369 -0.1581
29989W        W46063  11.112  10.551  15.694  0.1683  0.0110  0.0463
29990W        W46064   7.757   3.040  14.579 -0.1465  0.0757  0.0195
29991W        W46065   9.181   9.606  13.630 -0.0004 -0.0015 -0.3232
29992W        W46066   1.872   0.517  11.723 -0.2436 -0.1686 -0.1393
29993W        W46067   6.830   5.058  11.430 -0.3102 -0.0111  0.1020
29994W        W46068   3.477   3.656  14.788 -0.1131 -0.1931 -0.1083
29995W        W46069   6.216   8.491   3.580 -0.0298 -0.0509  0.3150
29996W        W46070   8.708   0.865   1.205  0.2589 -0.0467  0.0667
29997W        W46071  16.843  17.969   4.972  0.0987 -0.0860 -0.0673
29998W        W46072   3.185  15.007  12.985  0.2857 -0.1054 -0.3069
29999W        W46073   2.776   1.373  12.426 -0.0523  0.1550 -0.2332
30000W        W46074   4.164   9.626  12.838 -0.1926  0.1904  0.3056
30001W        W46075   1.045   8.832  15.321 -0.2329 -0.1911 -0.0265
30002W        W46076  15.888  16.860   0.880  0.0284 -0.1399  0.1223
30003W        W46077  10.790  17.915   2.273 -0.0065  0.2408 -0.0914
30004W        W46078   3.872  18.138   3.734 -0.0932 -0.2569 -0.0862
30005W        W46079   6.427  14.635  11.632 -0.2674 -0.0573  0.0455
30006W        W46080   2.668   0.800   4.443  0.1314  0.0209 -0.2273
30007W        W46081  17.685   0.735   0.052 -0.0877 -0.1285  0.1985
30008W        W46082   0.391   3.755  13.032  0.0632  0.1204  0.0496
30009W        W46083   4.936   2.360  13.070 -0.2080 -0.0315 -0.1126
30010W        W46084   1.894  16.505  12.918 -0.0452 -0.1920 -0.0176
30011W        W46085  17.092  11.251   3.363  0.2435  0.3507  0.4237
30012W        W46086  11.182  16.790   3.080  0.2066 -0.0160  0.1127
30013W        W46087   9.671   0.581   5.537 -0.1561  0.1841  0.1483
30014W        W46088   8.846   9.944   3.248 -0.0817  0.0670 -0.2538
30015W        W46089  12.967  11.441  13.736 -0.0038 -0.3247 -0.0989
30016W        W46090   1.659   2.315  13.993 -0.0923  0.2121  0.2141
30017W        W46091  13.784   3.053   4.238 -0.2297 -0.0831  0.0136
30018W        W46092  16.560   4.945   1.826  0.0302 -0.0994 -0.1418
30019W        W46093   9.239   0.689  13.294  0.0717  0.0812  0.3076
30020W        W46094   0.249  11.455   1.654 -0.0212 -0.0226  0.0422
30021W        W46095  17.721   6.726  11.729 -0.0781 -0.0888 -0.5092
30022W        W46096   3.346   3.316  15.410  0.0057 -0.1879 -0.0521
30023W        W46097  10.975  16.440   4.855 -0.1822 -0.2028 -0.2484
30024W        W46098   0.926   7.798  12.376  0.1135 -0.2844 -0.0981
30025W        W46099   9.007  17.631   4.369  0.1255 -0.1084  0.1178
30026W        W46100  16.271  16.169   2.750 -0.0511  0.0615 -0.0445
30027W        W46101   0.295   1.550  13.555 -0.0397 -0.2732 -0.2092
30028W        W46102  11.583  17.171   3.868 -0.3868  0.4120  0.1528
30029W        W46103  14.756   4.799  15.088  0.3079  0.3257 -0.0657
30030W        W46104  10.616  14.977  12.637 -0.1047 -0.0771 -0.2718
30031W        W46105   2.523   9.890   1.321  0.0866 -0.0008  0.1374
30032W        W46106  11.827  17.451  12.374  0.0316 -0.0751  0.0035
30033W        W46107   8.110   9.404   2.755  0.0285 -0.1029  0.0813
30034W        W46108   1.660   3.573  14.886 -0.2336  0.1229  0.3474
30035W        W46109   4.847  13.554  15.447 -0.1882 -0.1982 -0.1141
30036W        W46110  17.299   3.502   3.772 -0.4684  0.2085 -0.0290
30037W        W46111  11.853   0.125  14.877  0.0094 -0.1096 -0.0476
30038W        W46112   7.152  14.827  15.530 -0.2420 -0.1763  0.0889
30039W        W46113   7.766   4.551   4.754  0.0168  0.1304 -0.2006
30040W        W46114   5.250   9.930   2.651 -0.0418  0.0212  0.0027
30041W        W46115  14.895   9.542  14.462 -0.1115  0.0555 -0.0701
30042W        W46116  12.794   7.725  15.082 -0.2450  0.1660  0.4010
30043W        W46117  15.093   7.848  11.221 -0.1701  0.2169 -0.3620
30044W        W46118  16.361  11.308   5.395  0.0069  0.1065 -0.1665
30045W        W46119  13.683  16.726   2.520  0.0516  0.3078  0.1244
30046W        W46120  10.018  12.681   5.371 -0.2125 -0.3010 -0.1018
30047W        W46121  14.181   4.361   2.707  0.2009 -0.0159  0.3036
30048W        W46122  10.608  14.197   0.841 -0.0850 -0.1489  0.0527
30049W        W46123   3.122  14.797   0.607  0.2874 -0.1730  0.1371
30050W        W46124  10.333   8.370   3.023 -0.0873 -0.2365 -0.2547
30051W        W46125   2.185   5.454   3.906 -0.3006  0.0319  0.3956
30052W        W46126  14.609   1.431   1.964  0.0254 -0.3000 -0.0084
30053W        W46127   7.179  15.583   3.902 -0.1949  0.0398  0.2530
30054W        W46128  10.428  16.195   1.414  0.2257 -0.2847 -0.2210
30055W        W46129   9.760   1.535   3.462  0.0243 -0.0409  0.0369
30056W        W46130  10.692  12.486   1.257 -0.1706 -0.4174  0.1547
30057W        W46131   5.905   2.983  13.406  0.1522  0.0965 -0.2827
30058W        W46132  14.020   6.145   3.277  0.2603  0.4783 -0.0287
30059W        W46133   7.672  15.704  14.678  0.0429 -0.0561  0.2218
30060W        W46134  16.128  17.689   5.263 -0.1285  0.1352 -0.1318
30061W        W46135   6.492  17.692   1.287 -0.0097  0.1275 -0.0898
30062W        W46136   9.533   2.862   1.732 -0.0996  0.0692  0.0979
30063W        W46137   0.306  18.453  14.660 -0.0845 -0.0023 -0.0612
30064W        W46138   8.767  18.514  13.940  0.0144 -0.3309 -0.0892
30065W        W46139  13.969   1.044  11.869  0.3628 -0.5130 -0.0115
30066W        W46140  18.393   2.682  15.632  0.2420 -0.0738 -0.0328
30067W        W46141  14.313   7.520   0.169 -0.1411  0.2931 -0.0059
30068W        W46142  10.286  16.819   3.438  0.0594 -0.0526 -0.0386
30069W        W46143   6.097  14.543   3.767 -0.0392 -0.0672 -0.0789
30070W        W46144  11.111   8.469  12.666  0.0143  0.1461 -0.1873
30071W        W46145   6.341  14.305   2.003 -0.2109  0.1266 -0.2633
30072W        W46146  17.705   0.808   9.966 -0.3112 -0.0091 -0.1247
30073W        W46147  16.955   7.586  14.905 -0.2615  0.1485  0.2326
30074W        W46148   3.162  10.015  15.741 -0.1500 -0.1522 -0.1563
30075W        W46149  16.182  17.510  10.918 -0.1803 -0.1842 -0.1674
30076W        W46150   3.471   4.697  14.201 -0.0190  0.1899  0.2192
30077W        W46151   3.401  15.598   5.265 -0.2927  0.0411  0.2707
30078W        W46152   5.832   1.996  11.918  0.1565 -0.1222 -0.3511
30079W        W46153   4.918   1.446   2.082  0.1543 -0.1870 -0.0752
30080W        W46154   2.658   4.273   0.811  0.2229  0.1056 -0.1627
30081W        W46155   2.181   5.097  11.675 -0.1742 -0.1151  0.1721
30082W        W46156   2.043   5.287   5.673 -0.0573 -0.0929  0.3003
30083W        W46157  12.324  17.627  11.599 -0.0866 -0.1098  0.0523
30084W        W46158  15.797  11.283  12.096 -0.1064  0.0145  0.0220
30085W        W46159   3.578   1.963   1.004 -0.4734 -0.0886 -0.1594
30086W        W46160  18.273   9.140  12.448  0.2653  0.1624 -0.1585
30087W        W46161   3.038  16.154   3.232 -0.0426 -0.2073 -0.0924
30088W        W46162   0.886  10.580  13.720  0.0191  0.1814  0.2803
30089W        W46163   4.859   6.629   1.862 -0.1630  0.0640 -0.0972
30090W        W46164   5.624   8.485  15.814  0.2057  0.1824  0.3114
30091W        W46165   5.144   2.981  15.377  0.1584 -0.2158  0.0399
30092W        W46166  10.653  10.785   5.569  0.2099 -0.0530  0.2132
30093W        W46167   9.090  13.056  12.159  0.0581 -0.2251  0.0977
30094W        W46168   9.658  15.908   2.521 -0.1704  0.0260 -0.2696
30095W        W46169   4.024   5.464   5.402 -0.1739  0.0924 -0.0201
30096W        W46170   3.426   7.069   2.260  0.0284 -0.3853  0.1812
30097W        W46171  11.147   0.176   4.455  0.4050 -0.1249  0.0142
30098W        W46172   2.724   0.053  12.600 -0.3198  0.0606 -0.1443
30099W        W46173   1.236   8.215   5.272  0.0250  0.1061  0.0005
30100W        W46174  16.669   7.489   3.570  0.1047 -0.0026  0.2267
30101W        W46175   1.869  15.386   5.734  0.1603  0.0382  0.2297
30102W        W46176  10.164  12.608   3.842 -0.2357  0.0229  0.2506
30103W        W46177  14.926   9.539   2.528  0.1437 -0.2522  0.3064
30104W        W46178  15.030   7.200  15.134  0.1060  0.1404 -0.0396
30105W        W46179   7.644   2.918   4.050  0.0118  0.3540 -0.2868
30106W        W46180   0.133  10.185   4.725 -0.0691 -0.3689  0.1746
30107W        W46181   7.008   0.339   3.656  0.0111 -0.0000 -0.0523
30108W        W46182   2.052  16.001  13.207  0.0602  0.1785 -0.0997
30109W        W46183  17.572  11.981   5.507 -0.0129 -0.0005  0.3265
30110W        W46184  15.221  14.935  11.895 -0.1170  0.0383 -0.1327
30111W        W46185   4.129   1.781  15.084 -0.3972  0.2290  0.1050
30112W        W46186  14.922  14.787  14.440 -0.0310 -0.3007  0.1165
30113W        W46187  14.262  18.491   4.651  0.0521 -0.1804  0.0284
30114W        W46188   5.554  10.647   1.542 -0.0958 -0.1251  0.1978
30115W        W46189  16.630   0.314   2.438 -0.1819  0.1559 -0.1241
30116W        W46190  13.106  16.653   3.223  0.1410 -0.4198  0.0164
30117W        W46191  13.065   9.728   3.271 -0.0136 -0.1194 -0.1958
30118W        W46192   2.304  17.087  15.429  0.0675 -0.0387 -0.3085
30119W        W46193  13.314  16.428   2.286 -0.0088  0.2537 -0.3224
30120W        W46194  13.049   1.267   0.059 -0.2675 -0.3112  0.3238
30121W        W46195  15.084  12.917   5.407  0.1304 -0.0430 -0.3351
30122W        W46196  13.187  13.143  14.342 -0.3566  0.1270  0.0005
30123W        W46197  12.647  18.393   3.556  0.1437  0.5012  0.1326
30124W        W46198   6.232  11.165  12.655  0.1763  0.3847  0.0967
30125W        W46199   5.944   1.107   0.197  0.2830  0.0213  0.2251
30126W        W46200  15.371   6.669   0.131 -0.0146  0.1144  0.4717
30127W        W46201   0.641  16.147  15.403  0.0033  0.2481 -0.0253
30128W        W46202   2.987   1.835   2.688  0.1498  0.1341 -0.1231
30129W        W46203   4.816   7.855   4.350 -0.1722  0.1120  0.4339
30130W        W46204  15.483   7.888   3.199 -0.2383  0.0103 -0.2362
30131W        W46205  15.175   0.846  10.775  0.1652 -0.2676  0.0205
30132W        W46206  14.441   1.762   0.473  0.1122  0.0539 -0.0530
30133W        W46207  18.057  10.326  13.331  0.0812  0.1443  0.0078
30134W        W46208   1.868  17.269   3.780 -0.2851  0.3758  0.0570
30135W        W46209   1.964  12.162  13.921 -0.2067 -0.2525 -0.0116
30136W        W46210  12.973   8.901  12.052  0.0155  0.1317 -0.0747
30137W        W46211   7.194   4.393  13.575  0.0835  0.0416  0.0291
30138W        W46212  15.949  11.020  10.044  0.1677 -0.1452  0.0065
30139W        W46213   3.713   2.495   4.234  0.0579 -0.3101 -0.1889
30140W        W46214   4.866   2.188  15.455  0.2362  0.1407 -0.0202
30141W        W46215  17.510   5.037   0.966 -0.2083 -0.0706 -0.3208
30142W        W46216   9.578   0.058   2.323  0.0041 -0.1225 -0.0196
30143W        W46217   1.942  12.318   1.365 -0.2263  0.1614  0.0316
30144W        W46218   2.529  12.957   4.885  0.0105  0.1857 -0.2233
30145W        W46219   3.024  15.832   1.292 -0.3002 -0.0289  0.2478
30146W        W46220  15.530  13.806  13.788  0.0366 -0.3612  0.2714
30147W        W46221  15.672  12.675   1.786  0.2701  0.0972 -0.0371
30148W        W46222   2.392   8.398  15.847  0.0930 -0.0872 -0.2228
30149W        W46223   3.097  11.449   0.895  0.3960 -0.0246  0.2997
30150W        W46224  15.189  17.173   1.357 -0.0134  0.0334 -0.2349
30151W        W46225   2.153  14.556  13.803  0.4734 -0.0401  0.0705
30152W        W46226  15.856   2.914  12.589 -0.4711 -0.0140 -0.2291
30153W        W46227   7.346  10.946   0.902 -0.2992 -0.0664 -0.3076
30154W        W46228  14.631  15.244   4.023 -0.2318 -0.0119  0.0772
30155W        W46229   8.799   5.044  11.325  0.2669  0.2043 -0.0677
30156W        W46230   4.515   8.756   0.932 -0.2203 -0.2810 -0.1622
30157W        W46231   2.248  16.675   5.142 -0.0043 -0.2105  0.0446
30158W        W46232   1.870   1.153   5.706 -0.1614  0.0636  0.1132
30159W        W46233   0.336  12.601  15.823  0.2220 -0.2106  0.4437
30160W        W46234   1.343   6.623   2.670 -0.3313  0.3440 -0.1139
30161W        W46235   5.993  14.206   0.013 -0.0594 -0.3422  0.3974
30162W        W46236  18.084  12.743   5.828 -0.2329  0.1585  0.3759
30163W        W46237  13.050  18.420   2.113 -0.0848  0.1635 -0.2088
30164W        W46238   6.514   7.119   4.785 -0.2151 -0.2440 -0.2330
30165W        W46239   2.005  12.592  14.199 -0.0953 -0.0386  0.0084
30166W        W46240   9.479  10.951   5.374  0.2889  0.1389  0.0477
30167W        W46241   4.814   3.064   3.444  0.0099 -0.1398 -0.0559
30168W        W46242   4.511  11.205   2.195 -0.0633  0.0220  0.0643
30169W        W46243   7.738  13.151  12.739 -0.1698 -0.0184  0.2933
30170W        W46244   3.645   1.517   2.664  0.2291  0.0022 -0.1085
30171W        W46245   7.771   7.565   0.305  0.0920 -0.0449  0.2724
30172W        W46246   7.021   6.680   4.307 -0.1648 -0.3267 -0.1969
30173W        W46247   5.807   9.381  11.436 -0.0395 -0.2273  0.1915
30174W        W46248   7.426   5.500   4.897 -0.0185 -0.0124 -0.3711
30175W        W46249  14.346   9.883  11.171 -0.0925  0.1062  0.0639
30176W        W46250   2.604   6.592   0.232  0.1062 -0.2774 -0.2719
30177W        W46251   6.493   8.132   4.372 -0.0577 -0.0118  0.2183
30178W        W46252  14.733  11.048  14.498 -0.2126 -0.1096  0.2568
30179W        W46253  10.893  14.593  14.632 -0.0870  0.2559  0.0439
30180W        W46254  11.456   8.391  15.658  0.4065  0.1765 -0.1352
30181W        W46255   4.763   7.195  15.799  0.2103  0.0583  0.0138
30182W        W46256  15.004   7.015  14.646 -0.0526  0.1997  0.0126
30183W        W46257   0.937  14.256  15.285 -0.0414  0.0450 -0.1209
30184W        W46258   0.444  12.877  13.336  0.0225 -0.1482  0.0876
30185W        W46259  16.260   4.138  11.636  0.4326 -0.1915 -0.1523
30186W        W46260   2.508   8.703   5.411 -0.2461 -0.3067  0.3335
30187W        W46261   4.284  18.495   3.019 -0.0196 -0.0251  0.0059
30188W        W46262   5.917   3.310   0.657  0.1624 -0.0875 -0.0107
30189W        W46263  16.318  15.409  10.679  0.1180 -0.0142  0.1192
30190W        W46264   5.587   8.111   1.925 -0.2241  0.0658 -0.0448
30191W        W46265   2.800   6.482  12.044 -0.0658  0.1941 -0.0883
30192W        W46266  13.936  12.417   5.849  0.3419 -0.2463  0.0496
30193W        W46267   5.271  14.523   1.613 -0.0774 -0.2810 -0.3660
30194W        W46268  15.385   3.760   1.963  0.0667 -0.2693  0.1088
30195W        W46269   0.848  11.859   0.272  0.1048 -0.0159 -0.1610
30196W        W46270   6.150  14.013  15.249 -0.1966 -0.1004 -0.2262
30197W        W46271  18.523   6.523   1.985  0.1817 -0.2418 -0.0003
30198W        W46272   7.857   0.056   4.909 -0.1914  0.1809 -0.0754
30199W        W46273   5.608   1.651   2.709  0.1209  0.1501 -0.5978
30200W        W46274  18.453   9.236  15.440  0.2823 -0.4860 -0.1870
30201W        W46275  11.975  11.643  15.956 -0.1364  0.0430 -0.1870
30202W        W46276   6.949   9.362   1.885 -0.1645  0.2612  0.0728
30203W        W46277   6.505  13.927  12.196  0.0131 -0.1891 -0.2224
30204W        W46278   9.670  11.438  14.375  0.0971 -0.0916 -0.1569
30205W        W46279  17.417   7.345   1.503  0.0458  0.4193  0.0982
30206W        W46280  10.985  18.005  11.418  0.1031 -0.1540 -0.0249
30207W        W46281   4.610   2.131   2.804  0.0638 -0.0296 -0.0567
30208W        W46282  12.707   1.531   4.310 -0.2028 -0.2512 -0.0887
30209W        W46283   0.388   7.310  13.984  0.2894  0.1248  0.0648
30210W        W46284   2.663   1.134   5.133  0.2530 -0.2294 -0.0094
30211W        W46285  18.243  14.259  13.110 -0.2711 -0.1588  0.0460
30212W        W46286  11.224   5.389   5.681  0.1893 -0.0167  0.1764
30213W        W46287  17.844  18.174  12.370  0.0810 -0.1232 -0.1046
30214W        W46288   9.331   9.602   4.550  0.0294  0.2109 -0.0258
30215W        W46289  11.087   6.639   0.285 -0.2296 -0.0744 -0.0080
30216W        W46290   2.495   7.259  12.839  0.0990  0.0336  0.1071
30217W        W46291   1.754   5.122   1.241 -0.4050 -0.1185  0.2818
30218W        W46292   3.556   8.046   4.369 -0.1642 -0.2191  0.1029
30219W        W46293   8.554   2.861   3.880 -0.1218  0.2579 -0.2274
30220W        W46294   3.300   0.528  13.099  0.1934  0.3251  0.1668
30221W        W46295  14.275  12.838   4.170  0.2020  0.1825 -0.3036
30222W        W46296   6.087   5.116  14.096 -0.0543 -0.0642  0.2511
30223W        W46297   1.732  10.419   1.462  0.1157  0.2092 -0.4477
30224W        W46298   1.297   4.961  11.472  0.2473  0.5205 -0.3722
30225W        W46299   8.994   2.356   2.896 -0.3155 -0.0072 -0.3073
30226W        W46300  10.672   7.191   4.512  0.0989 -0.0981  0.2126
30227W        W46301   3.973  11.885  14.052  0.0831 -0.0460 -0.1501
30228W        W46302   0.517   4.781  14.874  0.3976  0.1379 -0.3891
30229W        W46303   0.356  16.718   4.487 -0.0515 -0.0723  0.0111
30230W        W46304   3.535  14.621   2.937 -0.2625  0.1044 -0.1501
30231W        W46305  17.966   4.220  13.010  0.0798  0.1379  0.2799
30232W        W46306   7.270   1.014  10.924  0.1755  0.0048  0.2346
30233W        W46307   1.213  15.470  11.841 -0.1292 -0.1978 -0.0329
30234W        W46308  14.647  10.139   5.605  0.0770 -0.0365  0.1119
30235W        W46309  10.693  16.441   5.834  0.0843  0.3927  0.2681
30236W        W46310   8.927   4.157  15.980  0.0822 -0.0460 -0.0757
30237W        W46311   2.872  11.930  15.725  0.1722 -0.0012 -0.1208
30238W        W46312  11.690  10.728   0.538  0.0176  0.1165  0.0385
30239W        W46313   8.701   2.028   0.666 -0.0136  0.2188  0.0108
30240W        W46314   4.400  11.867  13.387  0.1017 -0.3625 -0.1517
30241W        W46315   2.486   0.351   3.581 -0.2391  0.1179  0.0509
30242W        W46316   7.758  18.169   1.786 -0.0125  0.0518  0.1315
30243W        W46317  18.565   8.930  14.461  0.2475 -0.3287 -0.0197
30244W        W46318  10.909   7.129   2.267  0.0048  0.2641  0.0984
30245W        W46319  14.567  13.112  15.524 -0.0788 -0.1071  0.0085
30246W        W46320  11.989   3.054   4.607 -0.2459 -0.2329  0.2266
30247W        W46321   5.893   2.617   3.602 -0.0857  0.0087  0.0872
30248W        W46322   3.707   9.089   2.629 -0.1236 -0.1326 -0.0421
30249W        W46323   5.212   0.676  14.576 -0.0697  0.0825  0.1024
30250W        W46324  10.887   1.160   0.617  0.1015 -0.0190  0.0851
30251W        W46325   9.409   7.957  11.383 -0.4127  0.0271  0.2078
30252W        W46326   4.617   2.342   1.138 -0.2113 -0.1444 -0.0761
30253W        W46327  18.204  15.671  15.914  0.1390  0.0165  0.3293
30254W        W46328  10.131  13.801   0.816 -0.1500 -0.1589 -0.2296
30255W        W46329  13.768  13.285  13.065  0.2844  0.1914  0.0040
30256W        W46330   6.858  16.061  15.292  0.1213  0.0617  0.1206
30257W        W46331   0.527  17.480  10.929  0.2236  0.4247  0.0346
30258W        W46332  16.403   4.368   4.579 -0.0794  0.0634 -0.2104
30259W        W46333  12.462   8.016   3.707  0.2550 -0.1667  0.1753
30260W        W46334  11.132   5.036   3.477  0.0227  0.1492 -0.2407
30261W        W46335   4.242  15.978   0.178 -0.0066  0.1829  0.0579
30262W        W46336  16.600   9.709   1.406 -0.0703  0.2914  0.1013
30263W        W46337  16.653  16.191   5.253  0.1984  0.3711 -0.1849
30264W        W46338   6.089  15.488   1.598  0.0452 -0.0851  0.2406
30265W        W46339   6.219   4.718   1.547  0.2898  0.3461 -0.3156
30266W        W46340  17.919   7.659  11.581 -0.0781  0.0049  0.1209
30267W        W46341  13.530   9.715   0.343 -0.4633 -0.2321 -0.0641
30268W        W46342   1.444  17.913   5.667  0.2248 -0.4246  0.0648
30269W        W46343  11.756   3.606   4.142 -0.0989 -0.0875 -0.0555
30270W        W46344  14.968  10.229   1.889  0.0911  0.2289 -0.2258
30271W        W46345   3.181  10.091   5.582 -0.3425  0.0033 -0.1903
30272W        W46346   6.748  17.252   3.501 -0.0575  0.0076 -0.3175
30273W        W46347  18.151   3.244   1.180 -0.2845  0.1553  0.1854
30274W        W46348  13.764  12.890  12.093  0.0787 -0.0950  0.1035
30275W        W46349   2.738   3.724   4.857 -0.0450  0.0281  0.0058
30276W        W46350   9.914  11.360   0.499  0.0399  0.1471  0.0148
30277W        W46351  10.055   1.162  14.102 -0.1668 -0.0249 -0.3727
30278W        W46352  10.462   2.551  14.582  0.0425  0.4708 -0.2749
30279W        W46353  10.244  12.057   0.412 -0.1771 -0.1973  0.0955
30280W        W46354  14.909  15.760  12.996  0.1924 -0.1088 -0.3556
30281W        W46355  11.524  11.540  15.437  0.2124 -0.0220 -0.3281
30282W        W46356   2.095   7.769  11.478  0.1073 -0.0163 -0.2864
30283W        W46357  12.160   5.778  11.208  0.3237  0.1836  0.0571
30284W        W46358  18.559  17.429  10.610  0.2662  0.3705 -0.1037
30285W        W46359  15.486  15.717   3.048 -0.0316 -0.1659 -0.0207
30286W        W46360   1.477  14.655   3.625 -0.3012  0.0625  0.0313
30287W        W46361  11.889   4.904  12.396 -0.2075 -0.0461 -0.2151
30288W        W46362   9.242  14.505  14.751  0.2067 -0.0040 -0.3218
30289W        W46363   1.917  14.615  12.848 -0.3911 -0.1606 -0.1609
30290W        W46364   0.902   3.167   3.137  0.0748  0.1070 -0.1421
30291W        W46365  10.419  12.099  15.245  0.1702  0.3173 -0.0209
30292W        W46366  10.725   7.649   3.545  0.3207 -0.0569 -0.0198
30293W        W46367   0.925  18.419   5.120  0.1540 -0.0063  0.1650
30294W        W46368   5.994  18.103   1.839 -0.0083  0.1048 -0.0586
30295W        W46369   7.377   9.960  12.510  0.2942 -0.0585  0.1269
30296W        W46370   7.487  13.767   0.906  0.1510  0.1261 -0.2029
30297W        W46371   4.118   3.477   0.940  0.0848 -0.0376  0.1487
30298W        W46372   7.358   8.925  14.219  0.2539 -0.1296 -0.4100
30299W        W46373   1.161   6.246  13.085 -0.1707  0.0457  0.2869
30300W        W46374  17.133  13.940  11.269  0.0012  0.0712  0.2056
30301W        W46375   0.269   7.341  14.566 -0.0983  0.3364 -0.1127
30302W        W46376   8.026   9.276  13.028  0.1840 -0.1836  0.2789
30303W        W46377   2.502   4.585  14.246 -0.1065  0.3921 -0.2359
30304W        W46378   5.304  14.046  14.994 -0.1792  0.0098  0.1695
30305W        W46379  17.942  16.690   1.430  0.1851 -0.2133 -0.1661
30306W        W46380   2.475  17.610  14.589  0.1540  0.1844 -0.1068
30307W        W46381   1.293  14.048   4.239 -0.2037  0.1425 -0.1936
30308W        W46382  16.252  16.980   4.450 -0.1706  0.2539 -0.0000
30309W        W46383  13.738   7.267  10.747 -0.1954 -0.0181 -0.0433
30310W        W46384  14.514  11.550  15.420  0.1746 -0.3364 -0.3894
30311W        W46385   3.187   3.555  13.827  0.2844  0.2817  0.2261
30312W        W46386  15.091   4.355   3.328  0.0116  0.0323  0.0481
30313W        W46387   1.751   5.806  11.546  0.0116 -0.2344  0.0799
30314W        W46388   8.225  17.281   4.565 -0.4732  0.0311 -0.0888
30315W        W46389   7.655   8.084   4.132 -0.0019 -0.1024  0.0944
30316W        W46390   6.381  16.104  13.407 -0.3097  0.2918 -0.0084
30317W        W46391   7.336   1.661   5.316  0.0517  0.1755  0.0187
30318W        W46392  12.803   7.231   4.255  0.0675 -0.0739 -0.2052
30319W        W46393   4.315  17.804  13.174  0.0502  0.1245  0.3686
30320W        W46394   6.464   1.385  11.464  0.5944 -0.2189  0.2105
30321W        W46395   5.770   4.620  14.308 -0.0196  0.1342  0.1606
30322W        W46396   4.198   0.010   5.138 -0.1045 -0.1256 -0.2270
30323W        W46397   1.271   6.811  14.763  0.4284 -0.0074  0.0933
30324W        W46398  13.679   0.203  12.137  0.1184 -0.0590 -0.0199
30325W        W46399  17.504   2.519  14.438 -0.1054 -0.0347  0.1279
30326W        W46400   1.934   8.955  13.943  0.0658  0.1013 -0.0332
30327W        W46401   5.128  11.750  14.846  0.2840  0.1566  0.0279
30328W        W46402  16.524   1.781  10.857  0.1029  0.0637 -0.4095
30329W        W46403   1.386  13.910  12.733 -0.1619 -0.2126 -0.1648
30330W        W46404   3.070   4.843   1.871  0.2121  0.1726  0.1955
30331W        W46405   3.749   5.067   3.007 -0.1996  0.4443 -0.3433
30332W        W46406   6.656  10.919  13.376 -0.1283 -0.2428  0.0703
30333W        W46407   7.313   2.212   0.498  0.0366  0.0001 -0.1521
30334W        W46408   0.445   8.124   5.828  0.2116  0.2223 -0.3457
30335W        W46409   4.277  10.894   1.313  0.1031  0.3169 -0.1125
30336W        W46410  18.272   8.485   4.906  0.0556 -0.2413 -0.2414
30337W        W46411  13.786   4.084   5.171  0.2196 -0.2816 -0.0171
30338W        W46412  14.389   2.383   0.493 -0.2968 -0.2234  0.0056
30339W        W46413   6.332   7.303  15.846 -0.1206  0.1491 -0.2061
30340W        W46414  18.081   5.223  13.095 -0.1141  0.0526 -0.0099
30341W        W46415   5.859   7.370  14.146 -0.0827 -0.1808 -0.1594
30342W        W46416   8.793  15.384  12.138  0.2855 -0.2826  0.2497
30343W        W46417   7.055  11.829   2.001 -0.1108  0.0425 -0.0658
30344W        W46418  18.113   3.656   0.881  0.1342 -0.0122  0.2890
30345W        W46419   0.585   1.895  12.908 -0.1976  0.2734 -0.0166
30346W        W46420  12.211  13.714   1.006  0.1494 -0.0305 -0.0371
30347W        W46421  16.330  11.389  13.428  0.1760 -0.0448 -0.1446
30348W        W46422  18.338   5.637   0.124  0.0807 -0.3324 -0.0935
30349W        W46423  18.025  16.747  11.049  0.0786  0.0192 -0.1593
30350W        W46424   3.412  10.770   1.426  0.0862 -0.1557 -0.1033
30351W        W46425   3.897   4.316   5.545  0.1138 -0.0212  0.2564
30352W        W46426   8.396   5.597  13.705  0.3045 -0.2359  0.0507
30353W        W46427   8.994   9.925   2.804 -0.1225  0.1244 -0.0980
30354W        W46428   7.499  16.571  10.909  0.0184 -0.0461  0.0616
30355W        W46429  10.542   5.355   0.404  0.2167 -0.2192 -0.2048
30356W        W46430   9.883  17.187  13.248  0.0705  0.2194  0.2739
30357W        W46431   2.090  18.268   4.058 -0.2141 -0.5952 -0.0011
30358W        W46432   5.695  16.226   1.921 -0.0172  0.2798  0.1764
30359W        W46433  14.216  16.125   5.317  0.0110  0.1045 -0.0306
30360W        W46434  16.376   3.954  14.569  0.4352  0.0575  0.0223
30361W        W46435   2.504  11.956   4.347 -0.0875 -0.1981  0.2076
30362W        W46436   5.123   3.297  13.047  0.1093  0.1085 -0.0056
30363W        W46437  14.879   5.870   3.902 -0.3554  0.1178 -0.0802
30364W        W46438  14.593   1.459  15.735  0.3637  0.4068 -0.0786
30365W        W46439  14.905  11.593   4.120  0.3051 -0.3003 -0.1138
30366W        W46440  18.514   0.366   2.075 -0.0812  0.0793  0.1133
30367W        W46441   0.970  14.644  11.093 -0.2033  0.0657 -0.0990
30368W        W46442   6.976   7.789  14.936  0.2377 -0.0416  0.3081
30369W        W46443  17.066   4.126  14.563 -0.0844  0.3379  0.1561
30370W        W46444  14.540  12.580   4.546  0.1668 -0.2908 -0.0750
30371W        W46445  18.331   7.675  14.388  0.1839 -0.0651  0.2718
30372W        W46446  17.010   3.931   4.748  0.1073 -0.1052 -0.0287
30373W        W46447   5.623   5.962   1.184 -0.2273  0.3971 -0.4380
30374W        W46448  17.250   3.649  12.401 -0.3812  0.2116  0.1255
30375W        W46449  12.904   7.264   1.494  0.0009 -0.0774 -0.3205
30376W        W46450  17.508   0.333   3.561  0.0136 -0.2564 -0.0152
30377W        W46451   9.842  11.623  11.803 -0.1328 -0.4392  0.0118
30378W        W46452   6.819   2.161  10.790  0.0428  0.2112  0.6735
30379W        W46453   8.774   6.765   2.404 -0.0643 -0.0345 -0.0741
30380W        W46454  14.746  15.425   1.109  0.1381  0.0469  0.1776
30381W        W46455   1.980  11.543  12.706 -0.4176 -0.2290  0.6405
30382W        W46456   0.375  15.828   2.291 -0.1973  0.0393 -0.0612
30383W        W46457  13.652  16.673   3.520 -0.1178  0.0699  0.0996
30384W        W46458  12.460   7.946  12.983  0.0512 -0.2641  0.2705
30385W        W46459  17.930   6.012   1.509 -0.0061  0.0834  0.0373
30386W        W46460   3.679  12.920   5.701 -0.0648 -0.2167  0.2396
30387W        W46461  13.451   5.006   0.041  0.2043  0.3196 -0.1771
30388W        W46462   1.514   1.482   1.721 -0.0284  0.2769  0.3655
30389W        W46463  10.217  15.079  15.757 -0.0641 -0.3069 -0.1059
30390W        W46464   5.488  18.345   3.353  0.0306 -0.0173  0.1217
30391W        W46465  14.669   3.841   1.765 -0.0189  0.0960 -0.1058
30392W        W46466  12.580   5.701  13.327  0.2864 -0.0268 -0.2074
30393W        W46467  12.142   3.247   3.018  0.1177 -0.0560  0.2678
30394W        W46468  10.794   4.377  12.529  0.3095  0.2771  0.3072
30395W        W46469   4.240   4.915   5.040  0.3761  0.1178  0.2250
30396W        W46470   4.049   4.833   1.072 -0.1851  0.0870  0.0693
30397W        W46471  16.400  17.774  13.330  0.1951 -0.1441  0.0495
30398W        W46472  13.508   2.334   4.906  0.6514 -0.0529 -0.1207
30399W        W46473   8.365  15.713  15.296 -0.0364 -0.1508  0.0283
30400W        W46474   2.786   5.965   1.795  0.0871  0.0498 -0.1375
30401W        W46475   9.871   0.687   3.834 -0.4384  0.3341 -0.0470
30402W        W46476   9.687   8.214  13.394 -0.1540 -0.5027  0.0717
30403W        W46477  12.563   7.080   1.120  0.2552 -0.0733 -0.1712
30404W        W46478  13.070   1.131   4.338  0.1347 -0.1293 -0.0391
30405W        W46479  13.867   0.518  13.136  0.0162 -0.1042 -0.1818
30406W        W46480  10.970   3.200   5.604  0.1180 -0.1875  0.1671
30407W        W46481   7.897  10.758   3.195  0.2248  0.3566 -0.2361
30408W        W46482  10.539   9.952  11.733 -0.4040 -0.2003  0.0421
30409W        W46483  10.010   7.731   4.302  0.0316 -0.0587  0.2076
30410W        W46484   3.641  14.334   1.259 -0.0933  0.0848  0.0082
30411W        W46485   3.591  14.982   4.871 -0.0130  0.2868 -0.0265
30412W        W46486   7.317  16.601   0.608 -0.0667  0.0171 -0.2739
30413W        W46487   8.750  10.110  14.222  0.3499 -0.1013 -0.1064
30414W        W46488   5.927  16.451  15.617 -0.2042  0.0372 -0.0329
30415W        W46489  11.015   9.444  14.271 -0.0024 -0.4864 -0.0634
30416W        W46490  11.966  14.570   5.182  0.1805 -0.1605 -0.1270
30417W        W46491  14.667  16.051   3.821  0.0261 -0.0624  0.2899
30418W        W46492  18.391  11.299   2.943 -0.4639 -0.0502  0.0181
30419W        W46493  16.379   9.412   4.436  0.0317  0.1939 -0.1984
30420W        W46494  15.523  14.213  11.839 -0.2564  0.2803 -0.0412
30421W        W46495   1.147  18.426   0.253  0.3035  0.0287 -0.2675
30422W        W46496   2.423  11.624   1.673  0.1286 -0.0278 -0.3760
30423W        W46497   0.571   0.964  15.826 -0.0171  0.0006 -0.3737
30424W        W46498   5.518  12.027  15.177  0.2277  0.0010 -0.2086
30425W        W46499   2.101  10.721   1.700  0.0992 -0.0782 -0.1738
30426W        W46500   9.006  14.160   2.826 -0.0210  0.2081  0.1503
30427W        W46501   3.074   1.199   4.575  0.3941 -0.2158  0.1002
30428W        W46502   7.600   3.922   3.347 -0.0707 -0.1268  0.0971
30429W        W46503  15.469  16.019   4.050  0.1336 -0.1551  0.0645
30430W        W46504   3.787   6.886  14.398 -0.3231  0.1562 -0.0984
30431W        W46505   9.131   8.681  15.347 -0.1325  0.3162  0.0259
30432W        W46506  15.882   2.363   3.518  0.1871 -0.0719 -0.2332
30433W        W46507   4.838   3.532  14.811 -0.3626 -0.4474  0.3542
30434W        W46508   7.841   6.293   4.777  0.0625  0.0565  0.2050
30435W        W46509  15.868   5.734   3.851 -0.0873 -0.1254  0.0364
30436W        W46510   7.562  14.755  14.915 -0.0709 -0.0620  0.2521
30437W        W46511   6.479   8.986   3.017 -0.3245  0.0221 -0.0454
30438W        W46512   3.364   3.683  11.946 -0.1289 -0.1093  0.0102
30439W        W46513   8.388  17.434   5.063  0.2203 -0.1154  0.2353
30440W        W46514  11.314  10.373  15.237 -0.0042 -0.0661 -0.0698
30441W        W46515  13.270  15.967   5.712  0.1035  0.4409 -0.0786
30442W        W46516   4.645   1.981   0.013  0.0625 -0.2344 -0.3824
30443W        W46517   2.396   9.170   3.887  0.1365  0.0194  0.1831
30444W        W46518   2.891   5.024   6.033  0.0403  0.2945  0.1561
30445W        W46519  14.479   7.847  12.182  0.2251 -0.0276  0.0843
30446W        W46520   0.975   0.746   3.929 -0.0759 -0.0443 -0.2562
30447W        W46521  13.026  10.274  13.794 -0.1977 -0.2929 -0.0372
30448W        W46522   3.073   2.314  12.863 -0.1404 -0.1574 -0.0845
30449W        W46523  18.289   0.939  13.380 -0.1507 -0.1774 -0.0659
30450W        W46524   6.847   6.400   5.221 -0.0340  0.1621  0.5772
30451W        W46525   7.042   4.889   4.117  0.0825  0.2186 -0.5246
30452W        W46526   3.937   1.007  14.548 -0.2131 -0.1109  0.3844
30453W        W46527   3.007   6.315  11.422 -0.0926  0.2531 -0.1308
30454W        W46528  10.494  15.866  14.441  0.0147 -0.3130  0.3370
30455W        W46529   6.233   9.470   4.803 -0.2337  0.0935  0.1691
30456W        W46530  13.172  16.920   4.352  0.4156  0.4507 -0.2212
30457W        W46531  13.181  16.561  14.617 -0.0719  0.1691 -0.0469
30458W        W46532  14.690  18.148   4.917  0.0301  0.0373 -0.2615
30459W        W46533  10.016  12.908  12.155  0.2077  0.0165  0.1610
30460W        W46534   3.724   0.802   1.143 -0.1814  0.0244 -0.0760
30461W        W46535  16.022  16.193   2.313  0.1514 -0.0494 -0.0802
30462W        W46536   8.725  10.373   0.189 -0.0337  0.0411  0.1174
30463W        W46537   2.398   0.659  15.259 -0.3548 -0.0524  0.0071
30464W        W46538  14.226   5.351   5.088  0.1517 -0.3020  0.3628
30465W        W46539   0.488  10.219   4.278  0.1391 -0.1654 -0.0844
30466W        W46540   1.892  11.372   1.607  0.1544 -0.1011 -0.4765
30467W        W46541  12.935  15.955   2.184 -0.3476  0.2438  0.1598
30468W        W46542   0.367   8.392  13.757  0.0965 -0.3037  0.2145
30469W        W46543  12.133   1.210   0.300  0.0622 -0.1259 -0.1923
30470W        W46544  10.653  13.923  12.901  0.0545 -0.0288  0.1268
30471W        W46545  14.533   0.518   1.822 -0.0275  0.2591 -0.1643
30472W        W46546  16.501  17.932  11.650 -0.0810 -0.0248 -0.0671
30473W        W46547   8.893  10.450   2.886  0.1853  0.1873 -0.3468
30474W        W46548   8.696   8.450  15.225 -0.2064 -0.2059 -0.1472
30475W        W46549   3.721   4.298  14.041 -0.2031  0.0067 -0.1144
30476W        W46550   5.790   3.120   5.134 -0.2520  0.2288  0.0246
30477W        W46551  11.756   5.298  14.973  0.2129 -0.1681 -0.2413
30478W        W46552   6.948  14.595   3.962  0.0267  0.3717 -0.0731
30479W        W46553  12.774  16.425   2.934  0.0168  0.0067 -0.2398
30480W        W46554  13.319   6.423   2.031  0.0856  0.0860  0.4061
30481W        W46555  13.001   3.864   1.888 -0.0359  0.1084  0.0415
30482W        W46556   5.484  13.258   2.800 -0.0335 -0.2109  0.1873
30483W        W46557  12.043   6.239   0.440 -0.0498  0.3288  0.1287
30484W        W46558   1.211   8.805  12.326 -0.0520  0.1629  0.1135
30485W        W46559  13.078   1.470  12.224  0.2855  0.0987  0.1657
30486W        W46560  12.182   3.823   4.157 -0.0106  0.0577 -0.2495
30487W        W46561  16.949   5.392   4.026  0.1009 -0.1343  0.1918
30488W        W46562  12.069  15.199  11.449  0.1808  0.0485 -0.0658
30489W        W46563   1.777   2.792   3.208 -0.0597  0.2366  0.1816
30490W        W46564   6.057   6.359   1.325 -0.0718 -0.4353 -0.2302
30491W        W46565   9.804   2.748   4.646 -0.3115  0.1373 -0.0186
30492W        W46566  18.260   8.320   0.686 -0.0707  0.0764  0.0853
30493W        W46567  14.099  14.526   6.061 -0.0880 -0.1386 -0.3821
30494W        W46568   9.875   3.731   4.295 -0.0308  0.0715  0.1570
30495W        W46569   7.557   6.013  14.044 -0.1410 -0.1519 -0.2624
30496W        W46570  16.790   8.493  11.655  0.0237 -0.0395 -0.3224
30497W        W46571   0.168   9.141  15.861  0.1205 -0.2094 -0.1357
30498W        W46572   4.605  12.281   5.125  0.0646 -0.0768 -0.2204
30499W        W46573   6.820   0.788   0.653 -0.0582  0.0649  0.3448
30500W        W46574   8.657  13.483  12.975 -0.0297 -0.1044 -0.3217
30501W        W46575   4.772  14.954   5.163 -0.4708  0.0359 -0.0701
30502W        W46576   6.841  15.092  15.880 -0.1514  0.0280  0.1458
30503W        W46577   7.967  14.703   5.541 -0.0696  0.2847  0.0188
30504W        W46578   8.398  17.991   0.485  0.0340  0.3587 -0.2142
30505W        W46579  17.391   3.028  15.743 -0.1190 -0.2134 -0.1660
30506W        W46580   6.033  17.490  13.352 -0.5547 -0.1647 -0.1148
30507W        W46581   4.539   4.850  14.954  0.0965 -0.1891  0.0347
30508W        W46582  17.987  15.138  12.918  0.0611  0.1202 -0.0568
30509W        W46583   7.045  14.979   4.738 -0.1777  0.0482 -0.4438
30510W        W46584  17.552  17.092   1.771  0.1380 -0.0625 -0.3431
30511W        W46585  17.701  13.753   2.813  0.0900  0.1062 -0.1704
30512W        W46586  17.810  15.990   3.166 -0.1587 -0.2321  0.4192
30513W        W46587   1.378   2.304   2.154 -0.0286 -0.1767  0.0585
30514W        W46588   3.037  17.220   0.656 -0.2761 -0.3478  0.1775
30515W        W46589   2.437  12.263   3.033  0.1495  0.1188 -0.0881
30516W        W46590  16.753   6.314   1.900  0.1698 -0.0896  0.1053
30517W        W46591  15.809   2.704   0.552  0.1913 -0.2336 -0.0576
30518W        W46592   8.547   9.022  11.098  0.1206  0.1053 -0.0592
30519W        W46593   7.143   6.132   2.201  0.0620  0.2621 -0.2861
30520W        W46594  15.067  15.423   5.370 -0.1719  0.0406  0.1318
30521W        W46595   9.895  13.380  15.582 -0.0457  0.0567 -0.1504
30522W        W46596   5.585  12.532   4.671 -0.1063  0.0113  0.1221
30523W        W46597   9.569   7.567   5.165 -0.2254  0.0894 -0.2892
30524W        W46598   2.316   2.272   4.480  0.2406 -0.1562 -0.0712
30525W        W46599  13.144   8.252  14.273 -0.5387 -0.0696 -0.2053
30526W        W46600  13.800  11.760  12.304  0.1778 -0.3220  0.4893
30527W        W46601   6.660   9.745   2.168 -0.1391  0.2372  0.3584
30528W        W46602  14.132   0.194   5.428  0.0689  0.3148 -0.2216
30529W        W46603   2.488   6.679   1.244 -0.0392  0.0174 -0.1644
30530W        W46604  12.482  14.799  14.978 -0.0192  0.0281  0.0423
30531W        W46605  17.769  10.839   2.247 -0.3630 -0.4082  0.1392
30532W        W46606   9.768  12.372  11.225 -0.0087 -0.2677  0.0153
30533W        W46607  11.248   1.716  11.771  0.2930 -0.0168 -0.0319
30534W        W46608   2.558   3.145   1.414 -0.0934  0.1189 -0.1003
30535W        W46609   7.404   9.763   4.538  0.0386  0.1253  0.2190
30536W        W46610   6.415   8.044  13.041  0.3900  0.0009 -0.0035
30537W        W46611  11.071  12.896   3.367  0.1948 -0.1539 -0.0750
30538W        W46612  11.022   6.345  12.232 -0.2916  0.0662  0.0242
30539W        W46613   3.907   4.122   4.354  0.1461  0.0868  0.1557
30540W        W46614  17.089  14.940  11.373  0.3207 -0.2556  0.1114
30541W        W46615   5.174  18.433   5.419 -0.2207  0.1962 -0.0459
30542W        W46616   0.117  17.716  13.293  0.3851  0.3106  0.1424
30543W        W46617   3.412   2.720  13.136 -0.0027  0.2203  0.0806
30544W        W46618   0.263  17.932   2.259  0.4394 -0.0457  0.0072
30545W        W46619  11.777   6.370  15.323 -0.1422 -0.3880 -0.0217
30546W        W46620  15.081  16.099  11.492 -0.2097 -0.1079  0.3104
30547W        W46621  11.464  17.435  15.543  0.1347  0.2558 -0.0856
30548W        W46622   1.064   2.135   5.133 -0.0146 -0.1381 -0.1746
30549W        W46623  15.988   9.904  12.316  0.0577 -0.1538  0.0864
30550W        W46624   4.822   2.236   4.243  0.0047 -0.0143  0.1195
30551W        W46625   4.970   1.815   4.480  0.0128 -0.0016  0.0174
30552W        W46626   0.009   2.955   5.554 -0.1116  0.3426  0.4300
30553W        W46627  12.759   7.732   0.708 -0.0079 -0.2264 -0.2888
30554W        W46628   3.819   6.060  13.544 -0.1347 -0.2442  0.0665
30555W        W46629   5.754   1.669  15.188  0.0777 -0.4967 -0.0003
30556W        W46630   1.782   9.219   3.147  0.0678 -0.0606  0.0795
30557W        W46631   5.596  17.935   0.661  0.1408  0.2553  0.0583
30558W        W46632  12.358  14.700  13.556  0.1162 -0.0116 -0.1030
30559W        W46633  17.917  10.347   5.289 -0.1047  0.0696 -0.0025
30560W        W46634   2.575   0.580  11.233  0.2132 -0.0253  0.2132
30561W        W46635  12.555  18.545  10.290  0.0802  0.4433 -0.0492
30562W        W46636   1.990   2.491   3.601 -0.4047  0.0885 -0.0859
30563W        W46637  10.781  18.407   2.598  0.0155  0.0258 -0.1367
30564W        W46638   0.201   0.085   4.813 -0.0260  0.1283  0.1096
30565W        W46639  15.374   0.623   0.997 -0.0230  0.0589  0.0142
30566W        W46640  10.015  13.562  13.582  0.3329  0.1773 -0.1068
30567W        W46641   7.536   7.603  11.963 -0.1948  0.2258  0.2607
30568W        W46642   0.726  13.616  13.782  0.0548  0.2630  0.0516
30569W        W46643  15.196  11.166  10.521  0.0889  0.0758 -0.0160
30570W        W46644  13.204   9.237  15.074 -0.4893  0.2213 -0.3510
30571W        W46645   3.256  15.088   0.101  0.0346  0.1207  0.1264
30572W        W46646  16.481   6.923   2.690  0.2017  0.0781 -0.0775
30573W        W46647  11.526  12.298  10.118 -0.3729 -0.1902  0.4029
30574W        W46648   8.395  10.878  11.632  0.4862  0.0808  0.0199
30575W        W46649   8.589  12.904  11.417  0.0475 -0.0862 -0.1263
30576W        W46650  15.024  17.353  13.756 -0.2405 -0.0721 -0.2444
30577W        W46651   4.083   3.964   5.193  0.4756  0.0533 -0.0199
30578W        W46652  11.048   5.786  12.717 -0.0932  0.0464  0.2030
30579W        W46653   0.399  17.553   3.182  0.2211 -0.0491  0.0163
30580W        W46654  13.444   7.892  14.360  0.0464  0.1707  0.1246
30581W        W46655  14.875   1.683  13.918  0.0854  0.0050  0.0879
30582W        W46656   3.502   2.021   2.643 -0.3377 -0.1163 -0.1568
30583W        W46657   2.849  13.263   4.070  0.1935  0.2174 -0.1574
30584W        W46658  14.708  11.215  13.802 -0.2273 -0.0309 -0.1480
30585W        W46659  10.148   7.708   0.077 -0.1367 -0.2570  0.1222
30586W        W46660   1.171   0.493  13.154 -0.1450 -0.1713 -0.5605
30587W        W46661  11.456   6.848   2.884  0.0157  0.2206  0.0346
30588W        W46662  17.937  13.847  15.516  0.0108  0.2346  0.4213
30589W        W46663   0.963  12.217   4.935  0.0413  0.3309 -0.1531
30590W        W46664  17.590   7.943  13.883 -0.1710 -0.0080  0.4079
30591W        W46665   5.611   8.543  13.222 -0.0172  0.0627 -0.2854
30592W        W46666   2.622   7.320  11.838 -0.2838  0.0786 -0.1561
30593W        W46667  15.407   5.789   0.412 -0.0324  0.3093 -0.1023
30594W        W46668  16.788   8.112  12.023 -0.2337  0.2478  0.2407
30595W        W46669  14.063  12.539  14.157 -0.0113 -0.0183  0.0297
30596W        W46670   1.301   8.697  13.799 -0.2614 -0.2794 -0.1300
30597W        W46671   4.503  16.462   2.353 -0.1268  0.4146 -0.0351
30598W        W46672  16.998   4.104  15.719  0.1720  0.1183  0.2024
30599W        W46673   9.895   1.358   0.271  0.2221 -0.1548 -0.0473
30600W        W46674   9.330  16.474   1.352 -0.1943 -0.2605 -0.1199
30601W        W46675   5.347  11.528   2.489 -0.1022  0.2315 -0.0718
30602W        W46676   0.105   5.565   1.836  0.2353 -0.1397 -0.0626
30603W        W46677   1.106  14.817   0.322 -0.0599  0.0517  0.1572
30604W        W46678   2.416   6.403  11.675  0.2170  0.1039 -0.1506
30605W        W46679  16.481  16.029   2.269 -0.0563  0.0940  0.0109
30606W        W46680  17.285  15.399  15.611 -0.0835 -0.1340 -0.3005
30607W        W46681   9.822   4.762   1.277  0.2103  0.4269  0.1386
30608W        W46682   2.963  17.477   3.552  0.2531  0.2311  0.0713
30609W        W46683   9.954   3.154  12.546 -0.1607 -0.0110  0.0307
30610W        W46684  10.896  13.375  13.834  0.0032  0.3004 -0.2052
30611W        W46685   9.291  11.141   2.629 -0.0024  0.2157  0.1797
30612W        W46686  11.195   7.555   3.586  0.1091  0.0053  0.0035
30613W        W46687   0.203   6.383   1.199  0.1313 -0.1584  0.0437
30614W        W46688   2.612   0.846   0.184  0.1070  0.2088  0.0379
30615W        W46689  10.900  13.781  15.109  0.1079  0.3082 -0.5107
30616W        W46690  13.980   9.302   0.171  0.0726  0.1545  0.0486
30617W        W46691   2.173   5.456   6.168  0.0767  0.2991 -0.0015
30618W        W46692   1.250  16.938  15.427  0.3348 -0.0859 -0.1422
30619W        W46693  16.750   9.789   4.463  0.1188 -0.3882 -0.1619
30620W        W46694   0.876  14.672  12.111  0.2570 -0.5352 -0.1871
30621W        W46695  11.694   5.470   1.890  0.3438  0.2091 -0.0508
30622W        W46696  14.940  11.182  15.663 -0.1287 -0.1176 -0.2874
30623W        W46697  12.961  12.746   5.476 -0.1540 -0.1180  0.0949
30624W        W46698  15.022  13.919  12.959  0.1955 -0.3124 -0.1786
30625W        W46699  18.127   5.263  13.594 -0.0824 -0.1679  0.1525
30626W        W46700   3.820   5.442  15.424 -0.0145  0.2288  0.1980
30627W        W46701   7.879   4.810  14.236  0.1634  0.2901 -0.0225
30628W        W46702  15.353   1.595   0.517  0.0215 -0.0417  0.1292
30629W        W46703   2.156   4.330   4.717 -0.2061 -0.0273  0.1425
30630W        W46704  10.399   1.628   4.312  0.1584  0.3610  0.0958
30631W        W46705   5.244   7.940  11.956  0.3110 -0.3641 -0.2328
30632W        W46706  11.319  15.621  13.968  0.1400 -0.0096  0.2008
30633W        W46707  12.868  14.265  15.483  0.1350  0.2216  0.0826
30634W        W46708   4.526  17.278   0.279 -0.2070  0.2136 -0.2116
30635W        W46709   0.414  10.436   1.269  0.1519  0.0251  0.1361
30636W        W46710  10.858   1.659  15.898  0.2472 -0.1311 -0.0585
30637W        W46711  15.755   6.096   1.370 -0.2176 -0.0504  0.0433
30638W        W46712  18.539  17.877  12.819  0.1736  0.2168 -0.1714
30639W        W46713   2.819   5.117   2.269  0.0016  0.2713  0.1682
30640W        W46714  12.131  11.680   4.013 -0.0007  0.1040  0.2460
30641W        W46715   9.362  15.824   3.881 -0.0647  0.1302 -0.0352
30642W        W46716  17.297   6.212   0.119 -0.2585  0.0932  0.3488
30643W        W46717   4.012  12.874   5.033  0.2291  0.1017 -0.1116
30644W        W46718   8.287  16.322  13.198  0.0162 -0.1982 -0.1414
30645W        W46719  15.388  15.840  11.863 -0.1578  0.1997  0.1389
30646W        W46720   8.071  18.487  15.525  0.1984 -0.2631  0.1864
30647W        W46721   8.057  10.466   5.293 -0.2655 -0.0558 -0.1591
30648W        W46722  15.494   8.736   2.176  0.1622  0.0811 -0.0351
30649W        W46723   7.124   8.659  16.025 -0.0507 -0.1723 -0.0764
30650W        W46724   7.448   3.124   1.802  0.1140 -0.2775  0.0478
30651W        W46725   2.475  17.802   1.050 -0.0017 -0.0564 -0.1403
30652W        W46726  10.311  16.734  14.432 -0.0496  0.1041 -0.2867
30653W        W46727   2.456   1.882   5.903  0.4531 -0.0802 -0.0280
30654W        W46728  16.915  18.543   3.278 -0.2268 -0.1361 -0.0122
30655W        W46729  15.009   0.099   4.871  0.1369 -0.0768 -0.2366
30656W        W46730   4.553   8.562   3.338  0.0080 -0.1575  0.2132
30657W        W46731   5.024  17.674   2.765 -0.0526 -0.0027 -0.1026
30658W        W46732  17.619  13.526  14.151 -0.1180  0.0784  0.0478
30659W        W46733  10.011  18.169   1.995 -0.0170 -0.2424 -0.0036
30660W        W46734   5.989  13.629  11.335 -0.1599  0.2582  0.2632
30661W        W46735   4.511  15.813   1.376  0.0947  0.1070 -0.0686
30662W        W46736   0.071   8.113  12.357  0.0663  0.0646 -0.2852
30663W        W46737   4.458  14.855   4.703  0.0830 -0.2571  0.1238
30664W        W46738   2.025  12.141  12.099 -0.2247  0.0367  0.1523
30665W        W46739   7.804   5.490  14.911 -0.0174 -0.0013 -0.1898
30666W        W46740  13.213   6.879  15.758  0.4084  0.1103 -0.4170
30667W        W46741   8.367  13.552   2.391  0.0994  0.2618 -0.1217
30668W        W46742   7.982   3.410   2.611  0.0516 -0.0785 -0.0019
30669W        W46743  11.553   5.905   3.000  0.0139  0.0081  0.1843
30670W        W46744  15.293   6.659   3.095  0.0175 -0.2265 -0.0736
30671W        W46745   1.798   7.764   4.096  0.1074  0.1805 -0.1732
30672W        W46746  11.831   3.258   0.110 -0.0739  0.1470 -0.1481
30673W        W46747  17.727   8.156   2.521  0.0214  0.0226  0.1649
30674W        W46748   6.905   5.891  13.423 -0.1537 -0.1776  0.3934
30675W        W46749   9.731  11.403   0.994  0.1632  0.0975  0.0506
30676W        W46750   1.190  10.754   0.616 -0.0192  0.4706  0.0348
30677W        W46751  15.490   8.076   1.273  0.1582 -0.1964 -0.3766
30678W        W46752  13.615   6.570  15.494 -0.0300  0.1770 -0.0912
30679W        W46753   3.791   5.173   0.138  0.0554  0.0892  0.1528
30680W        W46754  10.317   1.548  11.775 -0.3527 -0.4305 -0.0947
30681W        W46755   0.381  13.914   0.960  0.2564  0.2069 -0.1593
30682W        W46756  13.351  16.072   4.705 -0.0747  0.1612 -0.1785
30683W        W46757   5.374  18.502  11.948 -0.0568 -0.0991 -0.2693
30684W        W46758  11.434  16.405   0.469  0.0184 -0.1047 -0.0449
30685W        W46759   4.361   3.069   3.215  0.3439  0.0193 -0.1033
30686W        W46760  12.612   5.546   1.988 -0.0081 -0.0435  0.3182
30687W        W46761  12.689   3.355  10.936  0.3098 -0.0913  0.1545
30688W        W46762  10.698   4.897   2.503  0.1842 -0.0998 -0.3174
30689W        W46763   2.347   2.479  14.948  0.1858 -0.2244  0.1978
30690W        W46764   7.025   2.502  14.810 -0.1045 -0.0845  0.2410
30691W        W46765  17.525  13.953  12.357 -0.0290  0.2023  0.1033
30692W        W46766   4.548  12.255   4.620  0.1166  0.3703  0.3367
30693W        W46767   3.179  12.107  11.336 -0.2490 -0.0187 -0.0271
30694W        W46768  14.340   2.743  13.694 -0.5232  0.1496  0.0837
30695W        W46769   9.804   6.157   1.436  0.3193  0.1615 -0.3543
30696W        W46770  13.845   5.046  12.673 -0.1093 -0.1247  0.0739
30697W        W46771  11.445   4.487  11.336  0.1496 -0.0147  0.0331
30698W        W46772  16.115   3.819   0.321  0.3008  0.0968  0.1081
30699W        W46773  14.114   7.886   1.501 -0.0950  0.1601  0.0587
30700W        W46774   0.932  16.374   3.722 -0.2862  0.1461  0.0930
30701W        W46775  17.587   0.478   4.059 -0.1621  0.1020 -0.1356
30702W        W46776   7.827   7.734   2.257  0.3278 -0.0567  0.1752
30703W        W46777   9.727   9.684   3.747 -0.1718  0.1526  0.2392
30704W        W46778  13.462  13.261   5.092 -0.0354 -0.1321  0.2919
30705W        W46779  16.685   8.967  11.590 -0.1770 -0.0999 -0.0366
30706W        W46780  14.004   8.075  15.466 -0.3449  0.0963 -0.2530
30707W        W46781   1.365   9.041   0.515 -0.0314  0.1608 -0.0033
30708W        W46782   2.691   6.840  11.671 -0.1522  0.2779  0.2279
30709W        W46783   8.153   5.443  11.752  0.0634 -0.0020  0.1241
30710W        W46784  16.818   2.890  13.359 -0.3233 -0.2629 -0.3425
30711W        W46785  12.543   7.937  13.565  0.3797  0.1428  0.1358
30712W        W46786   7.927  16.381   2.369  0.1775 -0.2076 -0.1658
30713W        W46787  10.311   6.727   5.716  0.0064 -0.0479 -0.0509
30714W        W46788  16.221   4.563   4.185 -0.2551  0.0092 -0.0234
30715W        W46789   7.292   1.309   1.573  0.0002 -0.0274  0.1138
30716W        W46790   2.278   3.761  14.062 -0.1468  0.1359 -0.2904
30717W        W46791  17.208   4.725   0.734  0.0238 -0.0951 -0.0049
30718W        W46792   3.575   0.359   4.738 -0.1402  0.2197 -0.2229
30719W        W46793   8.514   5.161   5.113  0.1107 -0.0267  0.0656
30720W        W46794   8.890   6.594   1.081 -0.1792  0.2684  0.0327
30721W        W46795   9.769  17.857   3.822  0.1855 -0.1282 -0.1404
30722W        W46796   2.641  13.723   3.972 -0.1283 -0.0648 -0.0883
30723W        W46797   5.308  15.199  11.993  0.1937  0.0278 -0.2959
30724W        W46798   0.539   9.875   1.360  0.0446 -0.0368 -0.1976
30725W        W46799   1.389   2.943  15.544 -0.0799 -0.0015 -0.0194
30726W        W46800  13.759  16.717  15.474 -0.1078  0.0682  0.1899
30727W        W46801   0.879   3.227   3.723  0.1293 -0.1072  0.0182
30728W        W46802   3.047  17.045  12.870 -0.0167 -0.2066 -0.1183
30729W        W46803  18.095   6.378   1.801  0.1627 -0.0624 -0.1044
30730W        W46804   6.037  12.400   0.075 -0.1057  0.4748  0.1271
30731W        W46805   5.308   6.306   2.488  0.1685  0.1929  0.1206
30732W        W46806  16.238  15.379  15.492 -0.2037 -0.2154  0.0025
30733W        W46807  16.338  18.008  10.805  0.5564  0.2061 -0.0230
30734W        W46808  11.332   5.725   1.396  0.0363 -0.1670 -0.1674
30735W        W46809   6.703  12.138  12.983  0.1856 -0.2361 -0.0353
30736W        W46810   5.980  12.775  13.170  0.1149 -0.6037 -0.2239
30737W        W46811   8.858   9.583  15.882 -0.1668 -0.0703 -0.1289
30738W        W46812   7.708   9.064   3.343 -0.1562  0.0586  0.2081
30739W        W46813   0.065  11.606   3.586  0.1719 -0.0508 -0.2392
30740W        W46814   9.659  13.754  15.363  0.2396  0.0771  0.1674
30741W        W46815   9.737  18.224   0.508  0.0229 -0.5375 -0.0642
30742W        W46816   2.635  15.443   0.210  0.1236  0.1258  0.0177
30743W        W46817   0.609  16.466   4.831  0.1701  0.3608  0.0495
30744W        W46818  14.010   2.077  13.517 -0.0021  0.3353 -0.0965
30745W        W46819   0.145  17.146  12.778  0.1560 -0.2539  0.2587
30746W        W46820  13.371   4.684   1.970 -0.1444 -0.3914  0.1296
30747W        W46821  14.628   5.424  10.834  0.1611 -0.2436  0.1503
30748W        W46822  13.532   8.984  11.187  0.4086 -0.2326 -0.0289
30749W        W46823   2.235   5.964  12.546 -0.2039  0.1107 -0.0409
30750W        W46824  11.501  13.923  15.275  0.1648 -0.0163 -0.1031
30751W        W46825  12.039   3.881   1.027 -0.1732 -0.0704  0.2213
30752W        W46826   5.702   3.781  14.662  0.2625 -0.0623 -0.0475
30753W        W46827  16.772   6.479  12.267  0.1215  0.0083  0.0452
30754W        W46828   8.405   5.922  11.539  0.3493 -0.0209  0.1442
30755W        W46829  11.965   0.439  13.946  0.0726  0.1801 -0.1800
30756W        W46830   5.118  16.349   3.842  0.2573 -0.1054 -0.2875
30757W        W46831  14.549   9.639   5.813 -0.0696 -0.2592  0.1766
30758W        W46832  15.937   9.088  11.308  0.0587  0.1321  0.4065
30759W        W46833   4.785  16.294  14.958  0.3434  0.1200  0.0977
30760W        W46834   9.823  17.958  10.671  0.0430  0.0794 -0.4269
30761W        W46835  17.026  14.163   3.193  0.3525  0.0882 -0.0585
30762W        W46836  16.062   7.981   3.954  0.1460  0.2649  0.2437
30763W        W46837   9.302   4.198  13.264  0.2126  0.0885  0.1245
30764W        W46838  16.082  13.978  11.414 -0.2179 -0.1398 -0.0395
30765W        W46839   0.107   8.235  14.193 -0.0548  0.1957  0.0372
30766W        W46840  16.488  11.895  14.042 -0.1507  0.1487 -0.2461
30767W        W46841  15.592  15.209   5.941  0.0817  0.0983  0.2210
30768W        W46842  11.712  16.769  13.052  0.1215 -0.0044 -0.3527
30769W        W46843  11.995  16.974   5.336  0.1945  0.0412  0.0794
30770W        W46844   9.562  10.473  14.448 -0.2906 -0.5131  0.0547
30771W        W46845   0.564  12.362  12.397 -0.0184 -0.0414 -0.0877
30772W        W46846  11.866   2.113  12.341  0.0453 -0.1847  0.2067
30773W        W46847   3.474  12.865   5.257  0.0800  0.1600 -0.0774
30774W        W46848  10.794  12.027  13.166  0.1375 -0.2110  0.3657
30775W        W46849  11.234  17.909  14.457  0.2755 -0.2232  0.0459
30776W        W46850   8.697   4.049  12.468 -0.3178  0.1514  0.1800
30777W        W46851   8.371  12.401   1.808  0.0031  0.0756 -0.2122
30778W        W46852   7.730   0.129  13.122 -0.3034 -0.1813  0.0895
30779W        W46853  17.448   8.839   4.495 -0.0284 -0.3818  0.0556
30780W        W46854   1.149  14.615  14.979 -0.2933 -0.0731  0.0387
30781W        W46855   0.454  15.936  11.326 -0.0295 -0.2519  0.0232
30782W        W46856   1.654   4.677   3.958 -0.1058  0.0411  0.2515
30783W        W46857   4.559   4.847  12.128 -0.1333  0.0424  0.2637
30784W        W46858   0.108  11.968   1.860 -0.0869  0.1519 -0.2579
30785W        W46859  13.784  12.639  12.676  0.0031  0.1554  0.1507
30786W        W46860  17.968  14.672  11.954 -0.1075  0.1489  0.0801
30787W        W46861  15.297   1.988  12.350 -0.1574  0.0424  0.0798
30788W        W46862   4.443   6.448   4.411  0.3492 -0.2932 -0.5293
30789W        W46863  15.986   4.401  15.688 -0.3213  0.2054  0.0909
30790W        W46864   8.352  12.330  14.922 -0.0672 -0.0769 -0.3203
30791W        W46865  16.242  15.727  12.654  0.0798 -0.0734  0.3838
30792W        W46866  10.061  11.601  12.258 -0.2347 -0.1453 -0.1321
30793W        W46867   0.092  13.017   3.577 -0.2836  0.0469 -0.0911
30794W        W46868   8.784  11.983  13.670 -0.0180  0.0000 -0.1007
30795W        W46869   8.153   9.539   3.304 -0.2919 -0.0544  0.1051
30796W        W46870   7.968   5.090   3.785  0.0594  0.2786  0.3316
30797W        W46871  15.162  12.908  12.636 -0.1575 -0.4312 -0.3513
30798W        W46872   7.993  10.523   0.430 -0.0694  0.1709 -0.1967
30799W        W46873  13.174  12.930   0.675 -0.1869  0.1090  0.3127
30800W        W46874  15.272   4.336   3.942 -0.0220 -0.1118  0.0779
30801W        W46875   4.098  15.911   1.100 -0.0228 -0.0336  0.1991
30802W        W46876  12.224   3.050  11.840 -0.2081 -0.3109 -0.1426
30803W        W46877   0.611  11.205  12.915 -0.2700 -0.1099 -0.0383
30804W        W46878   3.601   3.286  13.872 -0.0231  0.0122  0.2038
30805W        W46879  12.782  18.530  12.026 -0.0963 -0.0371 -0.0628
30806W        W46880  11.228   3.068   3.562  0.2939 -0.3319  0.1407
30807W        W46881  15.803   2.790  12.034  0.0301 -0.1759  0.1645
30808W        W46882   1.588  14.539   0.963  0.0536 -0.2205 -0.0236
30809W        W46883   2.861   1.070   1.327 -0.1138  0.0937  0.1366
30810W        W46884  11.054  15.474  14.944 -0.1107 -0.1565  0.0456
30811W        W46885  12.697  15.373  13.650 -0.1018  0.2542  0.0209
30812W        W46886   1.436  15.819  15.302 -0.1315  0.3344 -0.3476
30813W        W46887   1.680   8.576  14.064  0.0369  0.0416 -0.0754
30814W        W46888   0.796   7.415   1.100 -0.0707 -0.0162  0.0359
30815W        W46889  13.968   3.920   4.058 -0.0816 -0.2499  0.1796
30816W        W46890   4.532   0.978   0.658  0.0745 -0.0451 -0.5386
30817W        W46891  17.073  11.994  11.667 -0.2203  0.0292  0.3309
30818W        W46892   3.151  18.282   9.893 -0.3503  0.2161 -0.1114
30819W        W46893   9.733   1.414  10.776  0.0011 -0.2061 -0.0224
30820W        W46894   1.403  16.068   0.205 -0.4003  0.1521  0.4216
30821W        W46895  17.171  16.358  14.347  0.1222  0.1784  0.1391
30822W        W46896  18.492   0.711  15.351  0.0199 -0.0455  0.2480
30823W        W46897   1.197   2.587  11.252  0.0565 -0.0904 -0.4426
30824W        W46898  11.755   9.009  14.217  0.1724 -0.0324  0.0813
30825W        W46899  14.500  14.695   2.413 -0.1179  0.1719  0.0233
30826W        W46900   2.130  16.212   2.906 -0.1208  0.0447 -0.1004
30827W        W46901  14.245  17.634  11.324 -0.1064 -0.0155 -0.4968
30828W        W46902  13.504   4.077   3.675  0.0388 -0.1262  0.1217
30829W        W46903   2.802   6.445   1.843 -0.1010  0.0884  0.0089
30830W        W46904  15.679   9.617  11.466  0.1315  0.4657 -0.1587
30831W        W46905  16.671   9.704  12.674 -0.2275 -0.1129  0.0281
30832W        W46906   8.851  16.390   4.511  0.2363  0.1616  0.3053
30833W        W46907  10.024   9.675   5.379  0.3290  0.2596  0.1252
30834W        W46908   3.319  16.726   5.883  0.3791  0.2076  0.1515
30835W        W46909  17.792  15.480  14.956 -0.3267  0.1182 -0.0330
30836W        W46910  13.217   1.087   0.520  0.1675 -0.0488 -0.3983
30837W        W46911   2.370   3.303  12.186 -0.1197 -0.4095  0.2950
30838W        W46912  12.020  16.620  14.653 -0.0734  0.2313  0.1704
30839W        W46913  17.947   6.080  13.022  0.0094 -0.3509 -0.0513
30840W        W46914   3.696   3.949   1.571  0.0791  0.1676 -0.2191
30841W        W46915  13.640  14.831  15.193  0.2958 -0.0741 -0.1337
30842W        W46916  13.228   8.345  12.810  0.1505 -0.1509  0.0167
30843W        W46917  15.011   2.757  12.185  0.1787 -0.0353 -0.0272
30844W        W46918  11.327  12.525  15.267 -0.1208  0.1565 -0.3055
30845W        W46919   2.237  15.485  12.674 -0.0879 -0.0352 -0.1235
30846W        W46920   1.829  18.301   5.108  0.0721  0.0303  0.1311
30847W        W46921  12.092  13.859  12.923  0.0387 -0.1109 -0.0171
30848W        W46922   3.325  18.272   0.454 -0.0462 -0.2712 -0.0135
30849W        W46923  14.944   0.154  12.485  0.3453  0.0596 -0.1688
30850W        W46924   8.403   3.863  11.735  0.0827 -0.3198  0.3458
30851W        W46925   6.606   1.809  12.073  0.0991 -0.1420 -0.3413
30852W        W46926  15.393   2.685   2.271 -0.1223  0.1686  0.3504
30853W        W46927   1.979   5.439   3.036  0.3182  0.1358  0.1631
30854W        W46928   0.121  11.788  13.534 -0.2295  0.0999 -0.1343
30855W        W46929   6.081   9.037   4.523 -0.2552  0.0891 -0.0951
30856W        W46930  13.262   6.763  12.066  0.0185 -0.2204  0.0815
30857W        W46931   8.281  18.066  15.293 -0.0345  0.0319 -0.2507
30858W        W46932   6.435   9.334   5.267  0.0208 -0.2177  0.1421
30859W        W46933  10.439   8.624  13.223  0.2443 -0.0449 -0.0555
30860W        W46934   8.898   0.512  11.166 -0.0607  0.0789 -0.1723
30861W        W46935   4.850   9.429  13.766 -0.2075  0.0762 -0.0298
30862W        W46936  11.564  11.330  14.343 -0.1506 -0.0201  0.3599
30863W        W46937   4.869  10.261   5.844 -0.1586  0.3473  0.1630
30864W        W46938  15.380  17.895   2.375 -0.2510  0.1691  0.3815
30865W        W46939  15.869   9.160   0.494 -0.1977 -0.1039  0.1006
30866W        W46940   2.639  15.669  11.587  0.0309  0.0019  0.1352
30867W        W46941   8.743   0.393  12.704  0.1210 -0.0163 -0.0777
30868W        W46942   8.389   8.597  13.324  0.1009 -0.2795  0.0900
30869W        W46943   3.198   6.719   3.867 -0.0314 -0.0201  0.0104
30870W        W46944   9.491   3.861   1.982  0.0566 -0.0776  0.1607
30871W        W46945  11.011  16.787   0.950  0.0181  0.1166  0.1154
30872W        W46946   1.175  11.230   2.111  0.1451  0.1079 -0.0319
30873W        W46947   1.914   0.851  15.574 -0.3786  0.0450  0.1854
30874W        W46948   4.381   0.054  14.592  0.4059  0.1266  0.0715
30875W        W46949   7.625   9.104  11.013  0.0744  0.0137  0.1229
30876W        W46950  12.462  14.272  15.104  0.1587  0.0306  0.3530
30877W        W46951   8.124   5.471   1.485 -0.3739  0.1812 -0.0923
30878W        W46952  13.228   7.442  14.636  0.0388  0.0443 -0.1224
30879W        W46953  10.087   4.518  13.802  0.2198  0.0620 -0.1216
30880W        W46954  17.682   1.103  11.612 -0.0495  0.1083  0.1494
30881W        W46955   5.805  16.010   0.831  0.2723 -0.1210 -0.1520
30882W        W46956   8.137   6.291  14.953  0.4265  0.3025  0.0063
30883W        W46957   0.184   9.748   4.415 -0.0845 -0.1493 -0.0877
30884W        W46958   2.275   7.781   5.559  0.2387 -0.0135 -0.0952
30885W        W46959  17.527  12.709  14.641  0.2560  0.0902 -0.2097
30886W        W46960   8.232   5.175   0.990  0.2340  0.0782 -0.0497
30887W        W46961  11.018   1.845   3.321  0.2668 -0.0097 -0.0978
30888W        W46962   1.240  11.256  15.276  0.1493  0.1682  0.1791
30889W        W46963   1.125   6.683  13.896  0.0307  0.0839 -0.0930
30890W        W46964   2.915   5.722   3.173 -0.2511  0.0148 -0.4092
30891W        W46965  12.914  16.284  13.431  0.1564 -0.0746  0.0682
30892W        W46966  14.787  13.044   0.512 -0.2165 -0.4233 -0.2070
30893W        W46967   9.447  15.071  12.387 -0.1870 -0.0668 -0.0088
30894W        W46968  15.889   5.120  15.126 -0.1240 -0.3482  0.1806
30895W        W46969  15.365   0.192   4.435  0.0692  0.0294  0.0662
30896W        W46970   5.547  18.128   3.858 -0.1870 -0.2365 -0.0572
30897W        W46971  16.558   1.539   1.431  0.1653 -0.0524 -0.2270
30898W        W46972   4.122  12.389   5.259  0.1055  0.0684 -0.2612
30899W        W46973   8.311   5.688   4.227  0.0261 -0.0046 -0.5069
30900W        W46974   4.601   9.068  14.065 -0.1945 -0.1798 -0.1545
30901W        W46975   0.158   5.991   5.311 -0.0026 -0.2060 -0.0007
30902W        W46976  18.190   6.704   2.360  0.2535  0.0138  0.0848
30903W        W46977  16.734   3.521  11.088 -0.3870 -0.0010 -0.2290
30904W        W46978   5.687  10.975   5.519 -0.0826  0.1258 -0.1092
30905W        W46979  17.903   3.698   1.354 -0.1686 -0.1312 -0.0930
30906W        W46980   6.702  18.026   3.221 -0.3871 -0.0888 -0.1319
30907W        W46981  15.797  16.391   4.101 -0.1068  0.3837  0.0001
30908W        W46982  12.749  12.708  15.393 -0.1239  0.0238 -0.1122
30909W        W46983  15.275  12.839  14.172  0.2440  0.0070 -0.1012
30910W        W46984   5.805  18.511  11.632  0.1902 -0.1300  0.6261
30911W        W46985   6.508   5.174   1.500 -0.4034 -0.0310 -0.0363
30912W        W46986  15.179  17.850   2.854 -0.1979  0.0665  0.2244
30913W        W46987   5.197   3.787   4.107 -0.1921  0.1166 -0.1122
30914W        W46988   1.031   3.888  11.273 -0.1021 -0.0429  0.0664
30915W        W46989   3.690   5.606   0.839 -0.0284 -0.0567 -0.2674
30916W        W46990   2.774  11.794  12.167 -0.0653 -0.4105  0.2020
30917W        W46991   6.872  13.893   3.322  0.0350 -0.1866 -0.0860
30918W        W46992  16.912  16.142   1.921 -0.1107  0.0280 -0.0577
30919W        W46993   5.470  11.806   1.345  0.2575 -0.0614 -0.1235
30920W        W46994  12.664  12.536   1.301  0.0258  0.2249  0.0551
30921W        W46995  14.367  18.291   3.089  0.0722  0.1055  0.1826
30922W        W46996   6.482  17.665   2.856  0.3594 -0.1998 -0.0363
30923W        W46997   6.578  15.273   1.175 -0.0454  0.2601  0.0479
30924W        W46998   0.859   5.534   1.085  0.2604 -0.0766  0.2179
30925W        W46999   6.523  14.033   1.561  0.0601  0.0270  0.0992
30926W        W47000   8.710   2.588   1.363 -0.0206 -0.3230 -0.0560
30927W        W47001  12.832  12.400  13.939 -0.1161  0.0088 -0.3421
30928W        W47002  10.347   5.797   2.331 -0.2408  0.0112 -0.3197
30929W        W47003  16.713   1.135   2.528 -0.3907  0.2071 -0.2847
30930W        W47004   5.052  12.495   0.555  0.0119  0.0958  0.0482
30931W        W47005  17.536  15.600   4.069  0.1120  0.1152 -0.4033
30932W        W47006   3.880  16.061  15.768  0.0940 -0.3636 -0.1568
30933W        W47007   6.052  14.564   4.950  0.0630 -0.1124 -0.4975
30934W        W47008  11.333  16.488   1.405  0.0238 -0.0855 -0.0042
30935W        W47009  15.849  12.959  11.668 -0.0313 -0.1098 -0.1129
30936W        W47010   1.802   9.881   1.645 -0.1017 -0.1887  0.0656
30937W        W47011   0.105  13.570  15.694 -0.1264 -0.2455 -0.1897
30938W        W47012  17.809   8.496  12.756  0.1704  0.1822 -0.0836
30939W        W47013   9.237   4.217   1.305 -0.1020 -0.0260  0.0652
30940W        W47014   1.298   2.118   4.044 -0.0669 -0.1946 -0.2569
30941W        W47015  18.568   9.367  12.783  0.1520  0.3309 -0.0590
30942W        W47016  11.350   7.039   0.036  0.2068 -0.3822  0.2201
30943W        W47017   9.780  12.364   0.457 -0.2937  0.0894  0.3460
30944W        W47018  11.396   1.269   0.660  0.2968  0.0812 -0.0949
30945W        W47019   3.977  10.024   5.397  0.3352  0.0359  0.1933
30946W        W47020   4.330   2.696   3.605  0.0186 -0.0043  0.2735
30947W        W47021   7.048  15.777  15.694  0.1003 -0.0899  0.1231
30948W        W47022   7.877  11.297  12.102 -0.1218 -0.0268  0.0577
30949W        W47023  18.025  17.117   5.506  0.3046 -0.0960  0.1677
30950W        W47024   6.731   5.820  14.481  0.0792  0.1555 -0.0418
30951W        W47025   5.621  12.301   2.001  0.1123  0.2090 -0.1091
30952W        W47026   1.200  11.776  15.022  0.3640 -0.2273 -0.1351
30953W        W47027   7.373   3.587   4.666 -0.2434  0.0281 -0.0112
30954W        W47028   6.439   0.693   4.086 -0.4000  0.1710  0.0648
30955W        W47029  13.834  10.003  14.026 -0.3096  0.1471 -0.0357
30956W        W47030  13.757   0.060  11.666  0.1459 -0.0210 -0.1373
30957W        W47031   0.544  17.165  14.472  0.0774 -0.1156 -0.1403
30958W        W47032  17.634   2.788   0.651  0.2239 -0.0869 -0.0248
30959W        W47033   8.981  16.305   3.068 -0.0066  0.0061 -0.1465
30960W        W47034  13.233  13.291  10.636  0.0601 -0.1167 -0.0272
30961W        W47035   3.632   1.215  12.008 -0.0733 -0.0958  0.0350
30962W        W47036   8.821  18.192   2.603  0.2629  0.0690 -0.2325
30963W        W47037  17.732   8.592  15.468 -0.2732 -0.3126  0.1085
30964W        W47038   1.430  17.917  14.873  0.1747  0.1832 -0.0089
30965W        W47039  12.474   7.252   2.112  0.2873 -0.0314 -0.0991
30966W        W47040  18.407   6.624  13.549  0.0489  0.2689  0.2470
30967W        W47041   1.928   3.127   4.122  0.2229 -0.2051  0.1851
30968W        W47042  15.912   3.327  12.939  0.1258  0.0673  0.0500
30969W        W47043  13.844   1.000  13.307 -0.1012  0.1711  0.1203
30970W        W47044   5.361   9.287  11.728  0.2767 -0.0887 -0.4088
30971W        W47045   0.371   3.285   2.770  0.2247 -0.2176 -0.0240
30972W        W47046   9.679   4.405  13.469 -0.3338 -0.1495  0.3230
30973W        W47047   7.841   2.789   3.393 -0.3724 -0.1297  0.0288
30974W        W47048   3.312  12.141  15.664  0.2014  0.0410  0.0125
30975W        W47049   0.021   3.924   2.230 -0.0236 -0.0995  0.0644
30976W        W47050   1.226   1.689   2.094 -0.0146 -0.3072 -0.1209
30977W        W47051   8.900   7.915   0.320 -0.3215  0.3800  0.2753
30978W        W47052  15.593   9.300  14.764  0.0562  0.1588 -0.0948
30979W        W47053  15.129   2.054   4.865  0.0826 -0.1878 -0.1647
30980W        W47054  16.782   6.607  12.776 -0.0450 -0.2132 -0.1614
30981W        W47055  16.269  17.066   1.156 -0.0985  0.2959 -0.0764
30982W        W47056   4.922  16.145   4.413 -0.2046 -0.2049  0.1686
30983W        W47057   1.398   1.634  14.635 -0.3095  0.1668 -0.0262
30984W        W47058  16.891   6.191   3.514  0.0491 -0.0033  0.0085
30985W        W47059  12.461   5.069  15.071 -0.1899  0.1590  0.0990
30986W        W47060   8.307  13.312   4.283  0.1137 -0.3008  0.4318
30987W        W47061  10.353   7.586   3.911  0.0877  0.0550  0.1145
30988W        W47062   8.105  18.435  10.966  0.3210  0.3429  0.0202
30989W        W47063  18.282   4.245   3.037 -0.1113  0.0982  0.5741
30990W        W47064  12.810  10.661   3.773 -0.2040  0.1697 -0.2912
30991W        W47065   0.657  11.145   2.834  0.0622 -0.2152 -0.0930
30992W        W47066   2.857   9.326  15.792 -0.1386  0.2404 -0.2013
30993W        W47067   9.468   9.264   3.620 -0.0886  0.0563  0.0430
30994W        W47068  16.377   2.415  15.187 -0.0253  0.3293  0.1992
30995W        W47069   7.983  10.602  14.701 -0.0427  0.2136 -0.3246
30996W        W47070   3.840   2.348  11.048 -0.0205 -0.0547 -0.2164
30997W        W47071   4.549  14.073   3.513 -0.0914  0.1294 -0.2117
30998W        W47072  10.714  15.175  12.155 -0.0051 -0.2052  0.1795
30999W        W47073  12.352  16.386   1.045 -0.1880  0.1477  0.1665
31000W        W47074  17.885  16.959  11.624  0.0441  0.1395  0.0039
31001W        W47075  17.938  17.230  15.870 -0.0291 -0.1574 -0.1424
31002W        W47076   2.444  12.731   5.349  0.2984  0.1411  0.1270
31003W        W47077   7.708   9.715  11.742  0.0167 -0.0831  0.1501
31004W        W47078   8.482  14.174   3.169  0.0724 -0.0411 -0.0216
31005W        W47079   3.337   9.974  11.609  0.0155 -0.1405  0.3699
31006W        W47080   8.451   0.882  14.969  0.1125 -0.1185 -0.0593
31007W        W47081  13.824   4.455   3.455  0.2338  0.0872  0.2015
31008W        W47082   5.666   2.699  12.579 -0.3063  0.1965 -0.0649
31009W        W47083   6.693   0.444   4.464  0.3042 -0.0683 -0.1551
31010W        W47084  12.738   8.068   2.690  0.2126  0.0676  0.0495
31011W        W47085  12.295   1.582   2.284 -0.1899 -0.0877 -0.0005
31012W        W47086  16.156   0.713  12.343 -0.2862  0.2783  0.4114
31013W        W47087   1.148   7.760   2.004  0.0497 -0.0663 -0.3425
31014W        W47088   1.143   7.857  13.955  0.0036 -0.1252  0.1180
31015W        W47089  13.677   0.728  12.443  0.2849  0.0475  0.2145
31016W        W47090   7.984   4.048  13.414  0.1017 -0.1443  0.0562
31017W        W47091   1.045   0.516   5.830  0.0152  0.1804  0.1360
31018W        W47092   5.216   7.737   1.646  0.0082  0.1543 -0.0092
31019W        W47093  18.506  13.906   1.088 -0.0516  0.1076 -0.0750
31020W        W47094   1.427  11.404  15.684  0.0497  0.0456 -0.1078
31021W        W47095   1.479   1.298  11.911 -0.0110 -0.1521  0.0155
31022W        W47096   1.680   6.939   1.699  0.0199 -0.1538  0.2920
31023W        W47097   6.606   0.017  13.767 -0.2884  0.2111 -0.1571
31024W        W47098  11.960  17.861   5.304  0.0778  0.2441 -0.1743
31025W        W47099  11.339   1.686  14.061  0.0775 -0.0889 -0.3151
31026W        W47100  12.692   9.716   0.860 -0.0043 -0.0802 -0.0875
31027W        W47101   9.923   2.068   3.897  0.1888  0.2231  0.0690
31028W        W47102   5.422  10.677   1.029  0.0018  0.0975  0.0055
31029W        W47103  12.138   1.905   0.880  0.5624 -0.0296  0.0835
31030W        W47104   5.827   4.037   5.434 -0.1437  0.2239  0.1233
31031W        W47105   0.591   7.439  15.053  0.3558 -0.0321 -0.3881
31032W        W47106   3.913  17.967  13.550  0.3823 -0.0677  0.0092
31033W        W47107  14.380   6.155  11.685  0.1110 -0.1670 -0.2571
31034W        W47108  10.341   7.852  15.068 -0.0963 -0.1181 -0.0139
31035W        W47109  17.094   2.982  12.033 -0.2091  0.1992 -0.0326
31036W        W47110  16.882  15.556   1.800 -0.0521  0.2116  0.3658
31037W        W47111  10.440   4.157   1.931 -0.0292 -0.0276  0.0732
31038W        W47112   5.662  16.990  14.413  0.3133 -0.1475 -0.0020
31039W        W47113  12.066  15.860  15.388 -0.2063  0.0320  0.0017
31040W        W47114  17.741   7.592   1.279  0.2006  0.1616 -0.1939
31041W        W47115  14.111  10.643  15.238 -0.0713 -0.0836  0.2505
31042W        W47116  13.633   2.289  10.998 -0.1011 -0.0274 -0.0552
31043W        W47117  14.975   6.471  14.939 -0.0297  0.1207 -0.0731
31044W        W47118  13.300  13.344  12.773  0.3081 -0.2131 -0.0847
31045W        W47119   2.544  18.096  12.703  0.4905 -0.0972  0.0807
31046W        W47120  11.296  17.196  11.196 -0.4163 -0.1316 -0.2316
31047W        W47121  13.362   6.200  13.694  0.1345 -0.0361  0.0851
31048W        W47122   0.230   6.898   1.225 -0.0667 -0.0439 -0.2183
31049W        W47123  11.283  10.303   4.399 -0.0131  0.3196 -0.1531
31050W        W47124  10.876   7.604   2.269 -0.0791  0.2151  0.1628
31051W        W47125   9.368   4.755  14.275  0.0267  0.0252 -0.2063
31052W        W47126   6.540   9.833   4.581  0.0733  0.3224  0.2586
31053W        W47127   1.695   9.380  15.164  0.0659  0.0698 -0.0555
31054W        W47128   3.512   0.322   1.612 -0.1221  0.4229 -0.5938
31055W        W47129  12.317   7.045   2.567 -0.1102  0.2128 -0.1121
31056W        W47130  11.345   6.017  12.358  0.0788 -0.1672  0.0527
31057W        W47131  13.934   4.342  11.525  0.0666  0.1069  0.3515
31058W        W47132   9.178   8.836  15.819 -0.4218 -0.3027 -0.0148
31059W        W47133   0.100   6.847   5.248 -0.0595 -0.2220  0.2994
31060W        W47134   0.411  17.522   4.138  0.0114 -0.3150 -0.3721
31061W        W47135  18.337   8.150   2.595 -0.1268 -0.4014  0.2074
31062W        W47136  18.016   0.333  11.923  0.3136 -0.1680  0.1736
31063W        W47137   2.892  13.583   2.429 -0.1035 -0.0202  0.1052
31064W        W47138   2.022  14.578  10.348  0.0602 -0.0945  0.0431
31065W        W47139   8.994   5.358   4.914  0.0495 -0.1173  0.4125
31066W        W47140  18.204   2.299  10.271 -0.3178  0.1115  0.0064
31067W        W47141  18.053   4.734   6.038 -0.0144 -0.0307 -0.3170
31068W        W47142   2.590   0.708   2.088 -0.0752 -0.0910  0.1473
31069W        W47143   0.787   5.537   3.650 -0.0212 -0.1678 -0.2451
31070W        W47144  15.482  16.894   3.476  0.1699 -0.1727  0.2596
31071W        W47145   5.506  13.669  14.665  0.3194 -0.0086  0.0253
31072W        W47146   2.537   9.321  13.669 -0.1344 -0.0450 -0.1691
31073W        W47147   6.914  16.573  15.521  0.1454  0.2551 -0.0887
31074W        W47148   3.783  14.153  11.313 -0.2022 -0.2303 -0.0400
31075W        W47149   5.717   3.283  11.961 -0.0312  0.2835 -0.0231
31076W        W47150   0.989  12.050  12.503  0.2648 -0.1765  0.0744
31077W        W47151  17.617  17.784   0.449  0.0299  0.0973 -0.3991
31078W        W47152  16.257   1.052   0.081 -0.0168 -0.0984 -0.0962
31079W        W47153  16.051   4.250  14.843  0.0096 -0.2671 -0.2005
31080W        W47154  12.749   9.928   5.522 -0.2653  0.1979 -0.3354
31081W        W47155   5.061   3.840   2.944 -0.1033  0.0932  0.1321
31082W        W47156   4.024  17.348  13.428  0.2039  0.0260 -0.0082
31083W        W47157  16.536  18.484  13.870 -0.0488  0.2256 -0.0903
31084W        W47158  12.645   3.752   3.654 -0.2360  0.0122 -0.0819
31085W        W47159   3.679   7.940  12.370  0.1447  0.0304  0.0449
31086W        W47160   1.601   3.345  11.647  0.0334 -0.0981  0.3341
31087W        W47161   2.882   9.917   4.372  0.0838  0.0621 -0.2223
31088W        W47162   8.620   3.084   4.360  0.0163 -0.1351  0.3987
31089W        W47163   2.487  10.416   3.719  0.0287  0.2711 -0.0275
31090W        W47164   2.672  10.935   3.010  0.1143  0.4472 -0.1893
31091W        W47165  14.149  17.519   3.544  0.0159  0.2588 -0.0330
31092W        W47166  10.313   8.959  11.733 -0.0110  0.0302 -0.3684
31093W        W47167  17.345   2.272   0.930 -0.1781  0.0522  0.0228
31094W        W47168   7.464   9.478  14.935  0.2224  0.1305  0.2228
31095W        W47169   7.666   2.056  14.621 -0.2141  0.2245  0.0267
31096W        W47170   4.206  11.582  15.376 -0.1512  0.0750 -0.1356
31097W        W47171  17.656   9.537  13.598 -0.2817  0.0327  0.1389
31098W        W47172   4.909   6.497  12.090  0.3118 -0.0353  0.2466
31099W        W47173   5.879   4.221   0.237  0.0495 -0.1260  0.0968
31100W        W47174   7.114  14.620   1.410 -0.1131  0.1097 -0.1920
31101W        W47175   8.188  10.357  15.567  0.0926  0.0735  0.1349
31102W        W47176  10.657  16.158  12.985  0.1085 -0.1092 -0.1271
31103W        W47177   0.564  10.941  14.528 -0.0641  0.0732  0.0487
31104W        W47178  16.341  18.144   5.087  0.1240  0.1222  0.1602
31105W        W47179  10.653   6.376   0.074  0.2217 -0.1952  0.2252
31106W        W47180   3.131   6.104  14.427  0.0415  0.1347  0.3091
31107W        W47181   5.070  10.014  16.015 -0.1993  0.2262 -0.0592
31108W        W47182  13.326   4.310   1.514 -0.0528 -0.0725  0.1874
31109W        W47183   0.433  14.719   4.410 -0.3040  0.4802  0.1625
31110W        W47184  12.416  16.105  10.542 -0.0630  0.3110 -0.0618
31111W        W47185   2.143   0.108   4.403  0.2452 -0.0215  0.0291
31112W        W47186  13.987  10.784  14.746 -0.0096  0.1686 -0.1140
31113W        W47187  11.953  11.152   4.668  0.1572  0.1257  0.3197
31114W        W47188   0.140   9.833   3.176  0.1239 -0.1408 -0.2032
31115W        W47189   7.875  12.342   1.832 -0.1377  0.1648 -0.1045
31116W        W47190  12.105   5.344  14.556  0.3147 -0.1244 -0.1345
31117W        W47191   9.624   4.466   2.320 -0.0126  0.0858 -0.2098
31118W        W47192  10.528  14.753   3.431 -0.1073  0.0378 -0.0795
31119W        W47193   0.311   3.853   1.473 -0.0968  0.1766 -0.0157
31120W        W47194   8.186   4.439  15.577  0.3087 -0.4195 -0.3083
31121W        W47195   7.642   3.876  14.615  0.1312 -0.1212 -0.1602
31122W        W47196   7.739  14.253  14.961  0.4862  0.3947 -0.0193
31123W        W47197  16.094  12.562  14.937 -0.0034 -0.1724 -0.1781
31124W        W47198  16.206  12.261  12.128 -0.1156 -0.0821 -0.2114
31125W        W47199  14.843   5.312  14.266  0.0413  0.0641  0.2961
31126W        W47200  11.335   8.195   9.977 -0.0252  0.0014 -0.0032
31127W        W47201  12.677  16.524   3.572  0.0540 -0.0402  0.1264
31128W        W47202   0.068  15.226   5.612 -0.2379 -0.0339 -0.0339
31129W        W47203   3.666  18.168  11.316  0.1663  0.1924  0.0770
31130W        W47204   4.328  17.832   4.609  0.0778 -0.1295  0.0842
31131W        W47205  18.106  14.926  11.405 -0.1996  0.0766  0.2253
31132W        W47206   1.749   8.122  11.742 -0.1886 -0.0967 -0.2670
31133W        W47207   8.489   4.290  13.194 -0.2885  0.4792  0.0118
31134W        W47208   9.376  17.198   1.574 -0.2350 -0.1465  0.2363
31135W        W47209   5.333   4.201   3.124  0.4563  0.1249 -0.1290
31136W        W47210   5.057  17.506  15.546  0.1279  0.5850 -0.2093
31137W        W47211  17.573  10.378   2.573 -0.0293 -0.0924 -0.1505
31138W        W47212  17.369   0.994   0.958 -0.3007 -0.2075  0.0491
31139W        W47213   6.005   3.887   4.993  0.1132  0.3721 -0.2282
31140W        W47214   6.591   0.389  12.167  0.3838  0.0107 -0.0233
31141W        W47215   7.912   7.272   4.420 -0.1447 -0.1088 -0.0428
31142W        W47216  12.392  18.547  14.862  0.4185  0.0301  0.0466
31143W        W47217   7.696  14.596  13.885 -0.0290 -0.0935 -0.4295
31144W        W47218   3.734   5.006  12.379 -0.0162 -0.0871  0.1058
31145W        W47219   4.444  11.826  13.896  0.1851 -0.1424 -0.1532
31146W        W47220  14.408  14.878   0.385 -0.1905  0.1301 -0.0090
31147W        W47221   9.183  11.515   4.326 -0.1375  0.2268 -0.0587
31148W        W47222   4.995  10.826  12.698  0.1650  0.2521  0.2250
31149W        W47223  17.692   0.426   2.431  0.0244  0.3384  0.2844
31150W        W47224  14.857  16.478  11.700 -0.0430 -0.0869  0.1230
31151W        W47225  11.115  11.947  12.237 -0.0543  0.0090  0.0339
31152W        W47226   5.366   9.826   3.129  0.0252 -0.2496 -0.1229
31153W        W47227   1.874   9.090   1.340 -0.2931 -0.1631  0.0485
31154W        W47228  10.516   7.267  14.788  0.1373  0.1546  0.0625
31155W        W47229  12.677  10.261  12.108 -0.0148 -0.0038 -0.0098
31156W        W47230   1.069  16.302   2.228 -0.2200 -0.0944 -0.0439
31157W        W47231  18.443  13.163   4.907  0.1117  0.0428  0.0019
31158W        W47232  12.569   6.289  11.840  0.3899  0.0016 -0.4483
31159W        W47233   2.384  14.628   2.052 -0.0155 -0.0818 -0.1182
31160W        W47234   7.072  13.787  15.588  0.1002  0.2697 -0.1529
31161W        W47235  10.713   9.808   2.662  0.0182 -0.3556 -0.0733
31162W        W47236  18.425   9.536  14.410 -0.0307 -0.0900  0.2045
31163W        W47237  17.651  12.845   3.910 -0.1538  0.0202  0.0886
31164W        W47238   0.059  16.340   4.115  0.0003  0.1802  0.0440
31165W        W47239   4.595   3.280  13.881 -0.0564 -0.1151  0.0171
31166W        W47240   9.705  16.013   0.444  0.4125  0.1434 -0.2187
31167W        W47241   7.874   8.470  10.070 -0.0608  0.2320 -0.0557
31168W        W47242  17.607   0.242  14.411 -0.1988 -0.3128 -0.4465
31169W        W47243   4.371   5.414   4.581 -0.0482  0.1148  0.1353
31170W        W47244  11.123   7.569  15.768 -0.1273  0.1367  0.0385
31171W        W47245   0.445   7.879   3.351  0.2399  0.0954 -0.1104
31172W        W47246   0.906  17.471  11.670  0.1894  0.0983  0.0969
31173W        W47247  11.742   9.703   3.616 -0.0395  0.3736  0.1737
31174W        W47248   8.217   4.274  11.503  0.1929  0.2192 -0.1019
31175W        W47249  14.946  16.726   0.622 -0.0194  0.0406 -0.0904
31176W        W47250  17.742   8.356  14.404  0.1593 -0.1224  0.0843
31177W        W47251  18.315   5.658  12.201 -0.2114  0.3236  0.0547
31178W        W47252   4.428  15.486   4.526  0.3218 -0.0523 -0.0117
31179W        W47253   4.285   6.407  14.416  0.2404 -0.2041 -0.1440
31180W        W47254   8.498   6.116  12.302 -0.3155  0.0037 -0.1213
31181W        W47255   2.752  15.905  11.166 -0.2928 -0.2955 -0.0251
31182W        W47256  15.075  15.379   0.335 -0.1577  0.0066 -0.1939
31183W        W47257  12.358  14.369  11.481 -0.0577  0.1508  0.1000
31184W        W47258  10.930  18.098  15.793 -0.0662  0.1830 -0.2019
31185W        W47259  12.921  17.062   1.425 -0.3503 -0.2444 -0.0501
31186W        W47260  13.552   3.504   4.381  0.2735 -0.1798 -0.1328
31187W        W47261  18.540   8.594  12.173 -0.0046  0.6609  0.0017
31188W        W47262   5.809   0.051   0.156 -0.3415  0.1339  0.1265
31189W        W47263   8.783  12.132   3.382  0.3196 -0.0545  0.0954
31190W        W47264   1.450   4.027   4.115  0.1442 -0.0992  0.0331
31191W        W47265  15.637   9.493  13.413 -0.2299  0.0118 -0.0833
31192W        W47266   6.969   3.664   4.363  0.1773  0.1400 -0.0454
31193W        W47267  18.063  10.752  13.074 -0.0145  0.0096  0.2899
31194W        W47268   3.571   7.574   3.085 -0.2681  0.1524 -0.4063
31195W        W47269   9.439   1.626  11.641  0.3079  0.0674  0.2912
31196W        W47270   0.556  15.238   4.534 -0.1583  0.0379 -0.1086
31197W        W47271   7.447   4.248   0.941  0.1528  0.2135  0.0406
31198W        W47272   1.451  11.391   3.369 -0.0900 -0.0798 -0.0322
31199W        W47273   2.011  11.094   2.514  0.1298  0.0958 -0.2059
31200W        W47274   3.892  11.795   0.312  0.2592  0.0395  0.0153
31201W        W47275  11.722  17.577   2.652  0.3614  0.3764  0.0122
31202W        W47276   7.677   1.343   4.407 -0.1315 -0.0760 -0.0628
31203W        W47277   1.548   1.813  11.951 -0.1746  0.3166 -0.0578
31204W        W47278   2.266  11.386  14.323  0.2224 -0.1832 -0.0399
31205W        W47279   8.250   0.417   4.306 -0.1009  0.0435  0.0257
31206W        W47280   2.573   1.350   4.393  0.0241  0.1365 -0.3010
31207W        W47281  16.128   8.982   4.410 -0.4141  0.0511  0.4269
31208W        W47282  15.557   8.230   5.822 -0.1593 -0.0023  0.2270
31209W        W47283  10.436   7.634   1.070 -0.0415 -0.0088  0.3670
31210W        W47284   4.395   4.439  13.996 -0.2220  0.1442 -0.5351
31211W        W47285   5.084   2.835   2.354 -0.1181  0.1896 -0.1680
31212W        W47286  18.411  17.678  13.730 -0.2987  0.1013  0.0930
31213W        W47287  18.145  10.541   2.411 -0.2074  0.1066 -0.2833
31214W        W47288  13.721  15.028   4.564 -0.1265  0.0341  0.1071
31215W        W47289   8.068   8.266   2.747  0.1847 -0.2072  0.1155
31216W        W47290  18.436   6.698   1.552  0.0258  0.0090  0.1248
31217W        W47291  15.691  12.896   4.521 -0.0571 -0.0787  0.1504
31218W        W47292   0.140   2.497   0.937 -0.0227 -0.0729 -0.0224
31219W        W47293   5.263   0.905  14.061 -0.0142  0.3963 -0.3433
31220W        W47294   9.296  18.270   1.516  0.0011  0.0280  0.1014
31221W        W47295   2.037  12.671   4.378  0.3070  0.1133 -0.1258
31222W        W47296   9.325   0.449  14.261  0.0787  0.3493  0.2689
31223W        W47297  13.644   1.224   0.704  0.0235 -0.1700 -0.0643
31224W        W47298  17.479  18.248  11.542 -0.3252  0.1067 -0.3997
31225W        W47299   8.282  15.320  15.943 -0.2181 -0.3552  0.0290
31226W        W47300  16.045   6.296   3.016 -0.1858  0.1228 -0.1802
31227W        W47301  10.112   7.062  14.969 -0.0915  0.0055  0.2250
31228W        W47302   5.333   1.819   2.292  0.4580 -0.1884  0.1160
31229W        W47303  15.778   2.756   2.650  0.3781  0.0418  0.0049
31230W        W47304   5.243  10.438   4.723  0.2567  0.0222 -0.0717
31231W        W47305   8.779   3.772   5.089  0.0358  0.1253  0.0021
31232W        W47306  18.223   8.466  15.844  0.4829  0.1475  0.1130
31233W        W47307   3.879  12.250   3.866  0.1220 -0.0874 -0.1414
31234W        W47308   0.768  10.649   4.149 -0.1393  0.0065 -0.1112
31235W        W47309  17.102   9.132  15.959  0.0695 -0.0546  0.0605
31236W        W47310  10.288  11.850  13.212  0.1847 -0.1525  0.1099
31237W        W47311   7.892   9.261  15.256 -0.0296  0.1729  0.1939
31238W        W47312  16.303   2.291  11.521  0.1599 -0.0537  0.1890
31239W        W47313   8.285   6.321   4.973 -0.4306  0.0274  0.1030
31240W        W47314   4.468   0.207  13.266  0.1644 -0.3171 -0.1816
31241W        W47315  11.805   3.825  10.802  0.1932 -0.2321 -0.0188
31242W        W47316   7.268  14.905  13.530  0.1279  0.0742 -0.1479
31243W        W47317   7.839   9.338   2.313 -0.2197  0.0761 -0.2072
31244W        W47318   3.728   6.375   4.997 -0.0103  0.3787  0.0716
31245W        W47319  15.897  16.884   1.759  0.0338  0.1255  0.0466
31246W        W47320   5.239   0.244  11.410 -0.1026  0.0943 -0.2607
31247W        W47321  17.224   7.478   2.121  0.0081 -0.0837  0.0245
31248W        W47322  17.772  10.509  12.593 -0.4773 -0.0612 -0.1012
31249W        W47323   9.177  10.451  13.573  0.1507  0.1586 -0.1629
31250W        W47324  17.184  11.974  13.086  0.1529  0.1966 -0.2294
31251W        W47325   1.328   0.915   2.610  0.1675 -0.0028  0.0790
31252W        W47326  15.971   3.783   5.387  0.1095  0.0007  0.0416
31253W        W47327  17.533  13.224  12.628 -0.1776  0.0311 -0.0318
31254W        W47328  17.734  12.370   3.976  0.1982  0.1566  0.1288
31255W        W47329  10.499  17.487  11.130  0.0096 -0.0171 -0.0615
31256W        W47330  18.114   8.759  13.793 -0.0015  0.2202  0.5777
31257W        W47331  13.936  13.049  13.955  0.0315  0.2794 -0.2450
31258W        W47332  15.010   4.034   1.462 -0.1271 -0.4424  0.0011
31259W        W47333   8.577   3.816   0.828  0.4031  0.0615  0.4150
31260W        W47334  11.402   6.009   0.889 -0.1268 -0.0045 -0.0624
31261W        W47335   2.379  15.586   4.228  0.0910 -0.1286  0.2523
31262W        W47336  12.587   9.101   5.241  0.0139 -0.3437 -0.0445
31263W        W47337  18.257   9.118  14.096 -0.0060  0.0322  0.1214
31264W        W47338  11.410  17.568   5.257  0.0954  0.2451 -0.0120
31265W        W47339  16.443  11.095   1.073 -0.2488  0.2280 -0.2375
31266W        W47340  13.943  11.440   2.891  0.0279 -0.2977  0.3707
31267W        W47341  12.411   4.163   3.364 -0.0823  0.0681  0.3363
31268W        W47342   0.127  11.964   0.479 -0.2381 -0.0232  0.2472
31269W        W47343   1.634  14.319   2.594  0.1756 -0.0080  0.0674
31270W        W47344   9.836  10.936   1.763 -0.0472 -0.2892  0.1375
31271W        W47345  11.044   6.363   4.991  0.2630  0.0235  0.1912
31272W        W47346   7.147  13.253  13.852 -0.3030 -0.1034 -0.1137
31273W        W47347  11.114  18.248  11.870 -0.0310  0.2066  0.2113
31274W        W47348   0.923   4.876   2.305  0.3496  0.0308 -0.3052
31275W        W47349  15.225   4.170  10.734  0.1101 -0.2259 -0.1913
31276W        W47350   5.265   1.651   5.912  0.0014  0.1756  0.3865
31277W        W47351  13.018   6.901   1.008 -0.1156  0.0233  0.1673
31278W        W47352   4.907  18.458  13.213  0.1267 -0.2160  0.0683
31279W        W47353   7.607   3.674   2.022  0.1334  0.0187  0.1336
31280W        W47354   7.910  12.465  11.067  0.0130 -0.0916  0.0917
31281W        W47355  15.888   8.045   1.699 -0.0464 -0.1169 -0.0205
31282W        W47356  16.646   5.960  13.943  0.3019  0.0741 -0.1555
31283W        W47357   3.144  16.534   5.364 -0.2437  0.1176  0.0090
31284W        W47358   1.550   3.230  14.056  0.0976  0.0798  0.2089
31285W        W47359  13.230   3.555  14.388 -0.1374 -0.0278  0.3604
31286W        W47360   3.767  17.328  11.855 -0.3277  0.2459  0.0045
31287W        W47361   3.287   1.058  15.437 -0.1414 -0.0726  0.1861
31288W        W47362   0.236   0.162   3.366 -0.1984  0.0303  0.1865
31289W        W47363  16.833  10.388   3.492 -0.2033 -0.1961  0.0125
31290W        W47364  16.634  14.721   1.781  0.0436  0.0770  0.0966
31291W        W47365  17.577  15.886   5.814 -0.1535 -0.1290 -0.1111
31292W        W47366  14.391  10.521  11.208 -0.3731  0.2419 -0.0135
31293W        W47367   9.926  11.108  13.994  0.0782  0.2656 -0.0113
31294W        W47368  14.401   8.243   2.741  0.1028 -0.1732 -0.3792
31295W        W47369   4.615   0.956  15.731  0.0436  0.2372  0.0305
31296W        W47370  17.691   4.982  11.705  0.0021 -0.0819  0.3091
31297W        W47371   6.314   3.511   4.812  0.0934  0.1700  0.0071
31298W        W47372   3.193   1.082   3.116  0.1561 -0.2028  0.2547
31299W        W47373   1.998  10.977  14.165  0.2117 -0.2720 -0.2447
31300W        W47374  15.542  15.104   2.457 -0.1401  0.3918 -0.2917
31301W        W47375   5.437  11.465   3.841 -0.1471 -0.0811 -0.0903
31302W        W47376   0.404   2.404  12.655 -0.2055 -0.1443 -0.1457
31303W        W47377   0.162  13.321  14.966 -0.0413 -0.0822 -0.2843
31304W        W47378  15.931  16.428  13.748  0.0315 -0.0954  0.1005
31305W        W47379   9.567   0.292  13.461  0.0504  0.1037  0.0592
31306W        W47380  16.216  17.908  13.870 -0.3704 -0.1251  0.1174
31307W        W47381   3.004  17.371  13.280  0.2325 -0.0534  0.0586
31308W        W47382  16.465   8.922   4.811  0.2775 -0.0371  0.2183
31309W        W47383   8.749   1.624  11.958 -0.0905  0.1350  0.1985
31310W        W47384   8.977   7.831   2.329  0.1128 -0.0408 -0.0515
31311W        W47385  16.533   0.764   2.942  0.2697  0.2145  0.0850
31312W        W47386   3.583  16.532  10.551  0.1560  0.1699 -0.0659
31313W        W47387   9.172  14.939   4.971  0.1363 -0.0736 -0.1342
31314W        W47388   8.156   2.875   4.179  0.2493  0.1452  0.0845
31315W        W47389  11.048   4.598  15.064 -0.0794 -0.0485 -0.0316
31316W        W47390  14.379   1.568  12.200  0.1040  0.0363  0.0691
31317W        W47391   3.265   4.366  11.480 -0.0254 -0.0860  0.0551
31318W        W47392   3.526   9.499   2.305 -0.1190 -0.0478  0.0254
31319W        W47393  15.292   3.974  12.852 -0.1725  0.0577 -0.1141
31320W        W47394  13.376  14.269  12.618 -0.0657  0.1261  0.1868
31321W        W47395  15.495  18.224  11.930 -0.1634 -0.3880  0.2939
31322W        W47396   2.976   5.568  12.558 -0.0078 -0.1105  0.1721
31323W        W47397   2.245   8.311   2.884  0.2772  0.0544 -0.0167
31324W        W47398  17.790  10.423  11.949  0.1816  0.1703  0.0454
31325W        W47399   8.921   6.498  12.616 -0.0837  0.3847 -0.0531
31326W        W47400  10.046  11.372  11.291 -0.1792 -0.0068 -0.0442
31327W        W47401   0.719  14.089  12.630 -0.0925 -0.0306  0.0311
31328W        W47402  16.598  16.712  13.191  0.1122 -0.0678 -0.0887
31329W        W47403  12.980  13.124   2.756  0.4989  0.2698 -0.0646
31330W        W47404  13.050   9.114  12.569 -0.0689 -0.0114 -0.1316
31331W        W47405  17.646  10.016   1.984  0.0743 -0.4576  0.0980
31332W        W47406   8.383   8.062  15.321  0.0593  0.4562  0.2738
31333W        W47407  15.567  17.143   5.619  0.1369 -0.1768  0.2772
31334W        W47408  16.376   5.258  12.866 -0.1520  0.1282  0.3250
31335W        W47409  13.106   6.641   2.493 -0.1433  0.1066 -0.0359
31336W        W47410  17.025   8.006   1.930  0.0727 -0.0332 -0.4380
31337W        W47411   8.108   9.305   0.559  0.0758 -0.1872  0.0446
31338W        W47412   5.242  12.982   0.246 -0.3071  0.1866 -0.2511
31339W        W47413   0.916   5.470  11.918  0.0247 -0.2512 -0.2352
31340W        W47414   3.933  11.442   3.718 -0.0258 -0.1800 -0.2179
31341W        W47415   0.463  17.618  16.002  0.2012 -0.1410  0.0729
31342W        W47416   3.382   7.019  14.122 -0.1436  0.0216  0.1172
31343W        W47417  17.861   7.863  14.365 -0.0460 -0.0277 -0.2612
31344W        W47418   2.553  12.646  15.961  0.3765 -0.0111 -0.0607
31345W        W47419   7.558  12.219  12.650  0.0238  0.1950 -0.1436
31346W        W47420  13.000  12.440   0.749  0.2782 -0.3565 -0.4075
31347W        W47421   8.204   4.630  11.986 -0.1590 -0.2395 -0.1638
31348W        W47422  11.543  13.684   0.291 -0.0222 -0.0668  0.1805
31349W        W47423  10.800   8.031  14.066 -0.0593  0.2113  0.2223
31350W        W47424   8.911   9.127   3.866 -0.1292  0.0474 -0.0886
31351W        W47425   4.246   9.051  13.026  0.1889 -0.4091 -0.0579
31352W        W47426  17.627   6.644   2.122  0.1186 -0.2192  0.3285
31353W        W47427   0.282  15.630   5.342  0.0189 -0.2960 -0.3074
31354W        W47428   2.779  17.214   4.017 -0.1362  0.3314  0.1217
31355W        W47429   9.054  14.754   3.680 -0.4949 -0.0933  0.2521
31356W        W47430  11.168  13.545   2.085 -0.0226 -0.1656  0.0449
31357W        W47431   7.790   8.792  13.174  0.0113  0.0206  0.3471
31358W        W47432   1.462  17.448  12.486 -0.0821 -0.0332  0.0674
31359W        W47433  11.127  10.808   3.627 -0.2444  0.2084 -0.0494
31360W        W47434  18.166   0.633   2.678 -0.2192  0.0735  0.2430
31361W        W47435  15.755   1.075  12.377 -0.2758 -0.1986  0.0382
31362W        W47436  10.632  15.604  11.934 -0.3710 -0.2753  0.0449
31363W        W47437  18.079   6.105   2.807 -0.1457  0.2642  0.0377
31364W        W47438  11.061   8.963   0.887 -0.0843  0.2375 -0.2435
31365W        W47439  16.462   5.062  12.181  0.1193  0.0195 -0.1731
31366W        W47440  10.814   3.946  12.290  0.0687 -0.3733  0.0155
31367W        W47441  14.162   8.551  11.575  0.0661 -0.1279  0.4859
31368W        W47442  14.729  14.946   3.371 -0.1792 -0.1778  0.1165
31369W        W47443   1.479  16.710  11.284 -0.2790 -0.3342 -0.2248
31370W        W47444   0.202  10.320   0.866 -0.1347 -0.1002 -0.0517
31371W        W47445   8.481  15.371  11.664 -0.1352  0.0214  0.2949
31372W        W47446   9.757   3.750  12.522  0.4071  0.2624 -0.2243
31373W        W47447   7.181  14.027   1.855  0.2243  0.2334  0.0691
31374W        W47448   1.983  10.878   4.400 -0.2283 -0.2661  0.1572
31375W        W47449   8.597   6.820   1.444 -0.1256 -0.2271 -0.0217
31376W        W47450  13.441   0.115   2.300  0.2963  0.5637 -0.0550
31377W        W47451   5.129   9.631  12.953 -0.3033  0.0036 -0.0014
31378W        W47452  14.589  15.312  15.412 -0.0660 -0.0890  0.0021
31379W        W47453  10.517   2.579   0.949 -0.0558  0.2250  0.1141
31380W        W47454   3.410  10.539  11.411  0.0330  0.1144  0.2351
31381W        W47455   6.813   9.820   1.708  0.0502  0.0455 -0.1438
31382W        W47456  12.674  11.471   3.294 -0.3204 -0.1074 -0.1551
31383W        W47457   3.437   4.954  12.804 -0.2127 -0.1047  0.2282
31384W        W47458  14.634   0.544  12.441 -0.0450 -0.0139  0.0960
31385W        W47459  11.744   9.157  15.926 -0.4201 -0.0455  0.0115
31386W        W47460   4.922  12.525  13.972 -0.0778  0.0586 -0.0221
31387W        W47461   6.719   1.720   2.151 -0.1440  0.2764 -0.1047
31388W        W47462  16.085   3.249  11.939 -0.1687  0.0559  0.1217
31389W        W47463  17.022  12.821  14.427 -0.0944 -0.1461  0.0287
31390W        W47464   2.225   2.556  15.904 -0.1355  0.4830  0.3642
31391W        W47465  10.001   8.887   5.061  0.2795 -0.1413 -0.2158
31392W        W47466  10.119   6.060  15.065 -0.0531  0.0675  0.3512
31393W        W47467   6.565   2.706   1.329 -0.2340 -0.1963  0.2071
31394W        W47468   2.304   9.664   0.860  0.1772  0.3539 -0.1238
31395W        W47469  17.253  13.296  14.399  0.3449  0.2541 -0.3628
31396W        W47470   7.469   2.226  15.549  0.2895  0.1656 -0.0406
31397W        W47471  10.879   9.558  15.425 -0.0869 -0.1427 -0.1664
31398W        W47472  14.184  12.838  15.399 -0.1790 -0.0157  0.0373
31399W        W47473   6.460  13.230   0.952 -0.5792  0.2346  0.3298
31400W        W47474  16.740  12.275   2.178 -0.1247 -0.3658  0.0851
31401W        W47475   9.640   1.911   4.764 -0.1722 -0.0691 -0.3007
31402W        W47476  18.333  12.564  11.770 -0.3600  0.0612  0.0965
31403W        W47477   5.521   3.333  15.824 -0.1737 -0.1610 -0.0218
31404W        W47478   3.991  14.653   4.801  0.5306  0.1761 -0.1036
31405W        W47479  11.308   3.958  13.686  0.0337 -0.2966  0.0237
31406W        W47480   2.639   7.982   2.984 -0.2903 -0.0347  0.1280
31407W        W47481   9.775   5.453  15.249 -0.5329  0.1434 -0.1175
31408W        W47482  10.478  18.412  14.623  0.3782 -0.0835  0.3291
31409W        W47483  13.120  13.024  15.549  0.0489 -0.2172 -0.0126
31410W        W47484   3.758  13.801   4.461 -0.5057 -0.3078  0.0849
31411W        W47485   1.444   2.083  14.835 -0.2797 -0.0117  0.1010
31412W        W47486   7.235   1.003   2.762  0.0894  0.4127 -0.0722
31413W        W47487   0.176   2.631   1.950  0.2288 -0.0028 -0.0167
31414W        W47488  11.925  15.655   3.582 -0.1437 -0.0143 -0.2221
31415W        W47489   1.134  16.003  15.683  0.1004  0.2016  0.2290
31416W        W47490   9.296   5.854   0.690 -0.0490  0.0226 -0.0501
31417W        W47491   7.691   7.085   5.105 -0.2703  0.1778 -0.1497
31418W        W47492  17.111  14.289   0.552  0.1081  0.0389 -0.1077
31419W        W47493  11.655   9.259  11.725 -0.0721 -0.3041  0.0593
31420W        W47494  13.236   2.731   1.226  0.1050 -0.1228 -0.0776
31421W        W47495   6.611   3.191  15.416  0.2353 -0.1423  0.4943
31422W        W47496  14.447  10.879  14.881  0.2049  0.1977 -0.2034
31423W        W47497   3.659  13.105  11.589  0.1348  0.1056  0.0615
31424W        W47498   5.994  17.746   2.652 -0.0379 -0.3113  0.1318
31425W        W47499  16.790   4.582  15.639 -0.2045 -0.0383 -0.1149
31426W        W47500   1.743  13.443  14.014 -0.1508 -0.3022  0.0733
31427W        W47501   8.869  12.551  11.189 -0.2030  0.3790  0.0789
31428W        W47502  16.411   0.924  14.738  0.0633 -0.3145 -0.1981
31429W        W47503   0.766   2.757   3.398 -0.0898 -0.3955  0.1600
31430W        W47504   4.573   5.549   3.254  0.1361  0.0120  0.1622
31431W        W47505  18.070   5.207   2.534  0.0426  0.0141  0.0862
31432W        W47506  17.406   2.225   1.457 -0.1577  0.1452 -0.2145
31433W        W47507   7.278   8.593  15.150 -0.1305 -0.0462 -0.3890
31434W        W47508  12.045  12.685  12.304  0.0168 -0.1260 -0.1604
31435W        W47509  10.679   9.842   5.608  0.1368 -0.1024 -0.0962
31436W        W47510   0.951   5.261   4.518 -0.0917  0.1833  0.1442
31437W        W47511   8.481  15.281   0.452  0.1079 -0.0194  0.3024
31438W        W47512   6.584  13.205  11.919 -0.4663  0.0792  0.0144
31439W        W47513  12.776  15.377  12.378 -0.0112 -0.0255  0.1093
31440W        W47514  16.642   7.179  15.118  0.0394 -0.1892 -0.0547
31441W        W47515  13.216   0.679   4.573  0.3254  0.0908 -0.1668
31442W        W47516   7.759  16.683   3.839 -0.3129 -0.1325 -0.3198
31443W        W47517   5.901  14.569   1.904  0.0642 -0.2498 -0.0997
31444W        W47518   9.861   1.110   1.604 -0.4500  0.0804  0.1465
31445W        W47519  18.342  16.224  15.068  0.2948 -0.0858  0.0761
31446W        W47520   2.171  13.474   3.539  0.0705  0.0636  0.3508
31447W        W47521   4.808   1.718   5.164  0.0621 -0.2647 -0.0090
31448W        W47522  10.083   0.562   4.402  0.5825  0.0578 -0.0117
31449W        W47523   3.469   5.847  14.747  0.0812 -0.1490  0.0576
31450W        W47524   7.101   4.194   0.242  0.0345  0.0070 -0.0549
31451W        W47525   9.710  12.254   4.650  0.0550  0.0914 -0.1033
31452W        W47526   6.244   1.727  11.730 -0.1346 -0.2226  0.0144
31453W        W47527   6.055   6.268  13.075 -0.1281 -0.0249  0.0784
31454W        W47528   1.558   3.476   4.298  0.0621  0.1265 -0.0995
31455W        W47529  10.767  11.391   1.754 -0.3350  0.1344 -0.0284
31456W        W47530   6.518   3.825   1.673 -0.1681  0.2842  0.0174
31457W        W47531  11.276   5.783  15.985  0.0714  0.0272 -0.0756
31458W        W47532   3.639  13.666  11.555 -0.1667 -0.4941 -0.0701
31459W        W47533   2.159   0.221  13.882  0.3270  0.0698 -0.0337
31460W        W47534   8.135  15.544  13.920 -0.3688 -0.1404  0.1808
31461W        W47535   0.458   6.490   4.027 -0.1684  0.3311 -0.0072
31462W        W47536   6.528  17.237   2.062 -0.0234  0.2710 -0.2110
31463W        W47537  17.257  12.357   5.796 -0.0876 -0.2166 -0.0024
31464W        W47538   5.654   6.553   3.658 -0.1341  0.0204  0.1932
31465W        W47539  17.278   6.673   3.288  0.1817  0.0751 -0.0783
31466W        W47540   9.858   6.603  15.118 -0.0105  0.4612  0.0833
31467W        W47541   4.444   5.959  14.166  0.4530  0.2631 -0.0618
31468W        W47542  17.316  16.893   5.293 -0.1061 -0.0391 -0.1838
31469W        W47543  13.125   1.688  13.218 -0.0196  0.3106  0.1187
31470W        W47544   5.547   3.950   1.864  0.1223 -0.5288  0.2696
31471W        W47545   2.213   5.547  11.481  0.0318 -0.0793 -0.1517
31472W        W47546   6.593   9.352   3.799 -0.0311  0.1000  0.2329
31473W        W47547   8.572   9.566  12.363 -0.0437 -0.0533  0.0445
31474W        W47548   0.171  12.426   0.615 -0.0443 -0.0116 -0.0903
31475W        W47549  10.339  15.077   2.613 -0.0221  0.2182  0.0661
31476W        W47550   3.959   8.072   4.788  0.0983  0.4235  0.0259
31477W        W47551  15.183   6.970  12.303  0.3437 -0.1888  0.2619
31478W        W47552   1.518  12.783  14.282  0.0398 -0.0597 -0.1460
31479W        W47553  14.467  14.930   4.485  0.4859 -0.0570 -0.0530
31480W        W47554   9.430  16.417  11.476 -0.0827  0.3439 -0.0728
31481W        W47555   7.216  11.960  12.203 -0.0073  0.2487  0.0607
31482W        W47556  17.009   2.715  11.656  0.1147 -0.2352  0.1754
31483W        W47557  17.070   2.731   0.037 -0.1406 -0.2519 -0.1708
31484W        W47558   4.528  11.564  11.390 -0.1421 -0.0822 -0.1528
31485W        W47559   4.263  18.364  12.619  0.2071 -0.2495  0.1192
31486W        W47560  10.468   0.896   4.527  0.3523  0.0804  0.0417
31487W        W47561  13.117   9.040  14.115  0.2468  0.0342 -0.2332
31488W        W47562  13.422  15.842  11.679  0.0031  0.1951  0.0372
31489W        W47563  18.110   4.361   4.554  0.1850  0.0425  0.4077
31490W        W47564  11.751   4.656  14.302  0.1009  0.1281 -0.1208
31491W        W47565   7.063  17.446   5.280 -0.0226 -0.0133 -0.1430
31492W        W47566   8.113   4.049   3.297  0.0720  0.3171  0.0686
31493W        W47567   1.562   2.968   4.535 -0.2290 -0.3127 -0.2691
31494W        W47568   4.742  14.662   0.384  0.2728  0.0974  0.1088
31495W        W47569  13.855  12.049   4.009 -0.2525  0.2196  0.2385
31496W        W47570  13.467   3.203   1.356  0.0342 -0.1036  0.0915
31497W        W47571   2.497  15.786  15.657 -0.1384 -0.0153 -0.0890
31498W        W47572   9.579  15.125   1.416 -0.0582 -0.1622  0.2605
31499W        W47573  13.074   6.327  15.625 -0.2191 -0.1935 -0.4629
31500W        W47574   4.637   0.989  15.201  0.1034  0.3340  0.1389
31501W        W47575   3.768  18.480   4.815  0.0371 -0.2424  0.2365
31502W        W47576   6.097   0.516  14.400 -0.1346  0.0934 -0.0898
31503W        W47577  11.183  15.928  10.455  0.0763 -0.3261  0.1210
31504W        W47578   5.508   0.519   4.917 -0.2190  0.0267  0.1778
31505W        W47579   6.326  16.281   5.889 -0.0432 -0.0759 -0.1989
31506W        W47580  17.870   8.132   0.995 -0.0350 -0.1630 -0.0625
31507W        W47581   6.601  15.378  13.902 -0.2132  0.1128  0.0414
31508W        W47582   6.046  13.684   0.181  0.3011 -0.0382 -0.0033
31509W        W47583   8.704  15.445   4.754 -0.4125 -0.2613 -0.4358
31510W        W47584   3.462   1.229   3.588  0.3358  0.1527  0.2076
31511W        W47585  18.063   6.470   0.899 -0.0141  0.0613  0.0703
31512W        W47586  15.150   1.030   2.233 -0.4377 -0.4794  0.1789
31513W        W47587  12.969  11.965  13.292 -0.0305  0.0253 -0.1177
31514W        W47588  15.427  15.525   4.510  0.2673 -0.2358 -0.0290
31515W        W47589  14.767  12.615   3.251 -0.2340  0.0445  0.0173
31516W        W47590   8.425   9.134   5.202  0.1535  0.1259 -0.0283
31517W        W47591   9.173  17.228  15.331 -0.2723 -0.1061  0.0289
31518W        W47592   9.377  12.740   4.730 -0.0628  0.0463 -0.1966
31519W        W47593   3.836   3.844   3.884  0.1616 -0.0108 -0.0118
31520W        W47594  12.704   6.954  13.463 -0.3971  0.1157  0.2033
31521W        W47595  15.439  18.388   4.977  0.0023 -0.2380 -0.0452
31522W        W47596   2.170  10.394   4.568  0.0134  0.0005 -0.1255
31523W        W47597  10.865   8.408   1.153 -0.0323 -0.2135 -0.1295
31524W        W47598   6.704  13.456   3.473  0.0631  0.0273  0.2815
31525W        W47599  16.136  14.457   1.494  0.0376 -0.0891 -0.3141
31526W        W47600  12.488  15.657  10.778  0.1469  0.0953 -0.0996
31527W        W47601   0.056   3.481  12.012  0.0092  0.0584 -0.0353
31528W        W47602  12.831  17.342   2.568 -0.1194 -0.0965 -0.0591
31529W        W47603   0.125   4.260  14.008  0.0236 -0.0837 -0.2763
31530W        W47604   8.322   9.060   3.071 -0.0400 -0.0428  0.5271
31531W        W47605   1.344  14.253   2.152 -0.0684 -0.1027  0.0289
31532W        W47606   2.706  13.540  13.588  0.2009 -0.0734 -0.1102
31533W        W47607   8.991   1.616  15.046  0.0493 -0.4503 -0.0464
31534W        W47608  10.954   8.492  10.847 -0.1112  0.1604 -0.1937
31535W        W47609   1.345   3.651  13.891 -0.1897  0.1376  0.1297
31536W        W47610   8.706  12.481  13.932 -0.2617  0.2180 -0.0358
31537W        W47611  12.810  16.049  11.780 -0.1237  0.0362  0.1514
31538W        W47612  10.655  17.119  14.443  0.1173 -0.0068 -0.0745
31539W        W47613   0.370   5.044   1.304 -0.2360  0.0175 -0.1074
31540W        W47614   2.829  13.265  11.964 -0.0958 -0.2578 -0.2734
31541W        W47615  13.055  14.963   0.680  0.0692 -0.1848  0.1717
31542W        W47616   8.007   2.825   1.450 -0.1362 -0.1815 -0.1210
31543W        W47617   5.159   1.296   1.681  0.5023  0.3207 -0.3980
31544W        W47618   3.547  17.115   4.452  0.0095 -0.0595  0.0292
31545W        W47619   6.842   3.001   3.591 -0.0284 -0.1158  0.2379
31546W        W47620   0.910   8.273  14.569 -0.0927 -0.2107  0.0248
31547W        W47621  12.930  10.641  15.422  0.1382  0.1072 -0.0070
31548W        W47622   2.947   2.871   1.684 -0.2624  0.0509  0.2719
31549W        W47623  13.651  17.857   1.813 -0.2544  0.1439 -0.2426
31550W        W47624   6.842  10.247   1.995 -0.1748  0.1788  0.2535
31551W        W47625   2.247  18.402  15.590 -0.0315  0.0197  0.0701
31552W        W47626   6.271   8.573  13.624  0.1647 -0.0317 -0.0028
31553W        W47627  17.273  13.033   1.209 -0.2850 -0.0638  0.2262
31554W        W47628  17.891  12.332   2.885 -0.0015 -0.0421 -0.0865
31555W        W47629   9.163   7.278  12.068 -0.1383  0.2709  0.0758
31556W        W47630  10.580   6.844   2.580 -0.1311 -0.1087  0.1222
31557W        W47631  18.163   3.961   4.944 -0.3558  0.0226 -0.2585
31558W        W47632  11.592  16.363  13.307 -0.1451  0.0493 -0.2456
31559W        W47633   5.569  11.564   0.473 -0.3315  0.4018  0.1205
31560W        W47634  15.158  15.453  14.641 -0.0103 -0.0501 -0.0902
31561W        W47635  13.173  15.592   1.952 -0.0435 -0.0035 -0.0470
31562W        W47636   9.568  16.426   3.956 -0.0409 -0.2398  0.1552
31563W        W47637  14.228  14.131   4.796  0.1433  0.3401  0.2005
31564W        W47638  12.759  16.588  11.768 -0.0225 -0.2979 -0.0018
31565W        W47639   4.644   8.226   0.079  0.3658  0.2522 -0.1162
31566W        W47640   4.811   0.185   0.113  0.1987 -0.0222 -0.0243
31567W        W47641   9.142   9.177   4.446  0.0717  0.0572 -0.0617
31568W        W47642   1.192  12.568  11.591  0.0472  0.2078  0.2510
31569W        W47643   8.008   6.340  11.588 -0.2661  0.0481 -0.1164
31570W        W47644  16.507   1.174   3.344 -0.0718 -0.0708  0.0381
31571W        W47645  10.030  11.841   2.223  0.4883  0.0354 -0.2916
31572W        W47646  10.693   4.861   5.744  0.0312  0.3251  0.1088
31573W        W47647   3.364   6.900   4.306  0.0520  0.2115  0.1100
31574W        W47648   4.275   2.387  11.918  0.0914  0.3678  0.1930
31575W        W47649   0.380   4.005  11.892  0.1992  0.1045  0.1577
31576W        W47650  15.689   6.076  14.695 -0.2275  0.1955  0.0679
31577W        W47651   1.055  15.156   0.785  0.0018 -0.0516  0.0118
31578W        W47652   9.811   0.235   4.117  0.0843 -0.0245 -0.2101
31579W        W47653   9.147  10.511   4.647 -0.2690  0.0351  0.0307
31580W        W47654  14.965   0.998   3.951 -0.2047 -0.0395  0.3391
31581W        W47655  13.972  17.718  13.942 -0.4072 -0.1459 -0.2995
31582W        W47656   6.403  18.545   1.991 -0.0535 -0.0274  0.1518
31583W        W47657  11.660   8.122  13.951  0.3283 -0.0996  0.6733
31584W        W47658   5.587   8.215  14.289  0.0346 -0.1544  0.0076
31585W        W47659  15.927   0.942   4.572 -0.1531 -0.2686  0.0356
31586W        W47660  15.423  11.908   5.531 -0.2328 -0.0678  0.4323
31587W        W47661   7.792   8.418   5.142  0.2177  0.1223  0.0518
31588W        W47662  14.772  10.736  10.512  0.0551  0.2190 -0.1967
31589W        W47663  16.232  17.642  11.385 -0.4892  0.1433 -0.0291
31590W        W47664   3.809   4.548  12.814 -0.1620 -0.1181 -0.0328
31591W        W47665   6.776   2.934   3.077 -0.1183  0.2013 -0.0755
31592W        W47666  13.562   6.327   2.557 -0.3022  0.1163  0.0961
31593W        W47667  11.793  16.623   2.405  0.2216  0.2158  0.0927
31594W        W47668   9.229  10.015  13.944  0.1413  0.2196 -0.3861
31595W        W47669   2.756   4.735   0.990 -0.2303 -0.0657 -0.2232
31596W        W47670   8.909  14.138   1.574  0.0426  0.0678  0.2451
31597W        W47671  10.279   0.717  10.975 -0.0093 -0.2252  0.3259
31598W        W47672  18.333   0.514  14.883  0.2808 -0.0977  0.0906
31599W        W47673  12.592  10.412   4.169  0.0110 -0.2838  0.1727
31600W        W47674   4.941  11.753  12.657  0.0663 -0.0591  0.5118
31601W        W47675   3.060   1.811   0.956 -0.5997 -0.0313 -0.0019
31602W        W47676   9.211  14.019  11.852 -0.0526  0.1695 -0.1362
31603W        W47677   1.061   4.854   1.805  0.0793  0.0002  0.0712
31604W        W47678  15.622   1.934   4.614  0.0424  0.0702 -0.0580
31605W        W47679  15.137   7.607   4.749  0.1115  0.2329 -0.0481
31606W        W47680  12.273  15.052  13.945  0.1194  0.1426  0.3639
31607W        W47681   3.368   2.884   0.811 -0.0600  0.2072  0.3958
31608W        W47682   1.851  12.834   1.405 -0.2770 -0.2306  0.0850
31609W        W47683  12.812   9.748   3.862 -0.1040  0.1277  0.1248
31610W        W47684   5.293   3.279  14.438 -0.1507  0.2364  0.0485
31611W        W47685  13.711   5.272   3.284 -0.1308 -0.0262  0.0148
31612W        W47686   7.390   7.068   2.789 -0.3217 -0.3604 -0.1875
31613W        W47687   2.935  14.748  12.198  0.4052  0.1943  0.1773
31614W        W47688   8.622   7.190  12.064 -0.0799 -0.1751  0.1887
31615W        W47689  15.703  18.055  13.756 -0.2201 -0.0469 -0.1224
31616W        W47690  15.232  11.141  11.244  0.0185 -0.1504 -0.0133
31617W        W47691   2.765  10.392   4.587 -0.3649 -0.1692  0.1194
31618W        W47692  16.268   4.738   4.916 -0.0236 -0.0503  0.0321
31619W        W47693   4.822   2.988   2.956 -0.0287  0.1068  0.3414
31620W        W47694  18.054  16.378  15.691  0.0368  0.1065  0.1773
31621W        W47695   8.328   0.849   4.024 -0.3928  0.2809 -0.1991
31622W        W47696  17.079  10.216   2.446  0.0527 -0.1495 -0.1919
31623W        W47697  14.287   8.499  15.223 -0.3181 -0.1159  0.4248
31624W        W47698  17.744   6.596  14.326  0.0025 -0.0281  0.1551
31625W        W47699   5.896  15.435   4.803 -0.0691 -0.1862 -0.5613
31626W        W47700  17.138  17.876  10.823  0.1039 -0.1971 -0.2476
31627W        W47701   5.197  15.746   4.007  0.0705 -0.2207  0.3493
31628W        W47702   3.079   0.583  14.088  0.1313  0.0534 -0.1466
31629W        W47703   8.461   0.738  11.374  0.0841  0.0321  0.3629
31630W        W47704  12.554   5.740  12.637 -0.0508  0.1880 -0.0347
31631W        W47705   9.128   3.946   0.850  0.2381 -0.0531 -0.0328
31632W        W47706  15.981   9.438   1.016  0.1566 -0.0393  0.1897
31633W        W47707  17.125   1.278  15.376 -0.2342 -0.0910  0.0261
31634W        W47708   8.035   2.664   6.199 -0.1369 -0.1172 -0.0052
31635W        W47709   0.929   2.227   1.377 -0.0167  0.0133 -0.1052
31636W        W47710  15.134   6.376  15.556 -0.3158  0.0554 -0.1487
31637W        W47711   0.126  16.906  11.647  0.0865  0.0210 -0.2236
31638W        W47712   2.025   4.678  14.543  0.0372  0.1824 -0.0679
31639W        W47713   6.451  15.424   3.382  0.4964 -0.1876  0.0956
31640W        W47714   7.300  11.714  13.502  0.0727 -0.1812  0.0441
31641W        W47715  15.806  15.245  15.249 -0.0585  0.2446  0.3953
31642W        W47716  13.510   4.798   3.341 -0.0538  0.1222 -0.2050
31643W        W47717   4.979   3.941   0.399 -0.1650 -0.0609  0.3135
31644W        W47718  17.474   0.601  14.745  0.1075  0.0554  0.1811
31645W        W47719  14.016   4.936   4.896  0.1473  0.4042  0.1032
31646W        W47720   3.882  15.362   1.188  0.0535 -0.1073  0.1148
31647W        W47721  10.920   0.594   4.681  0.0832  0.3740  0.1094
31648W        W47722   6.566   7.299   2.118 -0.1101  0.1288 -0.1165
31649W        W47723   9.395   6.353   1.740 -0.2547 -0.2067  0.1081
31650W        W47724   7.698   2.634  15.354 -0.0187 -0.3440  0.1319
31651W        W47725   0.520   1.016   4.795  0.0320  0.1074 -0.0000
31652W        W47726   0.693   2.489   4.402 -0.0030  0.0409  0.0455
31653W        W47727  16.427   1.669   3.637 -0.3151  0.2461  0.2471
31654W        W47728   6.997   4.930   1.397  0.1134  0.4162  0.0991
31655W        W47729   3.177  15.414   3.495  0.3547 -0.0256  0.0674
31656W        W47730  17.710  16.530   2.240  0.1631  0.2505  0.1066
31657W        W47731  13.837  16.364   0.722  0.0277 -0.0668 -0.1700
31658W        W47732   4.801   5.285   5.520 -0.1514 -0.0425 -0.0724
31659W        W47733  14.114  15.416  13.665  0.2727 -0.0495  0.0968
31660W        W47734  18.447   4.136  14.776 -0.1503  0.1272  0.0855
31661W        W47735  14.294  12.435  12.671 -0.1968 -0.1713 -0.0708
31662W        W47736  17.385  12.512   1.293 -0.0387  0.1748 -0.0708
31663W        W47737   8.457  15.059  13.836 -0.2749  0.2735 -0.1222
31664W        W47738  10.101  18.418  14.194  0.0405 -0.1433 -0.1027
31665W        W47739   0.987   2.093   4.628 -0.0931 -0.1710  0.3024
31666W        W47740   4.973   8.529  12.416 -0.2314 -0.1395 -0.0728
31667W        W47741  13.738   1.518   4.407 -0.0976 -0.1993 -0.2885
31668W        W47742   8.396   3.000   3.318 -0.1882 -0.0151  0.0143
31669W        W47743  17.309  15.059   5.141 -0.2678  0.3831  0.3091
31670W        W47744   6.848   1.331   1.882 -0.0775  0.0007 -0.0422
31671W        W47745  18.084   2.599   0.435 -0.1201 -0.1072 -0.4121
31672W        W47746   3.478  16.762   2.016  0.0776 -0.3200 -0.0583
31673W        W47747   6.258  15.505   2.412 -0.0366 -0.2684 -0.1922
31674W        W47748  13.752   3.671  13.960 -0.2100 -0.0082 -0.1120
31675W        W47749   1.130   5.847   3.711 -0.0647  0.1071 -0.3464
31676W        W47750  14.614   3.660  12.847  0.2238  0.2480 -0.0452
31677W        W47751   8.708  16.841  11.073 -0.0827 -0.0879  0.1535
31678W        W47752  12.751   4.027  11.167  0.3554  0.0568  0.0328
31679W        W47753   1.819  13.320   6.029 -0.2126  0.0870  0.2365
31680W        W47754  14.079  16.219  15.686  0.0209  0.0525 -0.0637
31681W        W47755   9.411   2.635  14.284 -0.1280  0.0663 -0.1750
31682W        W47756   0.659   6.907  12.344  0.0053  0.2931 -0.1911
31683W        W47757  10.606  16.274  15.147 -0.0842 -0.3589 -0.0018
31684W        W47758   3.371   8.161  15.613 -0.1945  0.0272  0.1604
31685W        W47759  12.660  11.518  10.352  0.0215 -0.2665 -0.2801
31686W        W47760   7.582  15.880  15.683 -0.1863 -0.0917  0.0533
31687W        W47761   4.573  14.663  12.882 -0.1876  0.0515  0.4711
31688W        W47762   3.391   7.267  15.792 -0.3211 -0.2737 -0.2728
31689W        W47763  10.662   7.638   1.782 -0.1110 -0.1141 -0.2175
31690W        W47764   8.113   3.277  14.022  0.0771  0.1051 -0.1330
31691W        W47765   8.013  15.479  13.415 -0.2105  0.1389  0.0249
31692W        W47766  15.891  17.568   3.928 -0.1046  0.1049 -0.0736
31693W        W47767  10.365   9.507  13.498  0.1396 -0.2490 -0.0905
31694W        W47768   9.612   7.623   1.949 -0.0678 -0.0347  0.0210
31695W        W47769   3.708  10.648  15.481  0.1107  0.2036 -0.0452
31696W        W47770   6.303   3.523  14.189 -0.0135 -0.0020 -0.2088
31697W        W47771   9.667   9.256  11.635  0.0246 -0.2552  0.2060
31698W        W47772   5.159  17.397   5.347 -0.1142 -0.3935 -0.1158
31699W        W47773   1.669   6.694   2.275 -0.0229  0.1799 -0.0628
31700W        W47774  16.502  12.801   0.976 -0.4217 -0.2621  0.0516
31701W        W47775  16.841  11.535  12.034 -0.1294 -0.0811  0.2876
31702W        W47776  13.642   4.845  11.679 -0.0136  0.1749  0.1285
31703W        W47777   9.236   9.088  14.041 -0.0490  0.0588 -0.0016
31704W        W47778  15.848  15.535  12.059 -0.0549 -0.2740 -0.0198
31705W        W47779  15.108   8.829   2.614 -0.2165 -0.2146 -0.2143
31706W        W47780   4.706   1.983   0.729 -0.3552  0.0204 -0.2684
31707W        W47781  14.187   9.089   3.784 -0.1409  0.3429  0.0844
31708W        W47782   3.425   8.345   2.636  0.3308  0.2529  0.1831
31709W        W47783  18.527   5.569   5.566  0.1167 -0.2368  0.2839
31710W        W47784   9.850   4.143  15.124 -0.0439 -0.4802 -0.0806
31711W        W47785  12.989  12.980  12.838 -0.0747 -0.0130  0.0338
31712W        W47786  10.552  14.170  15.498  0.3088 -0.1790  0.1757
31713W        W47787  16.283   1.579   4.636  0.1203  0.1891 -0.2962
31714W        W47788   8.847  16.738   4.875 -0.3097  0.1497  0.1032
31715W        W47789   0.196  15.779   4.366 -0.2767  0.0351  0.1874
31716W        W47790  10.610   0.496  15.842 -0.1623 -0.0375 -0.3077
31717W        W47791   5.612   8.385   4.057 -0.0656 -0.1504  0.2623
31718W        W47792   5.530  13.961   1.946  0.1064  0.2665  0.2071
31719W        W47793  12.202   3.267  15.766 -0.0606 -0.1643 -0.0199
31720W        W47794   3.161   1.317   2.537  0.2032 -0.1415  0.2048
31721W        W47795  18.143   2.065   5.344  0.1148  0.1560  0.1888
31722W        W47796  14.270  13.976   5.255 -0.0450  0.0305 -0.1793
31723W        W47797   6.952   8.075   1.152  0.1327  0.1923  0.2286
31724W        W47798  12.487   9.233   0.444  0.2714  0.2284 -0.0255
31725W        W47799   3.530   7.129   3.769  0.0668 -0.4213  0.2896
31726W        W47800   1.857  17.715  13.045 -0.0855  0.1965 -0.1066
31727W        W47801  11.722   6.699   1.193 -0.0319  0.0070 -0.2841
31728W        W47802  10.846  11.576   2.870  0.4745  0.2105 -0.4672
31729W        W47803  18.360   2.153   1.730 -0.0218 -0.3281 -0.0807
31730W        W47804   0.775  15.787   4.376 -0.1741  0.2491  0.0787
31731W        W47805   1.282   9.986  11.627  0.2668  0.0257 -0.1594
31732W        W47806  16.100   9.255   4.859  0.0052 -0.3244 -0.3217
31733W        W47807  12.604  10.965   9.799 -0.1530 -0.0569  0.0706
31734W        W47808   4.611  12.397  15.145  0.0288  0.1617  0.1132
31735W        W47809   5.086   2.451   2.754  0.4981  0.3153  0.2018
31736W        W47810   3.701  10.738  13.808  0.2353 -0.0030 -0.1980
31737W        W47811  17.727  15.844   3.716  0.0288 -0.2781  0.1802
31738W        W47812   5.038  10.753  15.132  0.0946 -0.0183 -0.0125
31739W        W47813  10.602  16.509  13.352  0.1962  0.2827  0.1096
31740W        W47814   5.120  13.472   1.441 -0.2144  0.2368  0.0872
31741W        W47815  15.702   7.784   5.540 -0.2362  0.2080  0.2133
31742W        W47816  11.959  13.069   6.008 -0.1441 -0.0200  0.0051
31743W        W47817  11.589   4.448   3.093 -0.1267 -0.0487 -0.0192
31744W        W47818   1.713   9.783   6.539  0.0798 -0.0407  0.0585
31745W        W47819   6.338  15.930   4.576 -0.3429  0.0798 -0.0882
31746W        W47820  13.003  18.220  14.384  0.1213 -0.0045 -0.3783
31747W        W47821   6.775  10.543   5.240 -0.1464  0.3451 -0.2777
31748W        W47822  16.897  14.215  13.492  0.3235  0.0352 -0.0252
31749W        W47823   0.552  12.950   3.800 -0.0310 -0.1039 -0.0082
31750W        W47824   5.208   0.411   1.162  0.3541 -0.0677  0.0995
31751W        W47825  11.364   7.747   3.125 -0.1617 -0.1541  0.1030
31752W        W47826   2.329  16.570   3.806  0.0942  0.0250  0.2844
31753W        W47827  13.969   2.086   5.152 -0.0806 -0.3096  0.3299
31754W        W47828  10.692  11.727  15.007 -0.4865  0.0404  0.2791
31755W        W47829   6.972   4.785  12.018 -0.0678 -0.3105 -0.1923
31756W        W47830   3.010  16.437   4.471  0.0371 -0.1775 -0.2409
31757W        W47831  17.312   9.360  12.706  0.0566  0.0144  0.2222
31758W        W47832  11.555   8.902   0.591 -0.0786  0.2288  0.1491
31759W        W47833   3.370   7.081  13.160  0.2394 -0.3726  0.1003
31760W        W47834   1.859  17.539   5.381 -0.3054 -0.0810  0.1005
31761W        W47835   5.711  17.178   1.909 -0.0955  0.1632 -0.1047
31762W        W47836   8.869   4.471   2.266 -0.1344 -0.2671 -0.1028
31763W        W47837  10.078  16.760  11.020  0.1043  0.2343 -0.1886
31764W        W47838   2.398   1.602   5.111  0.1520 -0.1380 -0.1201
31765W        W47839   7.065   0.328  11.571  0.1911  0.1299  0.2800
31766W        W47840   5.010  10.412  12.148  0.2187  0.0854  0.0212
31767W        W47841  10.686   4.337   4.447  0.0295  0.1358  0.0473
31768W        W47842  10.107   0.704   5.259  0.1782  0.2547  0.1774
31769W        W47843  14.602  11.182   3.306  0.0834 -0.0935 -0.0111
31770W        W47844   4.598  14.008  12.329 -0.3911 -0.1021 -0.0510
31771W        W47845  15.203   3.809  14.518  0.1890  0.1352 -0.1932
31772W        W47846   7.058  11.188  13.347 -0.1406 -0.3024 -0.1237
31773W        W47847   3.903   2.620  12.872  0.1199  0.0752  0.0147
31774W        W47848   8.051  12.150  12.365 -0.1379  0.2651  0.0183
31775W        W47849  15.609   4.209   3.358 -0.1507 -0.0579 -0.3177
31776W        W47850  16.112   7.309  15.258 -0.1261  0.1222 -0.1899
31777W        W47851   8.088  12.893   1.792 -0.2303 -0.0432  0.0531
31778W        W47852   5.553   7.425  12.059  0.3281  0.0570  0.1979
31779W        W47853   7.683  12.943  13.276  0.1140  0.0493  0.0475
31780W        W47854   9.134  10.283  14.534 -0.2098  0.2346 -0.1185
31781W        W47855  18.479  11.933  11.814  0.2865 -0.2380  0.0090
31782W        W47856  11.029   1.327   2.589  0.2585 -0.1567  0.0144
31783W        W47857   4.361   1.050  11.376  0.4440 -0.0370  0.0947
31784W        W47858   3.270  14.630  15.038 -0.0137  0.1073 -0.1977
31785W        W47859  11.822   9.615   4.957 -0.1726  0.0653 -0.3443
31786W        W47860  10.774   6.676  12.619  0.1407 -0.2275  0.1790
31787W        W47861   6.359  18.538  12.399  0.0291 -0.2658  0.2232
31788W        W47862   9.304   3.319  15.078  0.1290  0.2157  0.0445
31789W        W47863  15.923   8.505  12.357 -0.0409 -0.0640  0.1194
31790W        W47864   4.563   1.144  13.815 -0.1563  0.1315 -0.1643
31791W        W47865  14.660  11.129  15.237 -0.0269  0.0648 -0.2283
31792W        W47866   5.104   3.139  15.992 -0.1927 -0.3858 -0.0088
31793W        W47867   2.830   4.512  12.454  0.2242 -0.0990  0.0876
31794W        W47868  12.008   7.412   3.994  0.0890 -0.0182 -0.1549
31795W        W47869  12.720   3.164  13.737  0.0305  0.1325  0.0838
31796W        W47870  10.830   8.909   3.754 -0.1281  0.0871 -0.0083
31797W        W47871   7.862   1.755  15.834  0.1091  0.4793 -0.2007
31798W        W47872   4.113   1.205   1.883 -0.0749 -0.2099  0.1961
31799W        W47873  14.919  16.626   1.973 -0.0973 -0.2613 -0.0899
31800W        W47874  13.788   4.586   2.965  0.0018 -0.1137 -0.2332
31801W        W47875   6.381   5.224  15.018 -0.0221  0.3192 -0.1512
31802W        W47876  16.158  16.370  12.246  0.0289 -0.1954  0.0619
31803W        W47877   9.894  13.742  14.039  0.2553 -0.3527 -0.0832
31804W        W47878  18.159   2.618   5.831  0.0611 -0.3106 -0.0681
31805W        W47879  16.679  11.161   2.318  0.2172 -0.0410  0.5161
31806W        W47880   4.816  16.382   5.371  0.3277  0.1448  0.0817
31807W        W47881   4.584  10.553  15.195 -0.3866  0.2281 -0.0852
31808W        W47882   4.985  13.222  10.486  0.1148 -0.1844 -0.0040
31809W        W47883   0.008   9.728   4.862 -0.2605 -0.1056  0.0286
31810W        W47884  13.427   2.622  13.504 -0.1539 -0.3823 -0.1824
31811W        W47885   0.354  18.185   1.788  0.0525 -0.1106 -0.2038
31812W        W47886   5.034  16.654  11.493 -0.1173  0.0724 -0.0578
31813W        W47887   0.116   6.803   2.447 -0.2177  0.1064 -0.0798
31814W        W47888   4.878  12.564  14.496 -0.0798  0.2349  0.2033
31815W        W47889   5.369   9.870  12.253  0.0105  0.1265  0.0398
31816W        W47890   6.838  16.486   3.786 -0.0585 -0.0023 -0.1944
31817W        W47891  17.608   6.792   3.925  0.0121  0.2196 -0.0623
31818W        W47892  15.529  11.629  12.367 -0.2794  0.4136 -0.1202
31819W        W47893  10.809   7.475  14.399  0.2415 -0.1641  0.1944
31820W        W47894   8.464  14.975  13.330  0.3300 -0.0001  0.0380
31821W        W47895   1.982   4.995   5.196 -0.3403 -0.2129  0.3137
31822W        W47896   7.275  18.224   0.537 -0.0317  0.1403 -0.1479
31823W        W47897   3.161  14.762  13.931 -0.1395 -0.0887 -0.1414
31824W        W47898   0.900   3.297  15.205  0.1132 -0.0714 -0.0850
31825W        W47899   6.556  10.428   0.448 -0.1745  0.0973  0.1798
31826W        W47900  10.976   5.618  14.969  0.1761  0.1615 -0.1766
31827W        W47901  17.659  17.195   2.864  0.1187  0.0106 -0.1263
31828W        W47902   6.584  16.242  14.904 -0.0469 -0.0104  0.2110
31829W        W47903  12.175  12.579   4.328  0.0908  0.3193 -0.1938
31830W        W47904   4.818   2.402  12.073  0.1781  0.1311 -0.4823
31831W        W47905   1.366  13.039  14.711  0.0572  0.1904 -0.5275
31832W        W47906  17.478   6.869  13.354 -0.0316 -0.0183  0.1668
31833W        W47907   4.237   3.332  15.275 -0.0495 -0.2960 -0.1628
31834W        W47908   7.521  11.986  11.206 -0.1373 -0.0702 -0.0784
31835W        W47909  17.287   7.740  14.346  0.0571  0.0898 -0.3120
31836W        W47910   0.923   0.046  11.943  0.0436 -0.0312 -0.0460
31837W        W47911  15.222   0.623   3.413 -0.0632  0.1554  0.3432
31838W        W47912  10.911  11.934   6.111 -0.2410  0.1266  0.0201
31839W        W47913  12.227  13.297  14.699  0.0056 -0.0017 -0.1387
31840W        W47914   1.609  14.749  14.066 -0.0630  0.3170 -0.3955
31841W        W47915   6.265  16.782   3.714  0.0043 -0.2048 -0.1635
31842W        W47916  16.530   1.085  13.903  0.0641 -0.0135 -0.1473
31843W        W47917  16.897   5.185   3.535  0.1953  0.1776 -0.1078
31844W        W47918  16.911   5.590   0.624 -0.0403 -0.0234  0.0576
31845W        W47919  16.156  12.351   2.166  0.0385  0.1102  0.2328
31846W        W47920  15.241  16.497   2.442  0.0993 -0.0170  0.1303
31847W        W47921  11.903  15.181  15.712  0.0089  0.0512  0.1553
31848W        W47922  11.102  15.528   3.683  0.0429 -0.1216  0.5654
31849W        W47923   7.179  14.946   2.384 -0.0428  0.2679  0.0113
31850W        W47924   0.954  10.927  14.070 -0.2451  0.0322  0.0487
31851W        W47925   3.119   4.668   1.308  0.0782 -0.0116 -0.4176
31852W        W47926   6.078  10.053   3.108 -0.0309  0.1037 -0.2560
31853W        W47927   9.837  18.459  15.036  0.2150  0.1826  0.0963
31854W        W47928  11.906   1.526   3.536 -0.0696  0.2011 -0.0037
31855W        W47929   3.707   4.639  13.520 -0.1359 -0.0176 -0.0977
31856W        W47930   7.336  10.863   3.276  0.1493  0.1121  0.0679
31857W        W47931  15.517  12.593  12.872  0.0971  0.3268  0.1464
31858W        W47932  13.575  10.888  10.946 -0.1682 -0.1909  0.2431
31859W        W47933   0.598   1.129  13.560  0.0896  0.4940 -0.1796
31860W        W47934   0.481  18.313   4.944  0.1285  0.0133  0.0087
31861W        W47935  14.016  14.614   4.877  0.0257  0.0682  0.6002
31862W        W47936   4.167  10.097   1.158  0.2990 -0.0345  0.0229
31863W        W47937   8.491   1.577   1.752 -0.1142  0.1623  0.2600
31864W        W47938  18.139  18.238   0.047 -0.1733 -0.2174  0.2714
31865W        W47939   9.903   4.477   0.160 -0.1580 -0.0573 -0.0426
31866W        W47940   4.246   4.012   2.128 -0.0947  0.2456  0.1730
31867W        W47941  16.863   6.001  12.571  0.1062  0.2371  0.2334
31868W        W47942  11.876   3.760  13.075  0.1859 -0.4406  0.3449
31869W        W47943   2.785   8.381   0.316 -0.3181 -0.0446 -0.0582
31870W        W47944   8.763   5.291   2.785 -0.2718 -0.1013  0.2460
31871W        W47945  14.754   2.833  11.127 -0.1025  0.2635  0.0303
31872W        W47946   4.177  15.543   0.371 -0.0615  0.2904 -0.0961
31873W        W47947   5.355  18.370  11.123  0.0897 -0.4381  0.1216
31874W        W47948  10.739   3.296   3.510 -0.1127 -0.2383 -0.0691
31875W        W47949   9.704   6.178   0.433  0.0553  0.0355 -0.2472
31876W        W47950  16.687  15.296  13.525  0.3872 -0.0390  0.0963
31877W        W47951  11.653  16.566   5.748  0.1352  0.1926 -0.1605
31878W        W47952   8.102  16.444   3.356  0.0007 -0.0935  0.1653
31879W        W47953  10.019  15.836   1.187  0.2494 -0.0349  0.0568
31880W        W47954   9.550  14.376  14.054 -0.0271 -0.1247  0.0902
31881W        W47955  13.051  17.766   2.830  0.1855  0.0079  0.0778
31882W        W47956  12.932  18.398  15.756 -0.3338 -0.1978 -0.1260
31883W        W47957   7.158   8.313   1.582  0.2774 -0.0876  0.5285
31884W        W47958   0.981   6.329   3.970  0.1432 -0.2222  0.1384
31885W        W47959  10.697  13.760   5.334  0.0641 -0.0592 -0.1934
31886W        W47960   5.717  10.145  14.192  0.0950 -0.2559 -0.2018
31887W        W47961   9.728   4.865   4.052 -0.1216  0.0302  0.0078
31888W        W47962   6.701   3.544   1.343  0.0281 -0.2039  0.1706
31889W        W47963  10.061   2.462  14.935 -0.2191 -0.0458  0.0837
31890W        W47964  15.376  11.022  15.929 -0.0609 -0.0841 -0.2766
31891W        W47965  17.678   8.558   5.774 -0.0666 -0.1642 -0.3715
31892W        W47966  11.188  11.025   0.087  0.3083 -0.1851 -0.0401
31893W        W47967   7.940   1.189  13.193 -0.0220  0.0052 -0.2678
31894W        W47968   4.723   4.160   0.754  0.3372 -0.0497  0.0470
31895W        W47969   3.494  11.043   3.632 -0.2729  0.3086  0.4221
31896W        W47970  17.249   1.301  13.105  0.1812  0.6556 -0.0964
31897W        W47971  13.250   3.795  13.926 -0.0115  0.0515 -0.2675
31898W        W47972  10.485  17.046   9.801  0.2562  0.0262  0.0026
31899W        W47973  18.515  13.368   4.040  0.3057 -0.0123  0.1975
31900W        W47974  10.242   2.766   0.036  0.1451  0.3409 -0.1880
31901W        W47975  17.788  16.661  13.016 -0.1722  0.1615 -0.0391
31902W        W47976  17.904   6.125   4.684 -0.0400  0.0205  0.5441
31903W        W47977  11.261   2.484  15.050  0.0911 -0.1466 -0.1539
31904W        W47978   2.378   5.304   0.544 -0.2673 -0.0960 -0.2951
31905W        W47979   9.681  17.945  13.664  0.0008  0.2185 -0.0962
31906W        W47980  10.572   3.956   2.875 -0.0965 -0.0534  0.0390
31907W        W47981   4.048   0.484   1.404  0.2386  0.0962  0.2312
31908W        W47982   2.987   9.708  13.911  0.0498  0.1122 -0.0072
31909W        W47983   2.407   4.229  14.670  0.3095 -0.0821  0.0238
31910W        W47984   8.347   7.076   2.399 -0.3387  0.0026 -0.0077
31911W        W47985   4.067  10.206   1.792  0.0158  0.0529 -0.2611
31912W        W47986  11.043   3.772   2.676  0.2016  0.0369 -0.0819
31913W        W47987  15.581   1.888  14.285 -0.2227 -0.0997  0.1001
31914W        W47988   6.856   0.145  12.512  0.0445  0.0692 -0.2119
31915W        W47989  11.811  11.657   0.931 -0.0442  0.2489 -0.2358
31916W        W47990  15.104   1.226   3.439  0.2929 -0.1347 -0.0395
31917W        W47991   1.444   9.857   1.131 -0.2159  0.1748  0.0847
31918W        W47992   8.199   1.081  15.950  0.3218  0.0832 -0.3378
31919W        W47993   8.944   2.277   1.043 -0.2051 -0.0652  0.1201
31920W        W47994  13.712  17.032   5.153  0.1696  0.1170 -0.0575
31921W        W47995   7.860  15.665   0.728 -0.0906  0.2199  0.1599
31922W        W47996  13.932   7.147   3.401 -0.1405 -0.1507 -0.0569
31923W        W47997  16.802   1.301  14.903 -0.2004 -0.2464  0.1049
31924W        W47998  11.693   5.988  13.632  0.0381 -0.0947 -0.1369
31925W        W47999   4.535  15.011   0.808 -0.0684  0.1433 -0.0433
31926W        W48000   7.816  16.629   4.808 -0.2894  0.1930  0.3339
31927W        W48001  13.506  15.093   0.257 -0.0577  0.0407 -0.2194
31928W        W48002   4.829  11.150  15.457 -0.0650 -0.1603  0.1427
31929W        W48003   3.226  11.642   4.372  0.0088 -0.1213  0.1838
31930W        W48004   1.833  17.714   0.435 -0.3250  0.2669  0.1036
31931W        W48005  10.472   5.127  12.038 -0.0641  0.0098 -0.0916
31932W        W48006   2.579   9.043  14.077  0.1834  0.3093 -0.1116
31933W        W48007   6.619  10.067  14.352 -0.0522  0.1315  0.0701
31934W        W48008   2.085   7.342   4.524 -0.2320  0.3028 -0.1674
31935W        W48009  17.625   1.628  15.555 -0.0694  0.1546 -0.2846
31936W        W48010   2.835  10.082   2.531  0.0097 -0.3597 -0.0762
31937W        W48011   7.623  16.609  13.984 -0.0869  0.1950 -0.2762
31938W        W48012   9.653  17.905  15.171  0.3823  0.4833 -0.0728
31939W        W48013  12.204   6.788   1.324 -0.2693 -0.1442  0.0707
31940W        W48014   7.715   1.998  12.749 -0.1181 -0.0521 -0.2348
31941W        W48015   1.914   8.867  12.056  0.0479  0.0238 -0.0937
31942W        W48016  15.727   7.705   4.182  0.1572 -0.0262  0.2852
31943W        W48017  11.279  16.914  15.723  0.0671 -0.1753 -0.1519
31944W        W48018  13.755   8.105   4.285  0.2572  0.1011  0.0765
31945W        W48019   8.407   5.308   4.624 -0.1866 -0.3861 -0.4638
31946W        W48020  12.038  14.926  12.646  0.0255  0.3263  0.1888
31947W        W48021   2.181  17.696   3.399 -0.0468  0.3975  0.4119
31948W        W48022   1.911  10.814  12.980  0.1195 -0.2677 -0.1112
31949W        W48023  16.882   8.481   5.884  0.1847  0.0266  0.1347
31950W        W48024  11.882  11.188  12.586 -0.1776  0.2301  0.1312
31951W        W48025  11.469   8.424   0.340  0.1300  0.0971  0.1342
31952W        W48026   5.873  14.895   5.349 -0.0504 -0.1509 -0.2045
31953W        W48027  14.778  12.116   4.335  0.0576 -0.1925  0.2927
31954W        W48028  17.138   7.156  13.572  0.0111  0.1559 -0.3846
31955W        W48029  17.790   3.554   2.024 -0.1486 -0.3063  0.0808
31956W        W48030   3.564  10.458   3.482  0.0131  0.1369  0.0158
31957W        W48031   9.251   7.713  15.392  0.0979  0.1486 -0.0470
31958W        W48032   0.666  14.861   0.511 -0.0332  0.3218  0.0812
31959W        W48033   9.709   6.417   2.227  0.1623  0.2072 -0.0103
31960W        W48034  11.955   8.725   1.256 -0.0702  0.0657  0.4989
31961W        W48035   8.049   6.286  12.094  0.0070  0.1720  0.2299
31962W        W48036   6.970  17.116  10.982 -0.0417 -0.1268 -0.1655
31963W        W48037   4.376   8.723  12.606 -0.2020 -0.2128 -0.2443
31964W        W48038   1.592   8.900  12.621 -0.0992 -0.0383 -0.1805
31965W        W48039  10.966   4.969  12.306 -0.0757 -0.1358 -0.0291
31966W        W48040   8.710  15.591   3.700 -0.2950 -0.2332  0.2508
31967W        W48041  17.888   0.708   1.553  0.0749  0.2172 -0.1856
31968W        W48042   7.473   9.146   1.957  0.0288 -0.0696  0.3071
31969W        W48043   2.213  10.114  15.483  0.0533  0.1578 -0.3164
31970W        W48044   4.084  17.177   4.362 -0.2993  0.1008  0.0844
31971W        W48045  10.495   1.441  15.527  0.0666  0.2243  0.3102
31972W        W48046   9.265  17.093   4.875 -0.1441 -0.2472  0.1512
31973W        W48047  13.378  16.332   2.803 -0.0563 -0.0935 -0.0077
31974W        W48048  16.689   7.661   2.206  0.1398  0.2035  0.2626
31975W        W48049   9.638  10.144  11.838  0.0200  0.0496 -0.1154
31976W        W48050   5.253  11.001  13.146 -0.1667 -0.1200 -0.0601
31977W        W48051  13.447   1.287  15.176  0.2000 -0.0628 -0.0851
31978W        W48052  11.675   0.166  12.800  0.2291  0.0234 -0.1125
31979W        W48053   3.922   3.542   1.787  0.2207 -0.0248 -0.2321
31980W        W48054   6.070  17.632   3.713  0.0941 -0.2614  0.1207
31981W        W48055  18.432   2.483  13.076  0.1684 -0.0410  0.0608
31982W        W48056  14.588   7.923   0.234  0.1518  0.0392 -0.0122
31983W        W48057  18.430  14.556  14.396 -0.2297 -0.1241 -0.0283
31984W        W48058   5.377  10.855  12.397 -0.0970  0.2060 -0.1043
31985W        W48059  10.480   3.183  15.859 -0.3700  0.2064  0.1252
31986W        W48060   8.624  11.085   0.110 -0.0942 -0.0807  0.1716
31987W        W48061   2.021   8.305   3.464  0.1025 -0.0675  0.0248
31988W        W48062  12.874   7.040   3.567  0.0176  0.2312 -0.2083
31989W        W48063  11.135   8.044  15.484  0.0747 -0.2381 -0.3366
31990W        W48064  12.683   5.363  10.820 -0.5098  0.2065  0.0258
31991W        W48065   4.992  13.986   1.865 -0.1504  0.4122 -0.1393
31992W        W48066  12.709  16.902   0.186  0.1741 -0.0383  0.0715
31993W        W48067  11.156  13.552  15.542 -0.1767 -0.2661  0.1309
31994W        W48068  11.481  17.801  12.626  0.1573  0.1264 -0.2299
31995W        W48069   1.888  17.920  15.168  0.0360  0.0010 -0.1360
31996W        W48070   4.980   8.264   6.129  0.0822 -0.1261  0.1205
31997W        W48071  16.592  18.201   4.085  0.3514 -0.0697 -0.1202
31998W        W48072   1.063   4.231  13.226 -0.0111 -0.0915  0.0554
31999W        W48073   4.316  17.214   5.129 -0.0504 -0.0788  0.0751
32000W        W48074   4.427  12.085  11.328  0.2317  0.3369  0.0963
32001W        W48075   0.817  17.566   4.432  0.1245 -0.1242 -0.0061
32002W        W48076   0.051  14.692   5.299  0.0369  0.3058 -0.1625
32003W        W48077  16.582  15.594  14.490 -0.2316 -0.0974 -0.2479
32004W        W48078   0.003   8.268   6.115  0.0209 -0.1297  0.0071
32005W        W48079  16.689  15.829   3.639  0.2535 -0.1677  0.0843
32006W        W48080  13.748  17.457  13.510  0.3082  0.2033 -0.1762
32007W        W48081   9.306  12.345  10.988  0.1685 -0.0487 -0.1402
32008W        W48082  13.549   4.570  12.666  0.0511  0.1467 -0.2804
32009W        W48083   8.541  11.602   3.518  0.0814  0.1649 -0.2113
32010W        W48084   4.028  10.803   4.430 -0.0318 -0.1108 -0.3025
32011W        W48085  17.815  10.949   0.846 -0.3013  0.0840  0.1857
32012W        W48086   3.546   4.324   2.837 -0.3027 -0.1659  0.0232
32013W        W48087   1.606   1.792   4.572 -0.1672 -0.1638 -0.2569
32014W        W48088  17.410  12.996  12.221 -0.2325  0.0627  0.2700
32015W        W48089   8.146   8.195  14.304  0.0664  0.3928 -0.2228
32016W        W48090   8.555   3.475   4.790  0.0570 -0.0762 -0.1942
32017W        W48091  10.225   9.575   4.551  0.3329 -0.0105  0.1543
32018W        W48092  10.725  12.469  15.023  0.4142  0.0386  0.1635
32019W        W48093  11.623   7.778  13.596  0.0325  0.0980  0.0030
32020W        W48094  18.225   2.266   0.819 -0.1761 -0.1706 -0.1226
32021W        W48095   8.816  11.045  13.161  0.0180  0.0750  0.2393
32022W        W48096  14.356   5.088  11.075 -0.1698  0.1623 -0.1921
32023W        W48097  14.652   4.275   2.945  0.1900 -0.2083  0.0751
32024W        W48098  17.545  15.432  10.763 -0.0170 -0.0869 -0.0541
32025W        W48099  11.532   1.127   3.679  0.1385 -0.0360 -0.0738
32026W        W48100  10.578  14.876  14.307 -0.3337 -0.0352 -0.0968
32027W        W48101   1.045  12.423   2.543 -0.0089 -0.2534 -0.3584
32028W        W48102  13.377  13.811   0.938 -0.2109 -0.0241  0.1567
32029W        W48103   0.441  14.018  15.646 -0.0216 -0.0356 -0.0922
32030W        W48104   7.354   4.091  11.852  0.0417  0.2056  0.0420
32031W        W48105  14.844   8.635  15.233  0.0067  0.0081  0.1585
32032W        W48106   7.098  13.886   4.259 -0.1526 -0.3047  0.3594
32033W        W48107   6.573   4.648   3.947  0.0240 -0.0305 -0.0793
32034W        W48108  11.803  10.653  13.132  0.2581 -0.1691 -0.1840
32035W        W48109  11.448  11.040  13.033 -0.0658  0.0167  0.4085
32036W        W48110  17.503   0.301  11.051  0.1627 -0.1026  0.2031
32037W        W48111  10.660  17.237  13.936 -0.1182 -0.0553 -0.1743
32038W        W48112   7.114  17.650  14.598 -0.1282 -0.2770  0.1549
32039W        W48113  11.748   7.557   4.787 -0.1566  0.1927  0.0191
32040W        W48114   9.066   4.364   0.463 -0.3273 -0.0182 -0.1909
32041W        W48115  18.384  11.509   2.473 -0.1140  0.5622 -0.2459
32042W        W48116   0.956   4.356   3.505  0.0230 -0.0554 -0.2404
32043W        W48117   0.249  14.060   0.539  0.1527 -0.0516  0.1427
32044W        W48118  17.634  17.629   1.497 -0.0816 -0.0371 -0.1500
32045W        W48119  11.478   9.473  13.471  0.1384 -0.3916  0.2020
32046W        W48120  11.510  14.717  12.322 -0.2710  0.1348  0.0998
32047W        W48121  13.623   8.086  15.007 -0.0359  0.0002 -0.0430
32048W        W48122   0.418   3.334   1.581  0.2228  0.2175  0.2259
32049W        W48123   2.888  10.850   6.001  0.1759  0.3942  0.1208
32050W        W48124   9.268   7.330  12.575 -0.1250  0.1593  0.2736
32051W        W48125  17.649  15.829  12.452 -0.0640  0.1122  0.2564
32052W        W48126   3.622  10.497   4.429 -0.1348  0.1253 -0.0122
32053W        W48127  11.041  17.948   3.296 -0.0271 -0.1317 -0.2062
32054W        W48128  10.223  11.788  14.697 -0.1002  0.1932 -0.0495
32055W        W48129   7.953  15.035  14.012 -0.1651  0.0043  0.0530
32056W        W48130   1.138   9.741   2.007 -0.0427  0.1530 -0.0151
32057W        W48131  16.691   0.557   1.981 -0.1069  0.3335  0.2768
32058W        W48132   6.225  14.175   2.693 -0.0057 -0.2117  0.2502
32059W        W48133   4.650  18.299  14.211 -0.1712  0.0386 -0.1241
32060W        W48134   8.231  11.135   3.193 -0.0236  0.1655 -0.1725
32061W        W48135  15.459   1.046   3.781  0.2369  0.0165 -0.3271
32062W        W48136   5.732  11.200  11.620 -0.1772  0.2894 -0.3576
32063W        W48137   7.022  13.747   0.223 -0.0588 -0.2580  0.0924
32064W        W48138   7.352  17.714  15.557  0.1327 -0.0066 -0.1125
32065W        W48139   7.635  14.313  11.930  0.1297  0.1582 -0.2243
32066W        W48140  17.560   3.641   3.373 -0.2568 -0.3299 -0.2738
32067W        W48141  16.475  17.481  14.080 -0.0058  0.1770  0.1432
32068W        W48142   6.681  17.485   4.786  0.6576 -0.1545 -0.1837
32069W        W48143  13.004  11.927  13.791 -0.1939 -0.1888 -0.1070
32070W        W48144  11.396   3.804   4.949 -0.2106  0.2120  0.1935
32071W        W48145   7.344  12.255   2.104 -0.0716  0.1188  0.3747
32072W        W48146   1.867   8.641  12.979  0.5095  0.0285  0.0684
32073W        W48147   2.746   5.499  14.284 -0.0570 -0.3871 -0.2860
32074W        W48148   4.603  18.132   3.721  0.0854  0.4097  0.2428
32075W        W48149   2.205   7.767   2.024  0.0407 -0.0942 -0.0614
32076W        W48150  16.941   2.014   0.844  0.3304 -0.0050 -0.0231
32077W        W48151  13.141   9.616  14.684  0.0605 -0.1998 -0.0906
32078W        W48152   3.476   7.514  14.525 -0.3768 -0.1880 -0.3404
32079W        W48153  16.302  17.839   1.914 -0.1503 -0.2612 -0.3155
32080W        W48154   4.089  12.456  13.065 -0.3101  0.2005 -0.1346
32081W        W48155  17.322   8.266  10.935  0.1877  0.2866 -0.3318
32082W        W48156   7.500  16.390   3.420  0.0417  0.1462  0.0226
32083W        W48157  13.166   3.344   4.030  0.0231 -0.1938 -0.0734
32084W        W48158  10.136  16.057   1.741 -0.1524  0.1827 -0.2312
32085W        W48159  17.421  18.563   3.993  0.0406 -0.1159 -0.1424
32086W        W48160   0.074  11.995  14.725  0.0950 -0.0537  0.1831
32087W        W48161  16.805  15.308  14.890 -0.0890  0.0674 -0.0747
32088W        W48162  14.588   8.534   4.204  0.0392  0.2765 -0.2319
32089W        W48163  16.938   8.075  15.083  0.0396 -0.2768  0.0816
32090W        W48164  17.212   4.632   4.511 -0.0195 -0.0398 -0.2004
32091W        W48165   9.126   1.961  11.922  0.0169 -0.0822 -0.0820
32092W        W48166  11.443   0.050  13.200 -0.1282  0.1085 -0.1765
32093W        W48167  12.023   6.332   1.037  0.1996 -0.0548 -0.1768
32094W        W48168   1.340   6.064  11.728 -0.0673 -0.1075 -0.2268
32095W        W48169  17.437  10.517   2.050  0.4221 -0.0611  0.3600
32096W        W48170   2.928  10.525  10.305  0.0120  0.0534 -0.2400
32097W        W48171   8.990  12.639   5.287 -0.0126 -0.0240  0.0847
32098W        W48172  18.011  17.032  14.245  0.0038 -0.1331 -0.2404
32099W        W48173   0.985  16.850   2.268  0.0435 -0.0606  0.3933
32100W        W48174   2.592   7.417   1.199  0.2218  0.1703  0.1539
32101W        W48175  14.077  11.380   1.817 -0.0800  0.0959 -0.0702
32102W        W48176  18.024   1.526  11.606  0.0043 -0.2336 -0.1513
32103W        W48177   7.238  14.954  12.814  0.2176  0.0764 -0.0532
32104W        W48178  10.595   1.723  12.975  0.2663 -0.1805  0.1618
32105W        W48179   4.176   1.303   0.416 -0.0398 -0.1295  0.0825
32106W        W48180   7.330   0.227   1.873 -0.4987  0.0371  0.0308
32107W        W48181   5.766  10.794  13.940  0.0529 -0.2376  0.0793
32108W        W48182   7.331   1.736  12.881 -0.1390 -0.0315  0.1213
32109W        W48183  13.393   0.454  10.963 -0.0643  0.3494 -0.1970
32110W        W48184  18.220  17.439  14.960 -0.3884 -0.0420 -0.0542
32111W        W48185  16.154   1.474  11.041 -0.1474 -0.1384 -0.0177
32112W        W48186  15.122   7.693  13.004  0.2356 -0.0390 -0.2507
32113W        W48187  17.326  10.063   2.913  0.1658 -0.1706 -0.1219
32114W        W48188   4.921  15.647   2.320 -0.0021 -0.3735  0.1160
32115W        W48189  14.538  17.181  15.343  0.1782  0.0759  0.1603
32116W        W48190   6.141   3.065   4.244  0.1455  0.0871 -0.0569
32117W        W48191  14.659   3.580  14.184  0.2646 -0.0005 -0.1231
32118W        W48192   1.293   0.394  13.687 -0.2123 -0.1763 -0.2492
32119W        W48193  14.545   1.587  12.679  0.1986  0.0758  0.0678
32120W        W48194   1.316   4.578  12.902 -0.2845  0.2478  0.1510
32121W        W48195  17.200  11.505   3.781 -0.1017  0.1262 -0.1468
32122W        W48196   8.391  14.261  13.389  0.2336  0.2556  0.2637
32123W        W48197  11.815  16.668   4.714  0.0748 -0.0726  0.1390
32124W        W48198  14.897  15.296   4.492 -0.1531 -0.2189  0.2800
32125W        W48199   7.967   9.066   1.918 -0.0076 -0.0400 -0.1172
32126W        W48200  15.983   2.571  15.525 -0.3149  0.0258  0.2676
32127W        W48201   2.212   9.812  15.934  0.2643  0.1214  0.1404
32128W        W48202   8.986  11.230   5.305  0.1422 -0.1526 -0.1619
32129W        W48203  11.601   6.882   3.385 -0.0417  0.0939 -0.1481
32130W        W48204  18.074   1.944   4.393 -0.1123 -0.1168  0.1294
32131W        W48205  15.599   7.333  10.973  0.2406 -0.4915 -0.3054
32132W        W48206   7.246   8.878  13.358 -0.1909  0.1022  0.0630
32133W        W48207  15.002   4.191  13.659  0.0901 -0.2041  0.0033
32134W        W48208   4.205   3.839  15.588  0.0059 -0.0998 -0.0917
32135W        W48209  12.340  18.489  12.491 -0.0168  0.0388  0.1285
32136W        W48210  13.324  16.924   0.277 -0.0582 -0.0583  0.0206
32137W        W48211   9.095   4.636  11.386  0.1128  0.0207 -0.2278
32138W        W48212  16.657   7.072   0.552  0.1808  0.0824  0.1198
32139W        W48213   8.938   2.409   3.843  0.0331  0.1506 -0.1011
32140W        W48214   3.690   9.904   1.295  0.0818 -0.0297  0.2441
32141W        W48215   7.408   7.924   2.550 -0.0531  0.1679  0.0892
32142W        W48216   0.804   0.874   4.359  0.1159  0.1031  0.2549
32143W        W48217  12.688   4.441   2.961  0.0963 -0.2466 -0.0189
32144W        W48218   6.552  16.801   4.166  0.0096 -0.0643  0.2008
32145W        W48219   7.297   4.751  12.412  0.3487  0.1629  0.0343
32146W        W48220   6.015   6.551  14.251  0.2939  0.3444 -0.3180
32147W        W48221   1.231  12.116  14.572 -0.0629  0.0516  0.1720
32148W        W48222   4.878  17.851  15.126  0.2648  0.0380  0.1346
32149W        W48223  15.331   2.071  11.246 -0.0801 -0.0121 -0.3897
32150W        W48224  18.327  16.028   2.710 -0.2767 -0.2761  0.0151
32151W        W48225   8.039  14.270  13.015  0.1128 -0.0959 -0.1228
32152W        W48226  18.499  16.087  11.967  0.2465 -0.1900  0.0343
32153W        W48227  14.073  17.025  15.162  0.2934 -0.2181  0.1985
32154W        W48228   4.300  14.130   3.097 -0.1855 -0.1649 -0.1699
32155W        W48229   6.168   4.043  15.089  0.2458  0.0698 -0.1027
32156W        W48230  12.924   6.733  14.623  0.0849 -0.2073  0.3514
32157W        W48231   7.102  13.235  11.852  0.1629  0.2449 -0.0684
32158W        W48232   3.761  18.075   4.494 -0.1933  0.0860 -0.0721
32159W        W48233   6.322   7.411  13.950  0.2049 -0.2218 -0.1237
32160W        W48234   4.577  14.794  15.865  0.0743 -0.4455  0.0012
32161W        W48235  12.306  17.306   0.961  0.1021  0.0701 -0.2196
32162W        W48236  13.708  10.952   4.841 -0.1383  0.2107  0.0034
32163W        W48237  15.942   0.780   1.601 -0.0620 -0.0521  0.4815
32164W        W48238  17.633  11.197   5.457 -0.0324  0.0322  0.5013
32165W        W48239   9.268  16.770  15.118  0.1740  0.0577 -0.0877
32166W        W48240   1.717  11.879  13.161  0.0865  0.0676 -0.1468
32167W        W48241  12.912  10.231  12.549 -0.0739  0.1685 -0.0400
32168W        W48242   8.714   7.078   0.957 -0.1920 -0.0747 -0.2982
32169W        W48243   7.478  13.757  13.611 -0.0717 -0.3104  0.1706
32170W        W48244   6.827   2.070   5.131 -0.0293  0.0295  0.0007
32171W        W48245  10.795   0.192  11.360  0.0997 -0.0549  0.0297
32172W        W48246  14.195   9.734  15.910 -0.0132  0.0188 -0.0819
32173W        W48247   0.092  13.032   5.783 -0.0661  0.0288  0.0345
32174W        W48248   2.902   3.922   3.453 -0.2713  0.2493  0.1963
32175W        W48249   4.244   6.597   4.890 -0.0166  0.0557 -0.0575
32176W        W48250  12.464   7.160   3.882 -0.0701  0.0363 -0.1218
32177W        W48251  13.490  13.801  12.921  0.2182 -0.0202  0.0313
32178W        W48252  14.506  17.910   4.459 -0.2836  0.1489  0.3296
32179W        W48253  11.090  17.933  13.387 -0.0819 -0.0315  0.2058
32180W        W48254   3.734   4.581   3.215  0.1638 -0.0344  0.0309
32181W        W48255  10.382  14.624   0.861 -0.1083 -0.0427 -0.1746
32182W        W48256  14.957  10.560   5.619 -0.1797 -0.2746 -0.2383
32183W        W48257   5.510  13.175   2.221 -0.1338 -0.0124 -0.1073
32184W        W48258  11.396   9.582  15.453  0.2357  0.1961 -0.3565
32185W        W48259  11.047  17.959   0.795 -0.2043  0.0036  0.1765
32186W        W48260   0.714   9.980  13.710 -0.2654  0.0288  0.0456
32187W        W48261   6.385   7.812   1.984 -0.1541 -0.1741  0.0229
32188W        W48262   6.838   5.279  15.070  0.2344  0.2012 -0.1380
32189W        W48263  13.315  12.721   2.685  0.1285 -0.0238 -0.1405
32190W        W48264   7.107  11.601   2.435 -0.0762  0.1184  0.1022
32191W        W48265  15.680   0.310   2.559 -0.0507  0.0835 -0.1573
32192W        W48266  15.245   6.749   1.606 -0.0785  0.0657  0.0389
32193W        W48267  11.670   6.939   5.885 -0.0210 -0.3255 -0.0811
32194W        W48268   2.272   3.839   4.579 -0.1327  0.1883  0.2157
32195W        W48269  12.570   4.338   2.468  0.0410  0.3204 -0.3464
32196W        W48270  17.948  17.890  10.910  0.3556 -0.0740  0.1137
32197W        W48271   6.185   4.771   2.101  0.2621 -0.0216 -0.0489
32198W        W48272   5.558   8.076  12.851  0.0778  0.0627  0.0472
32199W        W48273   6.367  14.919  11.178 -0.1517  0.0717 -0.1177
32200W        W48274  12.534   8.089   4.930 -0.0269  0.3087 -0.1021
32201W        W48275   4.655  18.082  11.667 -0.0629  0.1476 -0.1012
32202W        W48276  12.943   1.258  13.498 -0.2128 -0.1398 -0.0414
32203W        W48277   8.130   7.423   2.623  0.0327  0.5076 -0.0907
32204W        W48278  11.497  18.230  12.173  0.3834  0.2606 -0.1870
32205W        W48279  13.639   2.755   1.504 -0.0793 -0.2121  0.2621
32206W        W48280  10.200  10.277   0.636  0.1338 -0.0118 -0.1580
32207W        W48281   7.582   9.980   2.621  0.2090  0.3433 -0.0040
32208W        W48282  11.323  16.415  15.501 -0.1955 -0.1671 -0.4779
32209W        W48283   8.753   3.620   1.316 -0.2015 -0.2683  0.1993
32210W        W48284  10.145  17.065  11.368 -0.2601  0.1317  0.4348
32211W        W48285   1.218   6.295  12.562 -0.2469 -0.0368 -0.1010
32212W        W48286   5.783   6.949  12.165  0.1673  0.2864  0.3017
32213W        W48287   5.410  15.800  11.994 -0.2893 -0.0589 -0.1756
32214W        W48288   6.812   1.757  15.992  0.3192 -0.0431 -0.3110
32215W        W48289   4.005   6.746   4.471 -0.1992  0.1642  0.4057
32216W        W48290  12.719  13.277   5.644 -0.2694  0.1694 -0.3313
32217W        W48291   6.614   4.801  14.857  0.0459  0.0777 -0.3301
32218W        W48292   6.971   7.721   5.775  0.0470 -0.1549 -0.0502
32219W        W48293   7.559   2.539  14.463  0.3729 -0.3389  0.2210
32220W        W48294   0.860   5.759   5.185  0.0812  0.1058  0.0411
32221W        W48295   4.295  12.886   2.405 -0.0719 -0.2535 -0.0180
32222W        W48296  12.610  13.965   3.199 -0.0128 -0.3932 -0.1038
32223W        W48297  16.214  16.256   0.275 -0.1083  0.2259  0.2104
32224W        W48298   0.098  10.377  12.704 -0.2855 -0.0104 -0.0964
32225W        W48299   2.945   4.709   5.354  0.0461  0.1584  0.0998
32226W        W48300  14.950  11.448  11.742  0.0266 -0.1422  0.2627
32227W        W48301  13.539   1.115   0.112 -0.2431  0.0066 -0.1361
32228W        W48302  16.617   2.658  11.305 -0.1968  0.1656 -0.0157
32229W        W48303  17.698   7.235  13.682 -0.0967  0.3409  0.0477
32230W        W48304  17.418  10.084  13.342  0.0784  0.0722  0.0958
32231W        W48305   3.567  11.611   2.150 -0.0461  0.3582 -0.2349
32232W        W48306   9.238   3.830   3.087 -0.0439 -0.2262  0.0518
32233W        W48307   7.094   2.746   3.909  0.0634 -0.2267 -0.3826
32234W        W48308  14.423   5.892   4.944  0.0412  0.2811 -0.1260
32235W        W48309   7.169   5.671   5.561 -0.0999 -0.2437 -0.2720
32236W        W48310   6.867   2.092   2.502 -0.2749 -0.3195  0.2161
32237W        W48311  16.220  10.163  14.811 -0.0025  0.0398 -0.0720
32238W        W48312  14.461  14.391  11.070 -0.1026 -0.3776  0.2837
32239W        W48313   5.741  14.314  12.070  0.1917  0.2348  0.0006
32240W        W48314   7.627   9.581  12.757 -0.1054  0.1702  0.0025
32241W        W48315  15.514   7.620   5.142 -0.1285 -0.2760 -0.0738
32242W        W48316  15.148   8.813  11.621  0.1929 -0.0629  0.1472
32243W        W48317   1.544  13.898   4.707 -0.2953  0.0455 -0.1974
32244W        W48318   2.652  14.037  11.571  0.1641  0.0042  0.0537
32245W        W48319   0.427  18.018   0.340 -0.1073 -0.1751 -0.1046
32246W        W48320  15.196  18.527   0.778  0.0987 -0.1989 -0.1590
32247W        W48321  11.804   0.816   0.179 -0.0455 -0.1053  0.0138
32248W        W48322  13.413   9.642  14.042 -0.2418  0.0309  0.1884
32249W        W48323  18.535   5.423  14.318  0.0227  0.2922  0.1763
32250W        W48324   9.500  16.375  14.407  0.3472  0.1307 -0.1903
32251W        W48325  18.126   5.950  11.876 -0.3804 -0.2598 -0.2057
32252W        W48326   6.286   2.215   3.413  0.0370 -0.3309 -0.1269
32253W        W48327  14.236   4.113   1.766 -0.0841  0.2596  0.2341
32254W        W48328   5.550   1.942   1.354  0.2574  0.4158 -0.1020
32255W        W48329   6.736  16.256   1.150  0.0877  0.0384 -0.2021
32256W        W48330  14.027   8.064   1.061 -0.1351  0.1985  0.0840
32257W        W48331   4.068   5.921  15.519 -0.0026  0.1064 -0.0880
32258W        W48332  17.865  13.069   1.959  0.1136  0.1023 -0.1412
32259W        W48333   5.395  11.849  13.856 -0.2945 -0.4602  0.2085
32260W        W48334  13.433  13.790  10.625 -0.0898  0.0362 -0.4127
32261W        W48335   4.072  14.023   1.449  0.1676 -0.2437 -0.0964
32262W        W48336   9.528  16.231  12.917 -0.2741  0.2215  0.3509
32263W        W48337  15.284   4.707  15.418 -0.2659  0.1104  0.0346
32264W        W48338  12.472  15.862   4.854 -0.1680 -0.3946 -0.2394
32265W        W48339   9.560  10.284  12.736  0.4251  0.1757  0.1328
32266W        W48340   4.684  14.862   1.664  0.1667 -0.0749 -0.0102
32267W        W48341  13.908   4.854  15.976 -0.1538  0.0467 -0.0933
32268W        W48342  10.085  10.266   4.519 -0.1782 -0.2350 -0.0970
32269W        W48343  14.384   0.031   4.152 -0.0612 -0.1001 -0.2033
32270W        W48344   6.433  13.632  12.990 -0.1459  0.4142 -0.1647
32271W        W48345   5.052  14.592   3.357  0.1004 -0.0381 -0.2350
32272W        W48346  17.464   0.601  12.749 -0.1298  0.0271 -0.2413
32273W        W48347   0.466   0.978  12.715  0.0511 -0.0795 -0.0125
32274W        W48348  14.530  16.213   3.335  0.4074 -0.1929  0.0444
32275W        W48349   8.967   3.818  13.825 -0.1515 -0.0006  0.1563
32276W        W48350  11.596  12.234  11.611  0.1705 -0.1534 -0.0939
32277W        W48351  14.721  13.115   4.321  0.2425 -0.2156 -0.0764
32278W        W48352   0.335  14.041  11.250 -0.2537 -0.1111 -0.0344
32279W        W48353  15.338  13.357   5.388  0.0900 -0.4455 -0.3002
32280W        W48354  10.626   4.938   3.396  0.0395  0.2511 -0.0638
32281W        W48355   3.485   7.621  14.994 -0.2182  0.2727 -0.1217
32282W        W48356  17.466   9.256  14.495  0.1861  0.0100  0.1745
32283W        W48357   8.483  14.200  10.965  0.0024 -0.1753  0.2167
32284W        W48358  18.262   3.169  15.514 -0.0202  0.4375 -0.2421
32285W        W48359  17.506   9.786   4.661 -0.0249  0.2063 -0.3985
32286W        W48360  16.523   8.629   4.379  0.2439  0.3280 -0.2155
32287W        W48361   7.294  11.577  11.426 -0.1589 -0.0911  0.0238
32288W        W48362   3.145   9.911   1.559 -0.3025  0.0423  0.1139
32289W        W48363  13.403   5.638   4.705  0.1178 -0.2838 -0.1242
32290W        W48364  17.559   9.782   3.349 -0.0541 -0.0640 -0.0447
32291W        W48365   2.111   6.219  15.783  0.0913  0.0998  0.1529
32292W        W48366   7.615  18.368  12.229  0.2342 -0.1132 -0.1324
32293W        W48367   3.847  16.306   1.858  0.2529  0.1992  0.0893
32294W        W48368  16.785   4.471   1.877  0.0255 -0.1207  0.0596
32295W        W48369  13.576   0.569   2.214 -0.1562  0.3712 -0.0066
32296W        W48370  12.588   5.125   1.699  0.1573  0.0817  0.0629
32297W        W48371   5.593  18.308  14.044  0.1620 -0.1296 -0.4185
32298W        W48372  16.330  13.682   2.019 -0.1459  0.0934 -0.0815
32299W        W48373  17.094   5.615   4.479  0.1477 -0.1139  0.2789
32300W        W48374  12.368   1.975  11.351 -0.2087  0.2756 -0.2152
32301W        W48375   0.457  15.565  13.225 -0.0225 -0.0049  0.0508
32302W        W48376   6.178  14.200  14.798 -0.3535 -0.4063  0.0369
32303W        W48377  14.237   0.169   3.349  0.1568 -0.2371 -0.1586
32304W        W48378  17.492   1.762  16.027 -0.2214  0.0396 -0.1318
32305W        W48379   2.453  12.522   3.539 -0.1600  0.1553 -0.3411
32306W        W48380   2.317  16.258  11.191  0.1533  0.0708  0.4035
32307W        W48381   1.654   1.449  11.463 -0.0588 -0.2129 -0.2526
32308W        W48382   4.121  13.080   5.462 -0.0015  0.1648  0.0967
32309W        W48383  11.606   1.473  14.964  0.0348 -0.1944 -0.0080
32310W        W48384   3.150  15.733  13.715  0.1271  0.1519  0.2233
32311W        W48385   5.530  15.479   1.419 -0.2965 -0.2002  0.2962
32312W        W48386   5.248   4.132  14.404  0.2370 -0.0633  0.4037
32313W        W48387  13.337  15.218   1.701  0.1292 -0.0872 -0.0953
32314W        W48388   4.290   7.824   2.754  0.0872 -0.2870 -0.2994
32315W        W48389   2.798  16.293   3.663 -0.1082  0.2392  0.2899
32316W        W48390   4.720  14.133  12.800 -0.1547 -0.1281  0.3929
32317W        W48391  15.952  11.484   1.867  0.2015  0.0328  0.3146
32318W        W48392   5.434   8.115  13.855 -0.0500  0.2634  0.1552
32319W        W48393  14.971   4.575   4.303  0.0762 -0.3879 -0.2327
32320W        W48394  11.433  11.901  13.714  0.1614  0.1084  0.1283
32321W        W48395   6.647   5.831   4.188  0.0576  0.2894 -0.1307
32322W        W48396   0.583  18.531   0.225 -0.2806 -0.0744  0.1373
32323W        W48397   7.469  14.600  13.219  0.1031 -0.0380  0.0771
32324W        W48398  11.342  15.469  11.392 -0.0551 -0.0776 -0.2390
32325W        W48399   5.712  14.754  14.299  0.3973  0.1652 -0.1584
32326W        W48400  15.046   0.968   5.063  0.2002 -0.0950 -0.1037
32327W        W48401  12.527  15.116   0.368 -0.0689  0.2567 -0.0394
32328W        W48402  18.289  15.605   3.064 -0.1129  0.1743  0.0740
32329W        W48403   2.171  15.687   0.080 -0.1619  0.0665  0.0955
32330W        W48404   6.478   4.362   1.012  0.2034  0.1904  0.0702
32331W        W48405   2.530   8.264   2.167  0.1883  0.4884 -0.4732
32332W        W48406   9.958   8.564  12.998  0.2479  0.1629 -0.1366
32333W        W48407  15.946  15.491   1.771 -0.2131 -0.1341 -0.4860
32334W        W48408  13.664   2.546   2.497 -0.1989 -0.4912 -0.2184
32335W        W48409   8.619   1.498   3.348  0.0044  0.0187 -0.1927
32336W        W48410   1.301  17.118  13.511 -0.2618  0.0452 -0.4531
32337W        W48411   0.678   8.959  11.486  0.0328  0.2625 -0.0726
32338W        W48412   2.425  18.335   3.667 -0.2407 -0.0680  0.1393
32339W        W48413   8.529  13.417  12.152 -0.2205 -0.0042 -0.0405
32340W        W48414  16.780   0.573  13.894 -0.2080  0.0032 -0.2990
32341W        W48415  17.963  12.722   6.370  0.3712  0.2202  0.3275
32342W        W48416   9.870   7.905  15.269 -0.0672  0.0332  0.1435
32343W        W48417  17.691  14.009  14.146 -0.2436  0.2188 -0.1989
32344W        W48418  10.321  14.232  15.953  0.1743  0.2753  0.1966
32345W        W48419   9.794  18.158  11.453 -0.2101  0.1164 -0.0386
32346W        W48420   3.903  13.189  12.065  0.0020  0.2076 -0.1062
32347W        W48421  18.215   9.971  15.342 -0.1260 -0.4197 -0.1143
32348W        W48422  13.414  16.953  11.137 -0.1751 -0.0510 -0.1374
32349W        W48423   9.778   7.750   4.766 -0.1121  0.3434  0.4135
32350W        W48424   8.590  16.142  15.466  0.2052 -0.1280 -0.1277
32351W        W48425   8.925  14.401   5.439 -0.1095 -0.1075  0.2610
32352W        W48426  14.842   5.162  12.933  0.2468 -0.1824  0.3626
32353W        W48427   0.367   2.263  15.522 -0.2820 -0.1657  0.1931
32354W        W48428   7.834  14.145   4.645 -0.1369  0.1398 -0.1285
32355W        W48429   6.776  10.047   0.149  0.0389 -0.3610 -0.1546
32356W        W48430   0.716   3.457   2.423 -0.3530  0.0065 -0.1481
32357W        W48431  16.068   6.099   5.023  0.0282 -0.3419 -0.1935
32358W        W48432   4.848  17.546  14.103 -0.0476 -0.0290 -0.0965
32359W        W48433   1.858   3.186   2.336  0.2405 -0.2464 -0.2102
32360W        W48434   3.376   9.281   3.207 -0.1043 -0.2964  0.0129
32361W        W48435   7.698  16.250  11.264  0.1610  0.0915  0.0976
32362W        W48436   3.673  11.297  11.354 -0.3111 -0.1733 -0.0848
32363W        W48437  10.709  17.887   2.759  0.3022 -0.0884  0.2002
32364W        W48438  16.998   0.019   0.694 -0.1798  0.0289  0.1612
32365W        W48439   4.861  14.418  15.956  0.0892  0.0721  0.1151
32366W        W48440   1.936   3.444  10.294  0.2494  0.0836  0.0794
32367W        W48441  14.126  15.345   2.340  0.2305 -0.0038 -0.0501
32368W        W48442   8.803  12.496  15.304 -0.2949 -0.2114  0.0396
32369W        W48443  17.589   2.715   5.260  0.1259  0.2152 -0.0821
32370W        W48444   3.079  17.826  13.534 -0.0506 -0.1966 -0.0047
32371W        W48445   3.023  17.746  11.899  0.1763  0.1462  0.0212
32372W        W48446   6.554   0.721  12.554  0.5074 -0.2986  0.2085
32373W        W48447  10.256   2.530  11.163 -0.2118  0.0276 -0.0948
32374W        W48448  13.611  16.423   1.596  0.2125 -0.3210  0.1022
32375W        W48449   9.534  12.971  13.984  0.2663  0.0762  0.1916
32376W        W48450   3.190   9.020  11.605  0.1431  0.0779  0.2579
32377W        W48451   7.441  14.778   2.944 -0.0014 -0.0687 -0.1131
32378W        W48452  18.436   1.674   0.889 -0.1136  0.2002  0.0100
32379W        W48453  17.281  16.175   1.539  0.0544  0.1396  0.1466
32380W        W48454   2.821  13.864  14.165  0.0298 -0.0130 -0.0194
32381W        W48455  12.229  12.435   3.481 -0.0123 -0.0537  0.0421
32382W        W48456  11.996  17.372  15.512 -0.0011  0.3826  0.0690
32383W        W48457   8.573   7.578  14.650  0.0370  0.1589 -0.1153
32384W        W48458   5.703   1.770  14.205 -0.0348  0.0328 -0.1641
32385W        W48459  16.517  13.959  12.429 -0.1314  0.0901  0.0149
32386W        W48460  13.286   9.013   3.783 -0.2065  0.1004 -0.0341
32387W        W48461  12.044   9.154   4.948 -0.0220  0.0207  0.0158
32388W        W48462  13.407   2.517  10.503  0.0351 -0.1110 -0.4049
32389W        W48463   3.976  17.584   1.946 -0.1772 -0.1682  0.0895
32390W        W48464   9.537  13.359   3.059 -0.2076  0.1309 -0.0526
32391ION     NA48465   5.443  18.034  10.038  0.2290  0.0809  0.3171
32392ION     NA48466  18.068  14.528  10.475 -0.0058  0.2294  0.2636
32393ION     NA48467   4.757  17.017  10.252 -0.2729 -0.0366  0.1050
32394ION     NA48468  11.558   9.500  10.126 -0.1955 -0.1879  0.0511
32395ION     NA48469   9.605   0.458   4.706 -0.0338 -0.0111  0.0149
32396ION     NA48470  11.126  14.176  12.160  0.5769 -0.4173  0.1329
32397ION     NA48471   2.049   5.016  10.675 -0.2238  0.0399 -0.0118
32398ION     NA48472  10.440   2.347  10.229  0.1093 -0.0830 -0.0120
32399ION     NA48473   4.154   8.693   6.044  0.1293 -0.2221 -0.0575
32400ION     NA48474  17.191   0.654  10.003 -0.0868  0.0154 -0.1204
32401ION     NA48475   6.495  14.933  10.380 -0.1153  0.0370  0.0638
32402ION     NA48476  12.240  12.521  13.925 -0.2482 -0.2252 -0.3521
32403ION     NA48477   7.190   6.629  14.869  0.0739 -0.0141  0.0441
32404ION     NA48478   2.238   6.313   0.389 -0.2088 -0.3603  0.2270
32405ION     NA48479   2.451   5.833  10.502 -0.1349  0.0750  0.0235
32406ION     NA48480   4.769   6.203  14.529 -0.0791  0.4940  0.1624
32407ION     NA48481  10.274   0.617  10.040 -0.1311  0.1979 -0.0036
32408ION     NA48482   2.515   7.770  11.065 -0.3151  0.0840 -0.1082
32409ION     NA48483   0.311   0.587  10.026 -0.0306  0.0235  0.1019
32410ION     NA48484   1.485   5.965  11.084 -0.0736 -0.2582  0.2346
32411ION     NA48485   6.164  18.500  10.357 -0.1720 -0.0726 -0.1428
32412ION     NA48486   9.146   7.095  10.373 -0.0594  0.0413  0.0380
32413ION     NA48487   3.512  16.003   0.190 -0.1233  0.3676  0.3081
32414ION     NA48488   3.283  12.192  10.359  0.1046  0.1837  0.0862
32415ION     NA48489  17.094   3.760  10.073  0.0473 -0.1234 -0.3006
32416ION     NA48490   8.820  14.122  12.181 -0.0299  0.1750 -0.0403
32417ION     NA48491   0.452  12.341   1.890 -0.2419 -0.1462  0.2299
32418ION     NA48492  15.138   9.115  10.288  0.0304  0.0318  0.0965
32419ION     NA48493  17.360  16.497  15.904  0.0800  0.1483  0.0049
32420ION     NA48494  17.826  10.876   5.026  0.1013  0.0975 -0.0482
32421ION     NA48495  15.649  10.336  11.625 -0.0611 -0.1211  0.3758
32422ION     NA48496   7.242  15.485  13.241 -0.0748  0.1091  0.0395
32423ION     NA48497  13.876  14.428  10.015  0.3927 -0.0603 -0.0752
32424ION     NA48498   7.366  15.498  10.050  0.2900  0.0054 -0.2489
32425ION     NA48499  11.098   5.754   5.218 -0.2766 -0.2366 -0.1181
32426ION     NA48500   7.754  12.060  10.325  0.1816 -0.2169 -0.2952
32427ION     NA48501   3.267  14.345   5.167 -0.1777  0.0338 -0.2324
32428ION     NA48502   1.408  16.131  10.210 -0.0620  0.1130 -0.4116
32429ION     NA48503  18.199   2.237  14.904  0.0931  0.1359 -0.0059
32430ION     NA48504  17.946   8.447  10.431 -0.2849  0.1553 -0.2607
32431ION     NA48505   5.119   2.735   5.662 -0.2012 -0.3491 -0.0008
32432ION     NA48506   8.532  12.681   4.225  0.0343  0.0183  0.1842
32433ION     NA48507   4.377   1.567  10.084  0.1506 -0.2914 -0.0170
32434ION     NA48508   4.987  11.785   3.944 -0.0939  0.1359  0.3459
32435ION     NA48509   3.954  13.006  10.541 -0.0286 -0.2177  0.1965
32436ION     NA48510   3.896  13.569  15.179  0.1689  0.2394  0.1417
32437ION     NA48511   7.969  18.122   4.593 -0.1346 -0.1249  0.0369
32438ION     NA48512   3.716  16.849  10.201 -0.2156 -0.1544 -0.1850
32439ION     NA48513   7.247  13.254   5.782 -0.1455  0.0497 -0.0091
32440ION     NA48514  10.485  10.563  10.434  0.0609  0.0344  0.1018
32441ION     NA48515  12.274  15.738   9.947 -0.0092  0.1194 -0.0106
32442ION     NA48516  16.938  10.329   6.163  0.0392 -0.1626  0.2712
32443ION     NA48517  16.964  16.620  10.191 -0.1048  0.1764  0.1139
32444ION     NA48518   6.918  13.821  10.409 -0.0893  0.0570 -0.0789
32445ION     NA48519   7.581  16.085  11.886  0.0147  0.0936 -0.1845
32446ION     NA48520   3.202   8.361  10.720 -0.0535  0.2040  0.3104
32447ION     NA48521   2.262  16.775  13.235 -0.3098 -0.0153 -0.0080
32448ION     NA48522  10.372  15.844  10.081  0.1513  0.2578  0.0818
32449ION     NA48523  17.593  17.131  10.405 -0.1456 -0.0332 -0.4677
32450ION     NA48524  15.810   0.115  10.009  0.0427 -0.2428 -0.1508
32451ION     NA48525   3.509  14.929   5.718  0.1375  0.1432  0.3812
32452ION     NA48526  16.972  12.857   2.979  0.0711  0.0470  0.0823
32453ION     NA48527   9.921  13.330   0.725  0.3616 -0.1909  0.2563
32454ION     NA48528  11.178  13.545  10.469  0.0476 -0.1502 -0.1292
32455ION     NA48529   4.363   0.312   9.960 -0.2953 -0.3265 -0.0269
32456ION     NA48530  10.522   6.174  10.581  0.0062  0.2399 -0.0953
32457ION     NA48531  15.159   0.138   2.552  0.0490  0.1311 -0.0744
32458ION     NA48532   9.460  11.105   5.837 -0.0485  0.1357 -0.4268
32459ION     NA48533   2.794   9.223  10.926  0.1035 -0.1490 -0.2593
32460ION     NA48534   0.215  10.765   5.328  0.1711  0.1834 -0.0059
32461ION     NA48535  13.550   3.876  10.145  0.2210  0.0685  0.1795
32462ION     NA48536   7.460   7.585  10.659 -0.0292  0.2863  0.0122
32463ION     NA48537   8.641   1.351  10.184 -0.4196  0.0860 -0.3007
32464ION     NA48538  12.861   6.711  10.234 -0.0949  0.2749 -0.1054
32465ION     NA48539  10.357  11.451  13.847  0.0684 -0.0026  0.1224
32466ION     NA48540   4.537   2.207  10.389 -0.1775  0.1102  0.0825
32467ION     NA48541   5.579  15.813  13.019  0.1612 -0.0037 -0.1146
32468ION     NA48542   7.933  17.869  10.134 -0.2828  0.1701  0.2192
32469ION     NA48543  18.205  17.549   5.734 -0.3107  0.2799  0.0316
32470ION     NA48544  13.192   0.546  12.390  0.0586  0.1232  0.1079
32471ION     NA48545  13.922  15.270   9.895 -0.0332 -0.1267 -0.1506
32472ION     NA48546  18.422   4.979  10.549 -0.0446  0.0773  0.0517
32473ION     NA48547   6.228   9.436  11.121 -0.0277  0.2928  0.1238
32474ION     NA48548  14.905   4.340  11.146 -0.2321 -0.2041  0.1525
32475ION     NA48549   3.102   4.542   5.983  0.0220  0.0913  0.0191
32476ION     NA48550  16.933   9.313  10.380  0.0514 -0.2886  0.0437
32477ION     NA48551   7.720   6.862   5.910  0.0714  0.2263  0.0959
32478ION     NA48552   4.794   8.990  10.494 -0.5584  0.0130 -0.2886
32479ION     NA48553  11.420   8.345   3.573  0.1680 -0.1204  0.1386
32480ION     NA48554   6.082   7.806  10.885  0.0905  0.1510  0.0980
32481ION     NA48555   5.678   3.284  10.326  0.4187  0.3135 -0.0881
32482ION     NA48556  12.062   2.684  10.972  0.1655  0.2474 -0.1754
32483ION     NA48557   2.531   8.629  11.006 -0.0305  0.0095  0.0014
32484ION     NA48558   7.769  17.116  12.964 -0.0399 -0.0485  0.0983
32485ION     NA48559   6.513  17.699   5.520  0.1291 -0.4645 -0.1164
32486ION     NA48560  17.605  11.780   3.630 -0.1102 -0.0531 -0.1975
32487ION     NA48561   1.802   9.045  10.840 -0.0160 -0.1576  0.1475
32488ION     NA48562  12.918   2.530  10.384 -0.0919 -0.2133  0.0178
32489ION     NA48563   3.573  14.463  10.470 -0.2694  0.3775 -0.0826
32490ION     NA48564  14.986   8.356  10.517 -0.1022  0.0630  0.2612
32491ION     NA48565   4.769   8.989   3.291  0.0536 -0.0831  0.2714
32492ION     NA48566   6.839  12.354  10.503  0.1294  0.2706  0.0041
32493ION     NA48567   5.877  13.529  10.424  0.1616  0.3587 -0.0688
32494ION     NA48568   0.464   2.385  10.089  0.3095  0.0994 -0.0900
32495ION     NA48569   8.517  14.585  10.432 -0.1803 -0.1098 -0.0835
32496ION     NA48570   3.698  12.106   2.357  0.0326  0.3385 -0.2704
32497ION     NA48571  10.828  11.650  10.101  0.0511 -0.0462  0.0051
32498ION     NA48572   4.408  18.349  10.054 -0.0968 -0.1222  0.0763
32499ION     NA48573   6.979   4.526  10.521 -0.2597 -0.0531  0.0957
32500ION     NA48574   6.060   0.574  13.749  0.2075  0.2822 -0.3011
32501ION     NA48575   8.099  13.617  12.471  0.0899 -0.0764  0.0842
32502ION     NA48576   2.647  14.259  13.316  0.0062 -0.3670 -0.1278
32503ION     NA48577   8.134   1.957  10.544  0.1803  0.1896  0.3436
32504ION     NA48578  14.216  12.140  10.508 -0.0146  0.2011  0.2566
32505ION     NA48579   9.833  16.831   5.761  0.0522 -0.0145 -0.0084
32506ION     NA48580   9.052  10.381  10.639 -0.1495  0.0923 -0.2458
32507ION     NA48581  17.882   8.036   4.996 -0.1225 -0.0889  0.0160
32508ION     NA48582  16.133  13.800   5.393 -0.1041  0.0193  0.0781
32509ION     NA48583   3.949  17.659  10.291 -0.0946  0.0150  0.2691
32510ION     NA48584   9.192   0.743  10.158 -0.5237  0.0701 -0.1803
32511ION     NA48585   9.434   5.060  10.336  0.1959 -0.3208 -0.1119
32512ION     NA48586   1.432  12.272   5.156 -0.0265 -0.1223 -0.0413
32513ION     NA48587  17.339   1.519   5.340  0.0322 -0.2780 -0.3041
32514ION     NA48588  10.741   4.850  10.288  0.2535  0.3112 -0.0590
32515ION     NA48589   7.665   0.070   5.705 -0.0393 -0.0455 -0.2837
32516ION     NA48590  16.262  18.194   9.931 -0.1647 -0.0615  0.0721
32517ION     NA48591  17.855  12.514  10.563  0.0723  0.2604  0.2225
32518ION     NA48592  11.691   5.774   3.519 -0.5441 -0.0056  0.3022
32519ION     NA48593   6.029   8.656  10.565 -0.3055  0.3068 -0.5150
32520ION     NA48594   0.754   1.282  10.296  0.2453  0.1887  0.3934
32521ION     NA48595  17.309   2.250  11.513  0.0752 -0.0589  0.0468
32522ION     NA48596   7.603  10.091   3.116 -0.2588  0.0767  0.1299
32523ION     NA48597  13.476  11.135   5.788 -0.2237 -0.2709  0.1271
32524ION     NA48598  10.964  15.106  10.140 -0.1380 -0.2590  0.1856
32525ION     NA48599  17.215   6.354  10.435  0.0850 -0.2331 -0.1092
32526ION     NA48600   3.447   5.668  10.759  0.1620 -0.0737 -0.1977
32527ION     NA48601  16.619  11.418   3.638 -0.2939 -0.0483  0.4329
32528ION     NA48602  15.371   6.857  10.430  0.0912 -0.3423  0.0013
32529ION     NA48603   5.840  10.920  11.229 -0.0177 -0.0385 -0.0863
32530ION     NA48604  10.059   7.188  11.463 -0.0447 -0.2615 -0.2023
32531ION     NA48605  10.418  18.434  12.294 -0.1618  0.2405  0.0020
32532ION     NA48606  16.103   6.879  12.442  0.0110  0.1575  0.1899
32533ION     NA48607  17.009   0.184   9.878 -0.3871  0.0441  0.0954
32534ION     NA48608  14.568   9.142  10.198  0.1002 -0.1859 -0.0105
32535ION     NA48609   9.769   0.068   9.932 -0.0341  0.0858 -0.3254
32536ION     NA48610   4.007   6.219   6.127 -0.2139 -0.0562 -0.0369
32537ION     NA48611  16.925   0.164  10.883  0.0988  0.0692  0.3488
32538ION     NA48612   1.045  12.600  10.692 -0.0630 -0.0255  0.0047
32539ION     NA48613  16.072  14.617  14.519 -0.1712  0.0576 -0.0867
32540ION     NA48614  11.088   7.507  10.376 -0.0692 -0.0935 -0.1644
32541ION     NA48615  17.307  11.951  15.810  0.0468  0.1419  0.1736
32542ION     NA48616   0.651  10.074  11.364  0.1990  0.4329 -0.0222
32543ION     NA48617   5.268   0.458  10.226 -0.3464  0.5047 -0.3660
32544ION     NA48618  18.356  10.453  10.864  0.0056 -0.4898 -0.1277
32545ION     NA48619  11.813  16.700  15.636  0.0781  0.0741  0.2147
32546ION     NA48620   2.979   5.149  10.371 -0.1957 -0.1407  0.1862
32547ION     NA48621   0.895  13.620   5.822  0.3992 -0.0808  0.7245
32548ION     NA48622   9.670   6.371  10.507 -0.0123  0.1239  0.1754
32549ION     NA48623   6.615  18.535  14.995  0.3038  0.1087  0.1777
32550ION     NA48624  11.201   5.671  10.438  0.0538  0.2585  0.1953
32551ION     NA48625   1.031   5.865  13.618 -0.2186  0.1387  0.1197
32552ION     NA48626   8.982   2.491   5.837 -0.3583  0.2878 -0.1292
32553ION     NA48627   1.263   4.284  10.398 -0.0533  0.1472 -0.2591
32554ION     NA48628  10.134   1.156   9.911  0.1468  0.1536  0.1127
32555ION     NA48629  14.702  14.980  10.358  0.2428  0.1078 -0.0543
32556ION     NA48630   7.821   4.363  10.645 -0.0190 -0.2171  0.0513
32557ION     NA48631   1.319  16.970  10.142 -0.0673  0.1678  0.1346
32558ION     NA48632   3.029  10.704  10.727 -0.1239  0.0665  0.0684
32559ION     NA48633   9.564  13.111  15.874  0.1010  0.0989 -0.0713
32560ION     NA48634  13.891  15.627  10.231 -0.0655  0.0095 -0.0615
32561ION     NA48635   4.756   6.590  10.787 -0.1241 -0.1165 -0.3181
32562ION     NA48636   2.466  10.526  10.488 -0.0201 -0.1393  0.0831
32563ION     NA48637  15.831  16.307   5.871 -0.0034  0.1808  0.1421
32564ION     NA48638   4.001   3.910  10.464 -0.1334  0.1283 -0.1989
32565ION     NA48639   3.243   7.416  10.714  0.0867  0.0133 -0.0732
32566ION     NA48640   2.492   9.101   0.061  0.0634 -0.1541 -0.1304
32567ION     NA48641   9.653  14.397  10.824 -0.3187 -0.1847  0.1908
32568ION     NA48642  10.840  14.554   1.864  0.1325  0.0228 -0.1555
32569ION     NA48643  14.375   1.023   5.623 -0.1872  0.0160 -0.1868
32570ION     NA48644   9.238   9.474  10.293  0.0709 -0.0919 -0.3716
32571ION     NA48645   1.196   5.446   4.061  0.0430  0.5137  0.2326
32572ION     NA48646   8.882   8.542  10.254  0.0834  0.3993 -0.0760
32573ION     NA48647   7.574  14.174   2.204  0.2596 -0.0184 -0.2678
32574ION     NA48648   1.187   6.293   3.529 -0.1149 -0.3334 -0.1789
32575ION     NA48649   7.501   9.360  10.369  0.2439 -0.2058 -0.0903
32576ION     NA48650  12.979  17.949   9.993  0.1559 -0.3577 -0.3171
32577ION     NA48651   5.089  14.091  13.268  0.0915  0.0460 -0.1219
32578ION     NA48652   2.219  18.452   5.937  0.3420 -0.3633 -0.2934
32579ION     NA48653   1.202   0.606  10.286 -0.1858  0.2204 -0.4339
32580ION     NA48654   9.807  10.665   5.657 -0.1750  0.1231  0.3049
32581ION     NA48655  12.459   3.362  10.267 -0.0386 -0.3142  0.1492
32582ION     NA48656   6.508   9.806  10.538  0.0085  0.0656  0.1178
32583ION     NA48657   3.428  14.979  10.567  0.1208  0.0183  0.1003
32584ION     NA48658   7.737   0.477   3.074 -0.1655  0.2591  0.1862
32585ION     NA48659  11.815  15.401   5.478  0.1129  0.1694 -0.1905
32586ION     NA48660   0.071   8.065  10.959  0.2219  0.0518 -0.0610
32587ION     NA48661  12.745   2.682   1.008  0.1301  0.0139 -0.2226
32588ION     NA48662   6.212  11.552   5.703  0.0603 -0.2088 -0.2895
32589ION     NA48663  15.876   2.998  13.445  0.0606  0.2846 -0.1525
32590ION     NA48664   6.879   8.212   6.113 -0.2011  0.1555  0.4958
32591ION     NA48665   2.585   6.733  10.823 -0.1215  0.2037 -0.1424
32592ION     NA48666  15.787  14.619  10.444  0.0040 -0.4419  0.3128
32593ION     NA48667   6.265   6.917  10.968 -0.0530  0.1440 -0.0656
32594ION     NA48668  14.168   2.106   0.829  0.0170 -0.4241  0.1467
32595ION     NA48669  18.161   9.442   4.895  0.3029  0.0395  0.0479
32596ION     NA48670   8.685  12.582   5.884 -0.1826 -0.0530 -0.1131
32597ION     NA48671   2.743  14.971  10.372 -0.1795 -0.0700  0.1273
32598ION     NA48672   6.608   1.955  10.297 -0.2243  0.0092  0.2112
32599ION     NA48673  13.160  14.919  10.047 -0.2902 -0.1047  0.1308
32600ION     NA48674   8.412   9.469  10.458 -0.3302 -0.2759  0.0049
32601ION     NA48675   7.126   6.508   5.937  0.0602  0.2672  0.2862
32602ION     NA48676   6.534  17.139   9.972  0.1595 -0.2593  0.1848
32603ION     NA48677  11.651  10.782   5.927  0.0527  0.1060  0.3551
32604ION     NA48678   7.711   6.650  10.593 -0.1584  0.0155 -0.0129
32605ION     NA48679   0.032  11.347  10.504 -0.1139 -0.0652 -0.0619
32606ION     NA48680   7.810   5.880   5.628 -0.1127  0.0342 -0.1369
32607ION     NA48681   7.754   7.827  12.980 -0.0472 -0.2289 -0.1957
32608ION     NA48682   4.792   4.481  10.548  0.1510  0.3031 -0.2678
32609ION     NA48683  14.839   6.070   5.912  0.0048 -0.2148  0.0524
32610ION     NA48684  16.072   1.925   9.762 -0.2343 -0.0320  0.1026
32611ION     NA48685   3.415   2.817   6.018  0.0602  0.0115  0.3501
32612ION     NA48686   9.504  15.768   4.762  0.1578  0.1040  0.2303
32613ION     NA48687   4.842  12.062  10.971  0.1411 -0.0519 -0.2003
32614ION     NA48688   0.403  16.400  10.305 -0.0673 -0.0845  0.4315
32615ION     NA48689   3.517   0.525  10.007  0.0877 -0.1277  0.1106
32616ION     NA48690   7.230   3.621  10.968 -0.0094 -0.1800 -0.0153
32617ION     NA48691  15.258   5.206  14.605  0.0563  0.1567  0.1947
32618ION     NA48692  16.117   6.005   5.519  0.1098  0.0590 -0.0156
32619ION     NA48693   4.876   3.503  10.331  0.3812  0.1274  0.0171
32620ION     NA48694   7.440  11.940  15.031  0.1121  0.1954  0.4784
32621ION     NA48695  13.197   9.820   9.832  0.2107 -0.2720  0.0185
32622ION     NA48696   8.164  17.038   9.704 -0.1302 -0.2387  0.1550
32623ION     NA48697   0.440   4.495  11.075  0.0077  0.3439  0.3819
32624ION     NA48698   7.507   3.269  10.655  0.1627  0.0688  0.1395
32625ION     NA48699   9.116  10.224   6.035 -0.1125  0.2757  0.1688
32626ION     NA48700   2.238   8.607  14.166  0.1645  0.0737  0.1665
32627ION     NA48701  18.466  15.492  10.476 -0.0949  0.0828  0.4073
32628ION     NA48702   7.623  11.525  11.065 -0.2828  0.0750 -0.1602
32629ION     NA48703   1.443   3.707   5.704 -0.0462 -0.0583  0.0968
32630ION     NA48704   5.095  14.173  10.573 -0.1847 -0.0486  0.0412
32631ION     NA48705   8.808   7.571   3.689  0.0872  0.2024 -0.1050
32632ION     NA48706   8.890   3.865   4.609 -0.0228 -0.1900 -0.0874
32633ION     NA48707  17.703  15.592  12.919  0.2501  0.0517  0.2781
32634ION     NA48708  17.803   5.603   6.076  0.2271  0.0288 -0.0931
32635ION     NA48709  16.100   4.283  11.148  0.0234 -0.1013  0.1045
32636ION     NA48710   9.151   5.551  13.953  0.1188  0.0941 -0.0095
32637ION     NA48711   2.020  16.338  10.278  0.0718 -0.0365 -0.0198
32638ION     NA48712   4.760   3.064  10.087 -0.0451  0.2559 -0.0841
32639ION     NA48713   1.975   2.506  13.652  0.0692 -0.3245  0.3794
32640ION     NA48714  10.755   8.505   2.804 -0.0437 -0.0128 -0.1888
32641ION     NA48715   1.865   9.971  10.623 -0.0490 -0.0437 -0.4079
32642ION     NA48716   1.203  14.645  10.618 -0.0281 -0.0897 -0.2803
32643ION     NA48717  14.354  15.849  10.302  0.1191  0.1050 -0.0194
32644ION     NA48718   2.496  17.875  12.014  0.1232 -0.0902 -0.2643
32645ION     NA48719   0.882   0.400   5.218  0.1731 -0.3364 -0.1242
32646ION     NA48720  10.968   1.317   1.089 -0.0235  0.1145  0.1041
32647ION     NA48721   8.253   2.738  10.397  0.3133  0.0339  0.2544
32648ION     NA48722  17.281   8.554   6.099 -0.0804  0.1077 -0.0194
32649ION     NA48723   2.688   3.332   5.927  0.1255 -0.1185  0.1348
32650ION     NA48724  17.372  15.187  10.358  0.1136  0.4765 -0.0369
32651ION     NA48725  14.508  16.733  10.319  0.1831 -0.2038 -0.1081
32652ION     NA48726   9.407  17.142  13.009  0.4159  0.0935 -0.0779
32653ION     NA48727   1.528  11.617  10.539  0.1956 -0.0762  0.0147
32654ION     NA48728  12.379  17.991   5.482 -0.0550  0.1718 -0.1593
32655ION     NA48729   9.179  11.874  10.220 -0.0503 -0.5195 -0.1159
32656ION     NA48730   7.421   2.380   5.894  0.0614  0.0047  0.2344
32657ION     NA48731  16.117   1.402   5.590 -0.1099 -0.0438  0.2838
32658ION     NA48732   5.971   1.336  10.320 -0.0551 -0.2632  0.4354
32659ION     NA48733   3.034   0.762   2.779 -0.0383  0.0356  0.0722
32660ION     NA48734   0.385  18.544   9.758 -0.1452 -0.0309 -0.1049
32661ION     NA48735  16.441   3.964   1.034  0.1276 -0.0658 -0.2733
32662ION     NA48736  15.971   3.934   9.895 -0.0257  0.1398 -0.1282
32663ION     NA48737  10.744  17.717   9.857 -0.0952  0.0767  0.0474
32664ION     NA48738  10.117  12.181  10.336 -0.3495 -0.1390  0.0721
32665ION     NA48739   6.484   3.041  10.819 -0.0109 -0.1944  0.0336
32666ION     NA48740   7.030  16.950   9.920 -0.0196 -0.0593  0.2345
32667ION     NA48741  16.654   1.314   4.406 -0.0694 -0.1368  0.1707
32668ION     NA48742   5.561   1.830  10.126 -0.3552  0.0327 -0.0931
32669ION     NA48743   9.007   2.098  10.627 -0.0413  0.1175 -0.2211
32670ION     NA48744  15.636   7.659  10.474 -0.1173 -0.3574 -0.1103
32671ION     NA48745   1.873   1.062  11.131  0.0512  0.0201 -0.2890
32672ION     NA48746   4.548   2.686  13.774  0.2421 -0.1755  0.0242
32673ION     NA48747   7.198   2.385  10.552  0.0946  0.1686  0.2686
32674ION     NA48748   5.592  11.769  10.373 -0.2331 -0.1720 -0.5967
32675ION     NA48749  10.017  12.787   1.581 -0.2278 -0.2801 -0.1677
32676ION     NA48750   6.878   5.692  10.652 -0.3763  0.1747 -0.1438
32677ION     NA48751   3.726   6.828  10.771 -0.3824  0.1525 -0.0117
32678ION     NA48752  11.128   3.147  10.171 -0.0981 -0.2180 -0.1688
32679ION     NA48753   9.684  17.849  14.698 -0.3170  0.1148 -0.3320
32680ION     NA48754  16.360   8.652  10.421  0.2696  0.0856  0.0136
32681ION     NA48755  14.832  18.148  10.021 -0.0337  0.1784  0.1949
32682ION     NA48756   1.294  18.509  10.068  0.3551  0.1202 -0.0105
32683ION     NA48757   1.860  15.388  10.339 -0.3138 -0.0270  0.1284
32684ION     NA48758   8.349  11.773   0.962  0.0301 -0.1487 -0.1334
32685ION     NA48759  11.834   2.183   5.722  0.3670 -0.1821  0.0369
32686ION     NA48760   7.013  10.393  10.438 -0.3344 -0.0906  0.1799
32687ION     NA48761   4.883  10.636   5.379  0.0609 -0.0117  0.1394
32688ION     NA48762  12.514  10.105   5.919  0.0724 -0.2195  0.0906
32689ION     NA48763  14.706   5.374   2.179  0.0328 -0.2316  0.0918
32690ION     NA48764   7.331  14.984  15.996 -0.2760  0.3252  0.0374
32691ION     NA48765  13.633  17.323  10.317 -0.1171  0.2073 -0.1532
32692ION     NA48766  15.223  16.830   4.187  0.1416 -0.1884  0.0948
32693ION     NA48767  14.375   7.189  15.222 -0.2382  0.2207  0.1054
32694ION     NA48768  15.154   6.540  14.214  0.1229 -0.5059 -0.1043
32695ION     NA48769  10.014  16.830   9.687 -0.0762  0.1474  0.1115
32696ION     NA48770   5.534   6.023   3.486 -0.4361  0.0427 -0.0084
32697ION     NA48771  13.433   4.819  10.338  0.0319 -0.1700  0.2017
32698ION     NA48772  17.306   1.940   9.891  0.0082 -0.0777  0.2843
32699ION     NA48773   0.052  15.193   4.479  0.1453  0.0477  0.0872
32700ION     NA48774   8.734   1.905   0.003  0.1188  0.1533 -0.2548
32701ION     NA48775  15.563  17.745  10.086  0.1486 -0.1326 -0.3484
32702ION     NA48776   3.695  15.628   3.889 -0.2016  0.2119  0.3283
32703ION     NA48777  17.572  13.639   4.407  0.2503 -0.1561  0.1624
32704ION     NA48778   9.711   8.016   0.650 -0.3288 -0.0973  0.2388
32705ION     NA48779   5.637  12.699  10.224 -0.1557 -0.0043  0.3051
32706ION     NA48780  15.972   2.123   4.940 -0.0924 -0.1024 -0.1297
32707ION     NA48781   1.529   3.630  12.068  0.2307 -0.0501 -0.4089
32708ION     NA48782   4.477   1.864   1.144 -0.0560 -0.2922 -0.3739
32709ION     NA48783   6.149  17.616  10.104 -0.1516 -0.2632 -0.1198
32710ION     NA48784  10.812   0.464   4.148 -0.0357 -0.2148  0.1696
32711ION     NA48785   2.785  16.700   4.968 -0.1581 -0.1373  0.3644
32712ION     NA48786  11.874  15.704  12.819  0.3248 -0.3589  0.2753
32713ION     NA48787  12.061   3.033   2.550  0.0808  0.0731 -0.0311
32714ION     NA48788   0.251  12.311  10.561  0.2692 -0.1914  0.0056
32715ION     NA48789   5.254  10.446  10.546 -0.0068  0.1993 -0.1801
32716ION     NA48790  11.894   1.218  10.286  0.0267 -0.3079 -0.0228
32717ION     NA48791  13.006  14.090  10.093  0.0831  0.2282 -0.1205
32718ION     NA48792  17.560   4.442   9.991 -0.1077 -0.1934 -0.0806
32719ION     NA48793   6.951  12.200   5.906  0.0275  0.2476  0.1071
32720ION     NA48794   4.359  14.780  10.689  0.0350 -0.2502 -0.0988
32721ION     NA48795   6.616  13.330  10.305 -0.2238 -0.3357 -0.1193
32722ION     NA48796   8.619   3.832  10.463 -0.4502  0.1272  0.0989
32723ION     NA48797   4.479  11.119  10.669 -0.2267 -0.1043 -0.2868
32724ION     NA48798  17.322  14.464  10.418  0.2985  0.2012  0.0930
32725ION     NA48799   2.786  16.474  10.339 -0.3840 -0.0798 -0.0111
32726ION     NA48800   4.195  18.154   5.525 -0.4129  0.0877  0.0646
32727ION     NA48801  10.673   3.932   5.401  0.0516  0.1701 -0.1302
32728ION     NA48802  14.937   4.713  13.501 -0.2383 -0.0003 -0.2477
32729ION     NA48803   2.965   3.736  10.189  0.2907  0.0616  0.0842
32730ION     NA48804   1.089   8.334  10.823  0.0385 -0.0906 -0.0470
32731ION     NA48805   9.226  14.548   4.584  0.3642 -0.2906 -0.1873
32732ION     NA48806  17.692   9.451  10.754 -0.2420  0.1323 -0.0399
32733ION     NA48807  12.028  12.299  10.162 -0.1365 -0.1695  0.2140
32734ION     NA48808  16.195   9.607   5.289 -0.1619  0.0013  0.1220
32735ION     NA48809   2.424   9.138   1.112  0.0261 -0.1196  0.2245
32736ION     NA48810  17.856   5.565  10.480 -0.3418  0.2148  0.0699
32737ION     NA48811   1.706  14.752  12.258  0.2773  0.0779  0.1123
32738ION     NA48812   2.284   4.201  10.283 -0.2313 -0.0923 -0.0077
32739ION     NA48813  16.755  14.091   5.836  0.3269  0.0081 -0.1878
32740ION     NA48814  13.251   3.327   3.091 -0.0270 -0.1982  0.2549
32741ION     NA48815   0.190   5.857  10.420  0.0021  0.0727  0.1064
32742ION     NA48816  15.014   0.100   0.209 -0.0089  0.0716  0.1493
32743ION     NA48817  12.824  13.830  13.351  0.0588  0.0649  0.2118
32744ION     NA48818   7.130  18.385   9.944  0.1683  0.0068 -0.0396
32745ION     NA48819   4.828  17.835  13.333  0.0110  0.2405 -0.3364
32746ION     NA48820  10.026   0.677   5.959  0.2608  0.0725 -0.2478
32747ION     NA48821   8.055   9.872  11.076  0.0309 -0.0761  0.3373
32748ION     NA48822  14.570   7.897   1.690 -0.2097  0.1222 -0.3132
32749ION     NA48823  17.993   7.343   0.305  0.1254  0.0729 -0.2274
32750ION     NA48824   5.303  11.992   2.289  0.0572  0.1490 -0.0874
32751ION     NA48825  17.580   9.929  10.696  0.3207  0.4061  0.1057
32752ION     NA48826   4.244  18.540   0.777 -0.1561 -0.0153 -0.3611
32753ION     NA48827   4.081   7.773  10.819 -0.2352  0.0818  0.0842
32754ION     NA48828   5.402   1.707   3.682 -0.2561 -0.0450  0.2323
32755ION     NA48829  11.332   2.744  10.458  0.0234 -0.1607 -0.0505
32756ION     NA48830   6.450  11.519  10.570 -0.0284 -0.0728 -0.2897
32757ION     NA48831  15.693   4.756   9.805 -0.0947  0.0324 -0.1014
32758ION     NA48832   2.900   8.665  11.856  0.2381 -0.2576  0.0203
32759ION     NA48833  11.265   4.914  10.372 -0.1475 -0.0825 -0.1911
32760ION     NA48834   5.736  15.944  11.505  0.0001 -0.1006  0.2487
32761ION     NA48835   2.204  17.203  10.223 -0.0675 -0.1798 -0.3186
32762ION     NA48836   5.444   7.253  10.661 -0.1480  0.2161  0.0831
32763ION     NA48837  17.874   5.533  15.120 -0.1136 -0.0164  0.0586
32764ION     NA48838   5.427  15.069  10.516 -0.1463  0.3670 -0.1863
32765ION     NA48839   9.727   4.643   4.522  0.3052  0.2089 -0.1009
32766ION     NA48840   8.118  10.726  10.351  0.0958 -0.1462 -0.0972
32767ION     NA48841  11.498  11.102  14.813 -0.4308  0.2011  0.4110
32768ION     NA48842  13.408   7.780  15.843 -0.0127  0.0668 -0.2902
32769ION     NA48843  16.070  13.733  11.899  0.3132  0.1457 -0.2110
32770ION     NA48844   3.845   8.193  13.924 -0.2500 -0.2254 -0.1885
32771ION     NA48845   9.024   5.998  10.260 -0.0090 -0.2594 -0.2080
32772ION     NA48846  11.818   3.957   5.535 -0.2112 -0.1165  0.1526
32773ION     NA48847   6.969   0.330   9.865  0.0127  0.0906  0.0142
32774ION     NA48848  16.947   0.659   2.608  0.0761  0.0446 -0.4566
32775ION     NA48849   4.056   5.517  11.539 -0.1932 -0.3055 -0.0542
32776ION     NA48850   0.452  13.218  14.456  0.0658  0.0761 -0.4511
32777ION     NA48851   0.249   4.418   6.053  0.0047  0.0570  0.2069
32778ION     NA48852  18.402   4.359  12.810 -0.0515  0.1320 -0.0303
32779ION     NA48853  11.955   2.172  10.230 -0.0857  0.3701 -0.1979
32780ION     NA48854  15.850  13.709  10.646 -0.2359 -0.0061 -0.2148
32781ION     NA48855  12.392  14.777  10.087  0.0193  0.3959 -0.0934
32782ION     NA48856  12.794   9.284   3.448  0.0028  0.1176  0.3699
32783ION     NA48857   9.517   2.088  12.935 -0.1568  0.2654  0.0002
32784ION     NA48858   2.214   0.986  14.639 -0.3680 -0.0486 -0.1419
32785ION     NA48859  11.549  10.505  10.588 -0.0481  0.1158 -0.2772
32786ION     NA48860  13.992  18.315   9.978 -0.2551  0.1669 -0.1188
32787ION     NA48861   7.544   5.151   6.019 -0.1172 -0.0411 -0.0063
32788ION     NA48862  11.253  15.233  13.049 -0.1447 -0.2119 -0.0041
32789ION     NA48863  15.517  17.033   2.550 -0.1086  0.1769  0.1466
32790ION     NA48864   9.443  16.628   5.006  0.1699  0.0789 -0.1795
32791ION     NA48865  17.678  14.097   6.196  0.0220 -0.0383 -0.2537
32792ION     NA48866  10.437   7.585  14.084 -0.1689 -0.3302 -0.0479
32793ION     NA48867   7.699   0.738  14.970 -0.0871 -0.0889 -0.4042
32794ION     NA48868   4.803   5.069  10.570 -0.2509 -0.0499  0.1176
32795ION     NA48869  12.479   4.797  10.234  0.0897  0.0810 -0.0075
32796ION     NA48870  11.062   1.501  10.267  0.2666  0.1615  0.0887
32797ION     NA48871  18.296   8.874  10.576  0.0426  0.1297 -0.1331
32798ION     NA48872   9.669   2.635  10.151 -0.0731  0.0261  0.0871
32799ION     NA48873   4.724  13.526   5.855 -0.0998  0.0704 -0.1170
32800ION     NA48874  12.265  11.539   2.911  0.1105  0.2053 -0.2200
32801ION     NA48875  16.350  10.858   6.079 -0.3866  0.0184  0.1638
32802ION     NA48876   0.814   6.561  10.766  0.0267 -0.0947 -0.2826
32803ION     NA48877   1.521   6.593   5.528  0.1632  0.0898 -0.0323
32804ION     NA48878   0.785  15.385  10.392  0.0409 -0.1544 -0.0873
32805ION     NA48879  16.554   5.622  10.262  0.1383  0.3270 -0.0605
32806ION     NA48880   3.652  10.277  14.002 -0.0388  0.3035  0.4238
32807ION     NA48881   5.009  15.713  10.396 -0.6427 -0.1213 -0.0203
32808ION     NA48882  10.911   3.970  10.290 -0.0109  0.1102  0.1197
32809ION     NA48883  15.120  10.597  14.240  0.3460  0.2042 -0.1360
32810ION     NA48884   7.361  17.130   5.589  0.0857  0.0715  0.2294
32811ION     NA48885   3.560  13.032  11.007 -0.1532  0.1341  0.2690
32812ION     NA48886  17.904   1.255   9.854 -0.2756 -0.0914  0.0400
32813ION     NA48887   8.065  15.343  10.152  0.2484 -0.1637 -0.0521
32814ION     NA48888  15.625   0.636  12.961  0.6121  0.2985  0.0933
32815ION     NA48889   3.958   9.335  15.375 -0.1465  0.2433  0.1831
32816ION     NA48890   9.504  15.206  10.113 -0.0016  0.2659 -0.0768
32817ION     NA48891  16.186   3.651  15.518  0.2223 -0.0615  0.2263
32818ION     NA48892   2.599   0.363  12.261 -0.0496 -0.0866 -0.0749
32819ION     NA48893  10.416   3.041  12.113 -0.0830 -0.2182 -0.1026
32820ION     NA48894   6.129   4.181   1.414 -0.1179 -0.0054  0.0230
32821ION     NA48895  13.304   3.305  10.089  0.1900  0.1035  0.0545
32822ION     NA48896   4.994   1.993   5.605  0.0734 -0.0402 -0.1436
32823ION     NA48897  14.326   7.685  10.061 -0.0626 -0.2651  0.0469
32824ION     NA48898   6.315   3.725  10.679 -0.2236 -0.1596  0.1549
32825ION     NA48899   5.433   9.897  11.379  0.2820 -0.1371 -0.0834
32826ION     NA48900  11.502  11.304  11.139 -0.3879 -0.3163 -0.0849
32827ION     NA48901  12.760   1.962   5.581 -0.0818 -0.2928 -0.2661
32828ION     NA48902   7.683  14.584  10.246 -0.1480  0.1422 -0.1427
32829ION     NA48903  15.054  11.619  10.541 -0.0079 -0.1496  0.0463
32830ION     NA48904  17.279   2.973  10.189 -0.0394  0.0122  0.1555
32831ION     NA48905   5.380   2.725  10.084  0.0258 -0.0774 -0.0919
32832ION     NA48906  11.485  17.178  10.004  0.1908 -0.1948  0.0456
32833ION     NA48907  13.198   3.794  12.600 -0.1926  0.2431 -0.0187
32834ION     NA48908  18.211  16.611   3.876 -0.1614  0.3416  0.0772
32835ION     NA48909  13.088   0.238  10.137 -0.0215 -0.0183  0.0890
32836ION     NA48910  16.413  13.482  10.575  0.1554 -0.0163 -0.4147
32837ION     NA48911  10.942  17.108   2.130 -0.1477  0.0935 -0.0947
32838ION     NA48912   4.964   0.147   5.829  0.1536  0.1183  0.0214
32839ION     NA48913  12.709  17.411   3.066 -0.0657 -0.1500  0.4399
32840ION     NA48914  10.507   8.140  13.075 -0.2218 -0.1327 -0.3621
32841ION     NA48915  15.713  18.020   6.003  0.0645 -0.0534 -0.1503
32842ION     NA48916  15.453   8.917  13.509 -0.2243  0.1761  0.0294
32843ION     NA48917  15.247  15.818  10.326  0.0076  0.3638 -0.0093
32844ION     NA48918  10.028  11.721  16.023 -0.1327  0.1018  0.1666
32845ION     NA48919  11.559  16.291  10.187 -0.1526 -0.1684 -0.1632
32846ION     NA48920  15.953  16.828  10.187  0.4086 -0.1433  0.1457
32847ION     NA48921   1.606   1.538  10.123  0.0146  0.0580  0.0150
32848ION     NA48922   8.367   9.290   1.008  0.0686 -0.3256  0.3993
32849ION     NA48923   0.885   7.700  11.415  0.2014 -0.0407 -0.0660
32850ION     NA48924   7.625   5.194  10.530  0.0743 -0.4325 -0.0683
32851ION     NA48925  12.696   4.149   9.994  0.1765 -0.1938  0.2907
32852ION     NA48926  18.458  18.542  11.734 -0.0435 -0.1806 -0.0612
32853ION     NA48927  12.811   7.802  10.277  0.1212 -0.0845 -0.2261
32854ION     NA48928  13.078  10.829   9.862  0.1230 -0.1981 -0.0148
32855ION     NA48929   6.126   4.752  10.467 -0.0483  0.0631  0.0905
32856ION     NA48930  14.601   6.619  10.283 -0.0359 -0.1464 -0.0636
32857ION     NA48931   0.123  18.312   5.846  0.0504  0.2130 -0.0214
32858ION     NA48932   6.460   5.072   0.372 -0.0339 -0.0407  0.0808
32859ION     NA48933  15.220  12.053  12.241  0.4213 -0.1856 -0.2019
32860ION     NA48934   0.253   3.214  10.256 -0.0005 -0.1064 -0.2646
32861ION     NA48935   1.152  12.898   2.712  0.0328  0.1442  0.2829
32862ION     NA48936  11.513  14.862  10.202 -0.0160 -0.0102 -0.2001
32863ION     NA48937   8.308  18.296  13.736  0.2204 -0.0558  0.3566
32864ION     NA48938  15.318   0.909  15.962 -0.0583  0.1799 -0.2033
32865ION     NA48939  13.894   9.920   0.820  0.0515 -0.1119  0.0605
32866ION     NA48940  13.063  13.139  10.149 -0.3003  0.1231  0.0046
32867ION     NA48941  17.655  16.097  10.272 -0.0087  0.2186 -0.0913
32868ION     NA48942  18.162   1.278   3.609  0.4502 -0.0340 -0.0523
32869ION     NA48943  16.543  14.930  10.459 -0.0047 -0.0681 -0.0773
32870ION     NA48944  12.703   6.773   1.533  0.0806 -0.1448  0.0973
32871ION     NA48945   0.016  11.897   5.693 -0.3716  0.0385  0.0437
32872ION     NA48946   6.746   6.812  11.292  0.3401  0.2912 -0.3206
32873ION     NA48947   3.411  13.705  13.388  0.1864  0.1246  0.0860
32874ION     NA48948   1.809  13.966  10.549 -0.1070  0.2283 -0.1660
32875ION     NA48949  11.524  13.341   5.932  0.0648  0.0326 -0.0082
32876ION     NA48950  12.724   8.460  10.283 -0.2344 -0.1430 -0.3466
32877ION     NA48951  11.980   3.969   1.966  0.1962  0.1233  0.1386
32878ION     NA48952   4.466  18.097  15.329  0.0647  0.2975 -0.1098
32879ION     NA48953   9.714   4.030   0.961 -0.3706  0.3417 -0.2434
32880ION     NA48954   6.640  13.051  10.838 -0.0366  0.2107  0.2190
32881ION     NA48955  17.969  17.949   9.728  0.2358  0.1326  0.0836
32882ION     NA48956  14.903   0.960   3.073  0.1842 -0.0049 -0.0498
32883ION     NA48957   2.709  13.356  10.421  0.1602  0.1641  0.0333
32884ION     NA48958  15.108   3.481  10.053  0.0398  0.0585  0.3579
32885ION     NA48959  12.188  16.541   1.503  0.0300 -0.2127 -0.0301
32886ION     NA48960  10.406   1.390  13.781  0.1301  0.3022  0.5311
32887ION     NA48961  13.732   8.094  10.398 -0.1985 -0.2529 -0.4624
32888ION     NA48962  14.125   1.299   9.799 -0.0634 -0.0173 -0.0192
32889ION     NA48963  18.049   7.559  10.671  0.2456 -0.3431 -0.0794
32890ION     NA48964  10.048   8.515   3.737 -0.0948 -0.0743 -0.2353
32891ION     NA48965   2.603  18.157  10.387 -0.2471 -0.1049 -0.1366
32892ION     NA48966  18.330   5.711   5.993 -0.0450  0.2558  0.1970
32893ION     NA48967  18.095   0.054   2.285  0.1185  0.1868  0.2382
32894ION     NA48968   4.694   8.258  10.495 -0.1602 -0.0643  0.1300
32895ION     NA48969  17.350  12.727  15.164  0.0230 -0.0635 -0.0648
32896ION     NA48970  17.216  14.118  10.813  0.0112 -0.0770 -0.0055
32897ION     NA48971  12.839  11.786  11.624 -0.3050  0.2385  0.1029
32898ION     NA48972  15.959   5.197  12.292 -0.1215 -0.1587 -0.2328
32899ION     NA48973  12.736  15.855  14.073  0.4666 -0.1122 -0.1898
32900ION     NA48974   7.366  15.348   5.690  0.1109 -0.0657  0.1030
32901ION     NA48975  12.021   5.541  10.206  0.1313  0.0088  0.0882
32902ION     NA48976  16.361  10.974  10.313  0.0092 -0.0642 -0.2513
32903ION     NA48977  10.136  14.488  10.060 -0.0803 -0.1253  0.1236
32904ION     NA48978   7.069  16.054  14.737  0.2105 -0.1087  0.0356
32905ION     NA48979  14.563   0.995  15.307 -0.2023 -0.2160 -0.3303
32906ION     NA48980  18.370  14.659   5.794 -0.0359  0.3202  0.0487
32907ION     NA48981   0.591  10.414   2.692  0.0270  0.1432 -0.1702
32908ION     NA48982   5.932  15.474   3.499  0.0235  0.2650  0.0346
32909ION     NA48983   9.489   1.140  12.732 -0.2083 -0.0402  0.1576
32910ION     NA48984   0.502  12.785   0.304 -0.2651 -0.0901 -0.0778
32911ION     NA48985  11.447  18.105  10.017  0.1177 -0.2860 -0.0140
32912ION     NA48986   8.663   6.537   0.268 -0.0133  0.1967 -0.0434
32913ION     NA48987  13.162  14.029   0.073  0.0839 -0.0852  0.3675
32914ION     NA48988   7.724   6.485   1.012 -0.0107 -0.1086 -0.3272
32915ION     NA48989   8.502  11.681  10.194 -0.3029 -0.4599  0.1258
32916ION     NA48990   1.837   8.111  11.167  0.2532  0.2232 -0.1036
32917ION     NA48991   8.051  14.204   4.165 -0.3469  0.0656  0.0891
32918ION     NA48992  11.457   6.488  10.610  0.0166  0.0852 -0.2260
32919ION     NA48993   5.562  16.466  10.092 -0.0387 -0.2155  0.0902
32920ION     NA48994   9.600  12.569  14.387 -0.1155 -0.0620  0.2720
32921ION     NA48995   3.656   2.247  10.302 -0.0503 -0.0296  0.0545
32922ION     NA48996   0.561  15.335   5.767  0.1208 -0.2383 -0.3161
32923ION     NA48997   4.189  15.221  10.512  0.0335 -0.2431  0.1069
32924ION     NA48998  18.101  16.192   2.213  0.0575  0.4165 -0.1451
32925ION     NA48999  17.054   6.358  15.119 -0.2856  0.0104 -0.0531
32926ION     NA49000   3.025   1.605  10.397  0.0234 -0.4208  0.1190
32927ION     NA49001  11.239   7.956   5.588 -0.1274  0.2807  0.2135
32928ION     NA49002  16.406   2.844   9.899  0.0349  0.1096  0.1436
32929ION     NA49003   3.953  14.412   3.279 -0.0136 -0.3140 -0.1952
32930ION     NA49004   9.048  13.711  13.370  0.2675 -0.1364 -0.0789
32931ION     NA49005   9.350  16.881  10.085  0.3689  0.1725 -0.1096
32932ION     NA49006  10.435  10.588  11.531  0.1578 -0.0722 -0.2982
32933ION     NA49007  15.235  12.260   4.036 -0.2179 -0.1945  0.3273
32934ION     NA49008   8.322   5.213  12.206 -0.0965  0.1600 -0.3570
32935ION     NA49009   4.654  11.944  10.559 -0.0047  0.0178  0.1267
32936ION     NA49010   7.253   9.820  15.391 -0.4411 -0.2325  0.0764
32937ION     NA49011  17.361  10.947  10.450 -0.2484  0.1240 -0.0671
32938ION     NA49012  16.714  15.403  10.358  0.0509 -0.2077  0.4563
32939ION     NA49013  15.724   6.616   6.015  0.0217 -0.2471 -0.1536
32940ION     NA49014  15.979  11.922  10.519 -0.0791 -0.1951  0.2246
32941ION     NA49015   0.916   7.711   6.196  0.1852 -0.4950 -0.0484
32942ION     NA49016   3.027   5.581   5.347  0.1701 -0.2118  0.0281
32943ION     NA49017  14.772  13.213  10.474  0.0211  0.0148  0.1151
32944ION     NA49018   3.994  16.416  10.334 -0.2400 -0.0251  0.2955
32945ION     NA49019   8.493  15.868  11.767  0.3152  0.3484  0.0779
32946ION     NA49020  17.317   8.658  10.565 -0.0599 -0.0831 -0.2027
32947ION     NA49021  12.316   9.346  10.060 -0.1581 -0.0703  0.2009
32948ION     NA49022   4.598   2.929   0.220 -0.4593  0.2042  0.3390
32949ION     NA49023  11.077  18.550  10.158 -0.1357  0.0468 -0.3637
32950ION     NA49024   4.391   5.870  10.593  0.0550 -0.1202 -0.0566
32951ION     NA49025   4.072   2.390   4.569 -0.0335  0.2051 -0.1231
32952ION     NA49026  18.152  13.916  10.693 -0.2883 -0.2194  0.0079
32953ION     NA49027  11.647  14.162   5.953  0.2455  0.0359  0.0767
32954ION     NA49028   1.851  13.425   5.498  0.3419 -0.1264 -0.2596
32955ION     NA49029   7.059   4.267   5.950  0.1119  0.2553 -0.1859
32956ION     NA49030  10.681  17.114   1.135 -0.0547  0.3505 -0.1851
32957ION     NA49031  10.466  13.059  10.185  0.1726  0.2204  0.2132
32958ION     NA49032   5.157  11.820   2.984  0.2593  0.1380 -0.2221
32959ION     NA49033  10.689  16.759  10.111 -0.0963  0.1771  0.3142
32960ION     NA49034  15.156   5.998  10.258 -0.0987  0.3220 -0.4535
32961ION     NA49035   5.067   7.869  10.660 -0.2678  0.1469  0.1837
32962ION     NA49036   0.548   1.658   5.492 -0.0754  0.0072 -0.0171
32963ION     NA49037   6.814   8.359  10.279 -0.3606 -0.0972 -0.0297
32964ION     NA49038   0.161  14.598  13.929 -0.0474  0.2976 -0.3216
32965ION     NA49039  16.306   0.941  10.130  0.2268  0.0453  0.0044
32966ION     NA49040   4.164   6.893  14.029  0.0948  0.0711 -0.1921
32967ION     NA49041   1.652  11.584  15.240 -0.2975  0.1440  0.0032
32968ION     NA49042  10.602  14.349  10.361  0.0289  0.2186  0.0020
32969ION     NA49043  10.025   4.340  10.405 -0.1785  0.2636 -0.1619
32970ION     NA49044   2.936   0.627  10.467 -0.1770 -0.0642  0.0478
32971ION     NA49045   8.674   5.323  10.489  0.0124  0.0793 -0.1128
32972ION     NA49046  10.991  17.893   6.156  0.1857 -0.0730 -0.2660
32973ION     NA49047   9.143   4.372  10.673 -0.0855 -0.2305 -0.0849
32974ION     NA49048  12.286   6.680  14.090 -0.3056 -0.0756  0.2321
32975ION     NA49049  12.627   8.492   5.821  0.1045  0.1748  0.3912
32976ION     NA49050  16.627   2.490  14.298  0.0632  0.0734  0.1635
32977ION     NA49051   6.408  11.198   1.826  0.0810 -0.0399 -0.0100
32978ION     NA49052  11.775   4.040  10.144 -0.0636 -0.1892 -0.1685
32979ION     NA49053   0.713  10.682  10.605 -0.2150 -0.2881  0.0064
32980ION     NA49054   7.400  10.107   5.927  0.4036  0.0710  0.0412
32981ION     NA49055   8.098   8.081  10.391 -0.2940 -0.2007 -0.1156
32982ION     NA49056  11.656  11.349   9.915  0.1537 -0.1687 -0.2251
32983ION     NA49057   8.889  17.644  10.082  0.2661  0.2852 -0.0187
32984ION     NA49058  14.593   0.433   9.985 -0.1446 -0.0453 -0.0590
32985ION     NA49059   5.506   6.274   6.071  0.0895 -0.0675  0.1275
32986ION     NA49060  14.550  14.085  10.392  0.2495  0.0070 -0.2253
32987ION     NA49061  17.390   1.449  14.158 -0.4537 -0.1396 -0.0041
32988ION     NA49062  12.539   2.142  13.696 -0.0706 -0.2474  0.0845
32989ION     NA49063   6.119  10.598  10.374  0.3570 -0.1800 -0.1132
32990ION     NA49064   1.000  16.824   5.845  0.0271  0.2075 -0.1684
32991ION     NA49065   0.601  11.094   5.422 -0.5747  0.0235  0.0411
32992ION     NA49066   9.709   9.272   5.313 -0.1280 -0.3966  0.1092
32993ION     NA49067  13.823  13.628  10.225 -0.1141  0.3544 -0.2532
32994ION     NA49068  15.772  12.928  11.102 -0.3399  0.0824  0.0519
32995ION     NA49069   7.751  17.166  14.786  0.1457  0.0816  0.0823
32996ION     NA49070   8.555  16.182   9.986  0.0565  0.0941  0.0049
32997ION     NA49071   0.271  17.495  10.036  0.2648 -0.3610 -0.3193
32998ION     NA49072   1.588  17.800  10.440 -0.0560 -0.0063  0.1575
32999ION     NA49073  14.037  13.507  12.665  0.1424 -0.1258  0.3033
33000ION     NA49074  11.845  10.026   2.073  0.2930 -0.0682 -0.0284
33001ION     NA49075  15.656  12.844  10.600  0.1217 -0.2436  0.0550
33002ION     NA49076  11.948   7.778  10.137 -0.0126 -0.0539 -0.3269
33003ION     NA49077   4.153   7.264  10.740  0.1982  0.0572  0.1120
33004ION     NA49078   2.435   4.809  12.570  0.3980 -0.0932 -0.1150
33005ION     NA49079   5.896   8.083   5.608  0.2099  0.1900  0.0966
33006ION     NA49080  10.932   8.863  10.497 -0.0925  0.3323 -0.0686
33007ION     NA49081   3.575   3.071   2.564 -0.1574 -0.1287  0.0983
33008ION     NA49082   2.174  11.597  11.284  0.4136 -0.3018 -0.1419
33009ION     NA49083  14.207  15.770   0.391 -0.0430  0.0621  0.0516
33010ION     NA49084  13.895  17.072   0.813 -0.1545  0.1634 -0.1126
33011ION     NA49085  14.179  11.940   3.027  0.2531  0.1086 -0.3414
33012ION     NA49086   2.199  12.194  10.563  0.1781  0.1674 -0.1770
33013ION     NA49087   8.841   7.604  10.466 -0.3391  0.1338 -0.2898
33014ION     NA49088  16.806   4.257   3.043  0.2392  0.2137 -0.2071
33015ION     NA49089   2.561   0.141   4.055  0.2184  0.0356 -0.1865
33016ION     NA49090   6.566  15.733  12.841  0.3200  0.3946 -0.1966
33017ION     NA49091  12.388  12.252  15.372  0.0643  0.0835 -0.1413
33018ION     NA49092  12.346  10.200   9.915  0.0463  0.3004  0.1393
33019ION     NA49093  16.095   7.955  10.457 -0.1567 -0.2326 -0.0365
33020ION     NA49094   1.808  12.926  10.430  0.0968  0.1925  0.2223
33021ION     NA49095  10.660  17.590  13.347 -0.1600  0.1966  0.1257
33022ION     NA49096   4.488   6.911   4.537  0.3475 -0.1248 -0.6595
33023ION     NA49097   9.245  12.266   4.498  0.2653 -0.0991  0.2882
33024ION     NA49098   2.138   7.835  11.957  0.2051 -0.0969 -0.3706
33025ION     NA49099   6.320   2.848  10.392 -0.1336 -0.0546  0.0954
33026ION     NA49100   9.047  16.793   1.593 -0.0581 -0.2504  0.0540
33027ION     NA49101  16.609   4.628  10.222 -0.1926 -0.1848  0.1896
33028ION     NA49102   2.275   3.073  10.125 -0.0718  0.1045  0.0777
33029ION     NA49103   4.236  17.211   5.725 -0.2900 -0.2734 -0.2543
33030ION     NA49104   5.873  15.742  10.271  0.1876  0.1774 -0.2318
33031ION     NA49105  17.779  11.870  10.499 -0.3124 -0.2080  0.0259
33032ION     NA49106  12.689   1.752  10.253  0.1898 -0.1732 -0.1086
33033ION     NA49107  12.869  15.674   9.817  0.0181  0.1703  0.2370
33034ION     NA49108  10.968  15.642  10.061 -0.1192  0.1456 -0.0068
33035ION     NA49109  12.487   3.719  15.417  0.1015  0.1045 -0.2757
33036ION     NA49110   8.257  17.789   9.686 -0.0768  0.2145  0.3992
33037ION     NA49111   5.750   6.327  10.812 -0.0836  0.1964 -0.3051
33038ION     NA49112   9.533  10.954  10.431 -0.2754 -0.0553  0.0443
33039ION     NA49113   9.931   9.878  10.605 -0.0298  0.1129 -0.0921
33040ION     NA49114  18.407   1.634   2.877 -0.0949  0.1391  0.0476
33041ION     NA49115   9.485  15.480   2.665  0.1721  0.0273  0.1877
33042ION     NA49116  17.912   4.251  15.629 -0.1593 -0.1044  0.2011
33043ION     NA49117   8.250  17.460   0.494 -0.2403  0.0605  0.0203
33044ION     NA49118  13.998  16.618  13.657  0.4123 -0.1025 -0.0534
33045ION     NA49119   8.083   6.057  10.552  0.0363  0.2315  0.0958
33046ION     NA49120  15.157   9.934  10.579  0.0870  0.0553 -0.2531
33047ION     NA49121   3.621  11.026   0.171  0.1115 -0.1311  0.1890
33048ION     NA49122   7.783   1.434   5.828  0.5475 -0.1093  0.1023
33049ION     NA49123   6.952   2.988   5.468  0.1382  0.0769  0.3573
33050ION     NA49124  11.654   0.772  10.216  0.4580 -0.1939 -0.3142
33051ION     NA49125  11.674   5.038  11.409 -0.0768  0.0333 -0.0022
33052ION     NA49126  16.135  10.560   2.785 -0.1809  0.0561 -0.1040
33053ION     NA49127  15.008   3.234   4.728 -0.3647  0.1305  0.1006
33054ION     NA49128   1.494  17.206   5.285  0.1366  0.0908 -0.2707
33055ION     NA49129  11.582   8.635  10.111 -0.3846  0.0922 -0.3502
33056ION     NA49130  11.908   3.599  13.672 -0.0114 -0.1772 -0.1115
33057ION     NA49131  11.456  13.189  10.288 -0.1761 -0.0723 -0.0953
33058ION     NA49132   1.524  14.970   5.774 -0.3697 -0.0212  0.3705
33059ION     NA49133  13.148   5.216   0.447 -0.1766  0.3120  0.2467
33060ION     NA49134   9.728  14.199  10.224 -0.0581 -0.1897 -0.2349
33061ION     NA49135   7.602  13.149  10.359  0.2528  0.0586 -0.3715
33062ION     NA49136   2.188   0.368  10.572 -0.1472 -0.0608 -0.0425
33063ION     NA49137   4.779  11.098  14.242 -0.2282 -0.0553  0.1279
33064ION     NA49138   5.176  11.463   5.644 -0.0367  0.0184 -0.0716
33065ION     NA49139  13.905   9.571  10.192  0.1603 -0.0435 -0.2339
33066ION     NA49140   9.919   7.464   2.318  0.4045 -0.1096  0.0114
33067ION     NA49141  10.414  10.388   5.862  0.0102 -0.0648  0.0889
33068ION     NA49142   2.360  11.351  10.294 -0.0653  0.2395  0.1849
33069ION     NA49143  16.035   1.218  10.465  0.0398  0.0942 -0.0119
33070ION     NA49144   3.917   4.982  10.556  0.0586 -0.0025  0.1416
33071ION     NA49145   0.308  13.138  10.765  0.2097  0.0296  0.1077
33072ION     NA49146  10.156   7.076  10.623  0.1231  0.0716  0.0452
33073ION     NA49147   8.833   6.305  14.120  0.0417 -0.0403 -0.0851
33074ION     NA49148  15.011   7.651   3.224  0.1140 -0.1114 -0.1500
33075ION     NA49149  12.368   6.172  11.420 -0.0495 -0.2828  0.0261
33076ION     NA49150   3.713   1.680  13.101  0.3259  0.0327  0.2816
33077ION     NA49151   1.394  12.129   2.189 -0.2090  0.1143 -0.0115
33078ION     NA49152   8.098  11.242  13.755 -0.0351 -0.3184 -0.0521
33079ION     NA49153  18.293   3.866  10.437  0.1539 -0.1838 -0.0345
33080ION     NA49154  15.927   5.983  10.278  0.1317  0.0063  0.5054
33081ION     NA49155   0.830  11.415  11.209 -0.1534 -0.3190 -0.0781
33082ION     NA49156   5.345   0.467   2.918  0.0608 -0.0361 -0.2297
33083ION     NA49157   7.553   6.664  12.770  0.0385  0.2188 -0.0889
33084ION     NA49158   3.646  12.431   5.374 -0.1710  0.2249  0.2103
33085ION     NA49159  10.225   5.718  15.762 -0.2486 -0.1290  0.4101
33086ION     NA49160  18.183   6.556  10.171 -0.1227  0.0421  0.1676
33087ION     NA49161  14.206  11.322  10.080 -0.1268  0.0389 -0.0624
33088ION     NA49162   0.963   8.740   3.521 -0.0694  0.0775 -0.0649
33089ION     NA49163   2.537  15.515  10.354 -0.0323 -0.3280 -0.3853
33090ION     NA49164   3.139  13.626  10.392 -0.0797  0.2196 -0.0177
33091ION     NA49165   8.740   6.640  10.270 -0.1556 -0.2896 -0.1480
33092ION     NA49166   4.243  13.734  11.175  0.1203  0.3391  0.1248
33093ION     NA49167   9.068   3.824  11.292  0.1134  0.4328  0.0118
33094ION     NA49168  13.809   7.175  10.199 -0.0742  0.2436  0.1311
33095ION     NA49169   7.767   7.647   5.329 -0.1608  0.0077 -0.5523
33096ION     NA49170   5.290  13.084   1.145 -0.0538 -0.4929 -0.1880
33097ION     NA49171   0.105   1.984   1.269 -0.1906 -0.1019 -0.1019
33098ION     NA49172   0.666  17.536   1.198  0.3192  0.0920 -0.4631
33099ION     NA49173   8.918   0.374  10.036  0.0977 -0.1068  0.2514
33100ION     NA49174  11.357   7.940  10.438 -0.4948 -0.1855 -0.3407
33101ION     NA49175  15.411   2.577   9.843  0.0314 -0.2215  0.1404
33102ION     NA49176  14.813  10.544  10.041 -0.2029  0.0865 -0.1756
33103ION     NA49177   3.699   2.754  10.136  0.4504  0.1842  0.2534
33104ION     NA49178   1.667  13.012  13.819 -0.1550  0.4577  0.0988
33105ION     NA49179  11.514  10.646  16.021 -0.0386  0.2415 -0.1292
33106ION     NA49180   5.896  14.431  10.265  0.1918  0.0990 -0.0982
33107ION     NA49181  14.634   5.071   5.765  0.0473  0.2133 -0.3452
33108ION     NA49182  13.776  10.517  10.037  0.2429  0.1612  0.3627
33109ION     NA49183  12.342  15.995   4.358 -0.1559  0.2550  0.1566
33110ION     NA49184  12.600  11.489   9.813  0.1855  0.0382 -0.1307
33111ION     NA49185  17.580   6.972   6.071  0.3185 -0.3913 -0.2965
33112ION     NA49186  16.129  13.080   2.924  0.2298  0.3511  0.0430
33113ION     NA49187   7.552  16.257   9.994  0.0764  0.1760  0.1026
33114ION     NA49188   3.802  11.481  10.481 -0.2059  0.3430  0.0451
33115ION     NA49189   0.325   0.002   2.212  0.1751  0.0598 -0.0195
33116ION     NA49190  12.533   3.427   5.396 -0.3101 -0.1575  0.0121
33117ION     NA49191   1.698   1.322   1.271 -0.2724 -0.2045  0.2989
33118ION     NA49192  14.749  13.890   3.826 -0.0891 -0.1436 -0.2751
33119ION     NA49193  16.492  12.523  10.377  0.1283  0.0794  0.2987
33120ION     NA49194  13.149   6.658  15.261  0.0586 -0.5455  0.3041
33121ION     NA49195   0.552  13.612   6.190  0.0280  0.4457  0.0508
33122ION     NA49196   0.032   7.074  10.949 -0.1590  0.4265  0.0323
33123ION     NA49197  15.130   1.974   2.969  0.0955 -0.0803 -0.1436
33124ION     NA49198  17.204  11.376   6.166  0.0612 -0.0261 -0.0103
33125ION     NA49199   0.638   5.652  10.630  0.0683 -0.0621 -0.0977
33126ION     NA49200  16.914  12.806  10.447 -0.0632  0.1781  0.2168
33127ION     NA49201  12.790   2.560  14.133  0.2491  0.2201  0.1013
33128ION     NA49202  16.671   7.136  10.343  0.0990 -0.1641 -0.5266
33129ION     NA49203   3.518   9.325  10.757  0.1032 -0.0942  0.3777
33130ION     NA49204   8.494   2.080   5.940  0.0942  0.2248 -0.0955
33131ION     NA49205   1.251   2.075  10.161  0.3445 -0.0170 -0.0285
33132ION     NA49206  11.344   5.751  14.081 -0.0716  0.3478 -0.0849
33133ION     NA49207   2.254   2.128  10.151  0.0036 -0.3734  0.3125
33134ION     NA49208   9.316   0.424   2.097 -0.0571 -0.1720 -0.0114
33135ION     NA49209  17.737   2.157  10.166  0.1260 -0.0001 -0.0151
33136ION     NA49210  15.877   8.819   5.694 -0.0085  0.1380  0.1568
33137ION     NA49211   0.084  11.460   4.150 -0.2871 -0.2503  0.0359
33138ION     NA49212  10.078   8.504   5.745  0.1301 -0.2553 -0.0225
33139ION     NA49213   4.264  10.064  10.710 -0.2527  0.1381 -0.3757
33140ION     NA49214   4.075   0.389  11.862 -0.2890 -0.0780  0.1459
33141ION     NA49215  16.909  12.827   2.083 -0.2272 -0.1058  0.3058
33142ION     NA49216   2.002  15.816   5.469 -0.0320 -0.0997  0.3459
33143ION     NA49217  14.920   1.987   9.996  0.4511  0.0711  0.2055
33144ION     NA49218   3.092   9.467   6.211 -0.1000  0.3478  0.0901
33145ION     NA49219   6.070   1.705   2.311 -0.0330 -0.1174  0.0481
33146ION     NA49220   9.380   4.917   5.702 -0.0129 -0.2028  0.0803
33147ION     NA49221  18.075   0.437   9.975 -0.0708  0.2036  0.0350
33148ION     NA49222   8.090   7.126  10.321  0.3543  0.1306  0.1555
33149ION     NA49223  13.304  14.906   5.859 -0.2563  0.0201  0.2233
33150ION     NA49224  14.149   4.450  10.006 -0.1528 -0.3162 -0.0704
33151ION     NA49225   7.062  10.863  10.311 -0.1387  0.0780 -0.1637
33152ION     NA49226   5.661   5.360  10.707 -0.0033 -0.2253  0.0576
33153ION     NA49227  12.933   5.579  10.315  0.3147  0.0095 -0.0226
33154ION     NA49228   2.528  12.917   0.784 -0.1338 -0.0389 -0.0104
33155ION     NA49229  13.606   8.998  10.187  0.1907  0.0093  0.0179
33156ION     NA49230  14.825   1.063   9.921  0.1712 -0.0090  0.2240
33157ION     NA49231   3.570  13.270   3.730 -0.2956  0.1146 -0.1742
33158ION     NA49232  14.722   2.188   5.122 -0.2065 -0.1646 -0.0674
33159ION     NA49233   8.538  13.439  10.503  0.0930  0.1320 -0.1867
33160ION     NA49234  10.195   7.838  10.343 -0.1708 -0.0782 -0.1762
33161ION     NA49235   8.388  12.114  14.025 -0.1153  0.0565 -0.1136
33162ION     NA49236   5.036   5.817  11.203  0.2013 -0.1958 -0.1678
33163ION     NA49237  12.463  17.495  10.367 -0.0236 -0.0504  0.0415
33164ION     NA49238   7.385   1.575  10.188 -0.0318  0.1541 -0.0305
33165ION     NA49239  10.836   0.967   5.765  0.2263 -0.0124 -0.0017
33166ION     NA49240   2.017   7.270  10.761  0.0827  0.3277  0.2358
33167ION     NA49241  12.566  16.069   2.471  0.2431  0.2071  0.0008
33168ION     NA49242  12.286   2.024   3.012 -0.0324  0.1072  0.0542
33169ION     NA49243  13.053   4.466   5.208  0.4644 -0.3999 -0.3721
33170ION     NA49244  15.013  12.440  10.306 -0.1789 -0.0046  0.3267
33171ION     NA49245   8.476   8.553   5.828 -0.0429  0.0195  0.0304
33172ION     NA49246  12.242  13.540  10.290 -0.2357 -0.0809 -0.3823
33173ION     NA49247  14.232   5.858  10.065 -0.3028  0.1080 -0.0301
33174ION     NA49248   9.320  16.211   9.933  0.1449 -0.0273 -0.0038
33175ION     NA49249  10.786  16.439   5.351  0.0139  0.0973  0.0267
33176ION     NA49250   9.445   3.554  10.241  0.0913 -0.1861 -0.1355
33177ION     NA49251   8.518   5.324   5.887  0.1506 -0.1216 -0.0359
33178ION     NA49252  17.110  11.910   6.083 -0.0614  0.0202 -0.1051
33179ION     NA49253   5.516   7.132   5.458 -0.2036 -0.0738 -0.3526
33180ION     NA49254   1.196  13.658   1.532  0.0126  0.0522 -0.0130
33181ION     NA49255  14.637   8.538   5.428 -0.1012 -0.3357  0.1751
33182ION     NA49256  15.824  11.865   1.316  0.1098  0.1247 -0.0229
33183ION     NA49257   1.668   2.687   2.307  0.1700 -0.1151 -0.2870
33184ION     NA49258  10.340   5.191   3.045 -0.2166 -0.3036  0.2631
33185ION     NA49259   7.148  12.198  11.686  0.0640 -0.0995  0.0634
33186ION     NA49260  17.002  11.909  10.317  0.0296 -0.0508 -0.0135
33187ION     NA49261   1.078   2.858  10.467 -0.2042  0.2284 -0.1766
  18.57043  18.57043  16.03138
