INSANE! Membrane UpperLeaflet>loPI:POPI:DPPI:PYPI:ERGO=180.0:5.0:3.0:2.0:10.0 LowerLeaflet>PSPI:POPI:POPS:YOPS:POPE:YOPE:POPC:YOPC:ERGO=6.0:14.0:21.0:9.0:9.0:21.0:12.0:48.0:60.0
49261
    1loPI    C1    1  14.017   2.295   9.963  0.0391 -0.0567  0.0769
    1loPI    C2    2  14.332   2.239  10.202  0.1590 -0.0034 -0.0674
    1loPI    C3    3  13.962   2.217  10.352  0.2308 -0.0530  0.1055
    1loPI   PO4    4  14.022   2.221   9.783 -0.3984 -0.0849 -0.0470
    1loPI   GL1    5  13.973   2.367   9.409 -0.1035 -0.2733  0.4593
    1loPI   GL2    6  14.308   2.310   9.403 -0.0557  0.0913  0.1173
    1loPI   C1A    7  13.656   2.403   9.033  0.0420  0.2625 -0.0331
    1loPI   C2A    8  13.494   2.310   8.710  0.0234  0.1026 -0.3512
    1loPI   C3A    9  13.509   2.016   8.391  0.1703 -0.2674 -0.2010
    1loPI   C4A   10  13.585   1.901   7.999  0.1028  0.1705  0.0508
    1loPI   C5A   11  13.878   1.785   7.667 -0.4789 -0.1092 -0.1494
    1loPI   C6A   12  14.132   1.837   7.280  0.0903 -0.1473  0.3593
    1loPI   C1B   13  14.195   2.572   9.061 -0.0888 -0.2808  0.0525
    1loPI   C2B   14  14.324   2.717   8.665  0.0898 -0.1585 -0.2347
    1loPI   C3B   15  14.340   2.842   8.257  0.0724  0.2236 -0.1359
    1loPI   C4B   16  14.068   2.771   8.023  0.0724  0.3453 -0.2372
    2loPI    C1   17  10.611   3.469   9.927 -0.0090  0.1117  0.2538
    2loPI    C2   18  10.352   3.765   9.851 -0.1361 -0.0136  0.1935
    2loPI    C3   19  10.217   3.398   9.939  0.0213 -0.0774  0.1729
    2loPI   PO4   20  10.852   3.598   9.831  0.0902  0.2447 -0.1247
    2loPI   GL1   21  11.049   3.728   9.385 -0.2571  0.2553 -0.0575
    2loPI   GL2   22  10.653   3.718   9.366 -0.3464 -0.1510 -0.3728
    2loPI   C1A   23  11.184   3.607   9.010 -0.1515 -0.0396  0.0451
    2loPI   C2A   24  11.170   3.929   8.644  0.1245 -0.5792  0.1292
    2loPI   C3A   25  11.265   3.888   8.306  0.0682 -0.0271  0.3258
    2loPI   C4A   26  11.041   3.962   7.868 -0.0168 -0.3428  0.1317
    2loPI   C5A   27  11.003   3.969   7.444 -0.0410 -0.0121  0.2991
    2loPI   C6A   28  11.330   3.622   7.288  0.5688 -0.2061 -0.0638
    2loPI   C1B   29  10.703   3.322   9.142  0.1346 -0.0075  0.2322
    2loPI   C2B   30  10.730   3.440   8.815  0.0062  0.1715 -0.1265
    2loPI   C3B   31  10.500   3.347   8.435  0.1340  0.1142 -0.2194
    2loPI   C4B   32  10.346   3.544   8.010 -0.0397 -0.1281  0.3408
    3loPI    C1   33  14.749  18.607   9.611  0.0924 -0.0484 -0.2277
    3loPI    C2   34  15.145  18.661   9.597  0.1027 -0.0703 -0.0459
    3loPI    C3   35  14.977  18.502   9.923 -0.0569 -0.0535 -0.1193
    3loPI   PO4   36  14.661  18.740   9.379 -0.0810 -0.3314  0.0095
    3loPI   GL1   37  14.571  18.688   9.009 -0.1302  0.1876  0.0637
    3loPI   GL2   38  14.415  18.692   8.713  0.0952  0.3187  0.2320
    3loPI   C1A   39  14.812  18.952   8.766 -0.3564  0.0280 -0.4131
    3loPI   C2A   40  14.935  19.139   8.364 -0.1025  0.0250  0.1145
    3loPI   C3A   41  15.312  19.186   8.054 -0.0218  0.2004  0.1837
    3loPI   C4A   42  15.511  19.190   7.740 -0.0683  0.0982  0.2050
    3loPI   C5A   43  15.483  19.157   7.318  0.0723  0.1604 -0.0241
    3loPI   C6A   44  15.731  19.456   7.158  0.0820  0.0386 -0.0485
    3loPI   C1B   45  14.744  18.661   8.297 -0.0750  0.0044  0.4715
    3loPI   C2B   46  14.946  18.736   7.940 -0.2222 -0.5392  0.3868
    3loPI   C3B   47  15.127  18.838   7.587 -0.4494  0.0484 -0.4004
    3loPI   C4B   48  15.136  18.745   7.075  0.2447 -0.1221 -0.3408
    4loPI    C1   49  10.610   0.336  10.210  0.0034  0.0705  0.0113
    4loPI    C2   50  10.820   0.007  10.123 -0.1097 -0.0085  0.0349
    4loPI    C3   51  10.465  -0.025  10.304 -0.0776  0.1317  0.1239
    4loPI   PO4   52  10.646   0.518   9.943 -0.0989 -0.1083 -0.2874
    4loPI   GL1   53  10.841   0.608   9.667 -0.2036 -0.1330  0.6951
    4loPI   GL2   54  10.592   0.991   9.614 -0.2066 -0.1974 -0.1139
    4loPI   C1A   55  10.824   0.561   9.224  0.2653 -0.0083  0.1421
    4loPI   C2A   56  10.869   0.591   8.844 -0.3332  0.1127 -0.4688
    4loPI   C3A   57  10.936   0.594   8.364  0.1907  0.2090  0.0336
    4loPI   C4A   58  10.859   0.470   7.884  0.1494  0.0989 -0.1192
    4loPI   C5A   59  10.920   0.757   7.459 -0.0276 -0.0855 -0.0434
    4loPI   C6A   60  10.991   1.084   7.274 -0.0871  0.0877 -0.2581
    4loPI   C1B   61  10.595   0.979   9.107 -0.1961 -0.0373 -0.0053
    4loPI   C2B   62  10.602   0.882   8.593  0.2644  0.0743 -0.0779
    4loPI   C3B   63  10.479   1.026   8.258  0.1334 -0.1090  0.1376
    4loPI   C4B   64  10.590   1.003   7.862 -0.3251 -0.0791  0.1766
    5loPI    C1   65   7.822   5.193  10.809  0.0364  0.1994  0.1291
    5loPI    C2   66   7.482   5.321  10.976 -0.2220 -0.4507  0.1300
    5loPI    C3   67   7.739   5.100  11.189 -0.0434 -0.3931 -0.0230
    5loPI   PO4   68   7.698   5.061  10.536 -0.3022 -0.2394  0.1229
    5loPI   GL1   69   7.454   4.894  10.228  0.2778 -0.0507  0.2589
    5loPI   GL2   70   7.591   4.847   9.873  0.0362  0.0670 -0.0522
    5loPI   C1A   71   7.022   4.809   9.919  0.2332  0.1394  0.1635
    5loPI   C2A   72   6.970   5.035   9.542  0.0962  0.0113  0.0558
    5loPI   C3A   73   6.710   5.229   9.133 -0.0538  0.2704  0.0504
    5loPI   C4A   74   6.630   5.186   8.667  0.0850  0.1323  0.1870
    5loPI   C5A   75   6.786   4.924   8.158 -0.0337 -0.2430  0.0036
    5loPI   C6A   76   6.851   4.887   7.701 -0.2902  0.3179  0.1513
    5loPI   C1B   77   7.627   4.812   9.341  0.0337  0.0576  0.0897
    5loPI   C2B   78   7.636   4.854   8.914  0.0482 -0.0533 -0.3899
    5loPI   C3B   79   7.390   4.788   8.482 -0.1342 -0.2204 -0.0741
    5loPI   C4B   80   7.284   4.637   7.991 -0.0512 -0.0522 -0.4823
    6loPI    C1   81   7.408  18.901   9.803 -0.1728  0.0297 -0.1401
    6loPI    C2   82   7.056  18.979   9.977 -0.0044  0.1337  0.1617
    6loPI    C3   83   7.290  18.688  10.120  0.0680  0.1170  0.0114
    6loPI   PO4   84   7.471  18.767   9.582 -0.0199 -0.0405  0.4557
    6loPI   GL1   85   7.175  18.512   9.292  0.0887 -0.1531 -0.4614
    6loPI   GL2   86   7.121  18.818   9.073 -0.0808 -0.1685  0.0701
    6loPI   C1A   87   7.263  18.326   8.954  0.0762 -0.1815 -0.0605
    6loPI   C2A   88   7.355  18.379   8.551  0.0971  0.0763  0.3551
    6loPI   C3A   89   7.556  18.348   8.193 -0.0901 -0.1006  0.1663
    6loPI   C4A   90   7.621  18.442   7.725 -0.1410  0.0971 -0.0751
    6loPI   C5A   91   7.883  18.398   7.398 -0.0097 -0.2061 -0.0571
    6loPI   C6A   92   7.743  18.241   6.924  0.0903 -0.0808 -0.4269
    6loPI   C1B   93   7.150  18.948   8.654 -0.0078  0.1169 -0.0518
    6loPI   C2B   94   7.080  18.680   8.315  0.1020  0.0095  0.0250
    6loPI   C3B   95   7.091  18.751   7.882  0.0442 -0.0076  0.1278
    6loPI   C4B   96   7.128  18.946   7.500 -0.0188 -0.1797 -0.0149
    7loPI    C1   97   2.708   4.955   9.971  0.0531  0.1582 -0.1904
    7loPI    C2   98   2.753   5.176  10.301 -0.0845 -0.0022 -0.0625
    7loPI    C3   99   2.438   4.933  10.265  0.1059 -0.2378 -0.1662
    7loPI   PO4  100   2.967   4.887   9.964  0.3572  0.1998 -0.0221
    7loPI   GL1  101   3.277   4.901   9.713  0.3076 -0.1620 -0.0379
    7loPI   GL2  102   3.221   5.260   9.629 -0.1801  0.0421  0.0466
    7loPI   C1A  103   3.399   4.791   9.289 -0.1229 -0.4304 -0.0777
    7loPI   C2A  104   3.488   4.573   8.849  0.0429 -0.0882 -0.1372
    7loPI   C3A  105   3.495   4.361   8.348 -0.0772  0.0584  0.0496
    7loPI   C4A  106   3.783   4.114   8.063 -0.2256 -0.1993  0.0320
    7loPI   C5A  107   3.744   3.866   7.704  0.1337 -0.0524  0.2521
    7loPI   C6A  108   3.351   3.895   7.512  0.2308  0.0986  0.0586
    7loPI   C1B  109   3.543   5.299   9.228 -0.0086  0.0343  0.1042
    7loPI   C2B  110   3.629   5.028   8.862 -0.2728  0.4229 -0.0065
    7loPI   C3B  111   3.961   4.841   8.705 -0.2177  0.4433 -0.3085
    7loPI   C4B  112   4.428   4.816   8.509  0.1695 -0.3630  0.0423
    8loPI    C1  113   0.370  10.692   9.537 -0.1208  0.0201 -0.2219
    8loPI    C2  114   0.290  10.352   9.733 -0.0088  0.0468 -0.1293
    8loPI    C3  115   0.002  10.625   9.680  0.0250  0.1595  0.2353
    8loPI   PO4  116   0.471  10.471   9.280 -0.0062 -0.0260 -0.0345
    8loPI   GL1  117   0.440  10.229   8.952 -0.2776  0.1579  0.4356
    8loPI   GL2  118   0.297  10.556   8.789  0.3083  0.0404  0.0995
    8loPI   C1A  119   0.640  10.224   8.501 -0.2118  0.0817  0.2329
    8loPI   C2A  120   0.551  10.209   8.140  0.2751  0.2397  0.2391
    8loPI   C3A  121   0.474  10.140   7.873 -0.3441  0.1176 -0.0520
    8loPI   C4A  122   0.212  10.108   7.610 -0.1996 -0.1122 -0.1056
    8loPI   C5A  123   0.053  10.145   7.319  0.2479 -0.0169  0.0349
    8loPI   C6A  124  -0.297  10.355   7.051 -0.0953 -0.1056  0.2109
    8loPI   C1B  125   0.455  10.766   8.431  0.3672  0.2385 -0.0536
    8loPI   C2B  126   0.670  10.695   8.087  0.0842  0.1036 -0.0653
    8loPI   C3B  127   1.134  10.637   7.909 -0.0960 -0.1256  0.1093
    8loPI   C4B  128   1.469  10.417   7.704  0.3601  0.2874  0.1405
    9loPI    C1  129  10.849   0.972  10.153 -0.0755 -0.0907 -0.0300
    9loPI    C2  130  10.866   0.666  10.410 -0.0849  0.0745  0.1708
    9loPI    C3  131  10.805   1.037  10.546 -0.1733  0.1537 -0.0794
    9loPI   PO4  132  11.022   0.956   9.958 -0.1703 -0.0392  0.1915
    9loPI   GL1  133  11.189   1.005   9.650 -0.0036  0.0795 -0.0186
    9loPI   GL2  134  11.031   1.202   9.444 -0.0239 -0.3230 -0.1976
    9loPI   C1A  135  11.247   0.881   9.127  0.0161 -0.2005 -0.3211
    9loPI   C2A  136  11.218   0.958   8.707 -0.1279  0.1798  0.2070
    9loPI   C3A  137  11.251   0.918   8.249  0.3961 -0.3840 -0.1281
    9loPI   C4A  138  11.113   0.950   7.930  0.4954 -0.0395  0.1560
    9loPI   C5A  139  10.954   1.320   7.834  0.1810 -0.3481  0.0652
    9loPI   C6A  140  11.045   1.722   8.070  0.1573 -0.2636  0.1337
    9loPI   C1B  141  11.003   1.286   9.059 -0.0880 -0.0927  0.1798
    9loPI   C2B  142  10.975   1.288   8.500  0.0619  0.2656 -0.0644
    9loPI   C3B  143  10.646   1.509   8.263  0.0199  0.2176  0.0414
    9loPI   C4B  144  10.342   1.640   7.986  0.1135 -0.5137 -0.0402
   10loPI    C1  145  12.643  18.986   9.661 -0.1947 -0.3861  0.0635
   10loPI    C2  146  12.431  18.955   9.998 -0.2179  0.1223  0.1023
   10loPI    C3  147  12.793  19.126  10.004 -0.1065 -0.1006 -0.0886
   10loPI   PO4  148  12.417  19.012   9.435 -0.2522 -0.2250  0.0289
   10loPI   GL1  149  12.288  18.726   9.154 -0.2908  0.1057 -0.0276
   10loPI   GL2  150  11.991  18.948   9.171  0.3602 -0.0183  0.2013
   10loPI   C1A  151  12.117  18.546   8.763  0.1513  0.4219 -0.0147
   10loPI   C2A  152  12.052  18.438   8.341 -0.0084  0.1246 -0.3025
   10loPI   C3A  153  12.273  18.608   7.961 -0.1161  0.2751 -0.2300
   10loPI   C4A  154  12.432  18.878   7.659  0.4478  0.0290  0.0807
   10loPI   C5A  155  12.381  19.059   7.236 -0.0107 -0.1775 -0.4482
   10loPI   C6A  156  12.019  19.145   6.860  0.1139  0.2845  0.1731
   10loPI   C1B  157  12.072  19.021   8.721  0.1646 -0.0648  0.2008
   10loPI   C2B  158  12.127  19.007   8.287 -0.0822  0.3311 -0.2404
   10loPI   C3B  159  12.153  19.229   7.887  0.0268  0.0096  0.0827
   10loPI   C4B  160  12.057  19.324   7.557 -0.2213 -0.4402 -0.1627
   11loPI    C1  161  11.597  17.996  10.064 -0.2726 -0.1166 -0.0569
   11loPI    C2  162  11.909  17.850  10.269 -0.1733 -0.1484 -0.2287
   11loPI    C3  163  11.545  17.858  10.436 -0.0444  0.0783  0.0499
   11loPI   PO4  164  11.658  18.035   9.711 -0.2399 -0.1528 -0.0590
   11loPI   GL1  165  11.678  18.385   9.418 -0.3364 -0.1410  0.0063
   11loPI   GL2  166  11.328  18.495   9.354  0.2526  0.0816  0.1186
   11loPI   C1A  167  11.873  18.215   9.056 -0.1493 -0.0913  0.0273
   11loPI   C2A  168  11.662  18.183   8.722  0.1400 -0.1950 -0.2007
   11loPI   C3A  169  11.569  18.261   8.275 -0.0124  0.0832 -0.0437
   11loPI   C4A  170  11.418  18.008   7.816 -0.0702 -0.0353 -0.1314
   11loPI   C5A  171  11.171  18.064   7.501 -0.1039  0.0768  0.0656
   11loPI   C6A  172  11.035  18.466   7.449 -0.0840  0.2349 -0.2126
   11loPI   C1B  173  11.637  18.643   8.926 -0.0381 -0.0264 -0.0411
   11loPI   C2B  174  11.666  18.742   8.573 -0.0336 -0.0442 -0.1925
   11loPI   C3B  175  11.728  18.735   8.137  0.0623  0.0807  0.0982
   11loPI   C4B  176  11.824  18.803   7.808  0.3372  0.2837  0.2763
   12loPI    C1  177  11.796   2.484   9.805 -0.0408 -0.1617 -0.0802
   12loPI    C2  178  11.585   2.700  10.067  0.0491 -0.2449  0.0624
   12loPI    C3  179  11.919   2.514  10.185 -0.0469 -0.4910 -0.0492
   12loPI   PO4  180  11.788   2.607   9.651  0.0710  0.4089  0.1251
   12loPI   GL1  181  11.499   2.737   9.366  0.0095  0.3030  0.0523
   12loPI   GL2  182  11.858   2.916   9.295 -0.1993  0.0399 -0.0180
   12loPI   C1A  183  11.549   2.708   8.913 -0.2925 -0.0465 -0.0044
   12loPI   C2A  184  11.702   2.725   8.537 -0.0182  0.1671  0.2768
   12loPI   C3A  185  11.598   2.528   8.179  0.0818 -0.2739  0.1198
   12loPI   C4A  186  11.812   2.547   7.789  0.0599 -0.2534 -0.2005
   12loPI   C5A  187  11.996   2.806   7.501  0.1860 -0.0761  0.1295
   12loPI   C6A  188  12.126   3.041   7.221 -0.2375 -0.2598  0.0253
   12loPI   C1B  189  11.878   3.098   8.914  0.0996 -0.1312  0.1056
   12loPI   C2B  190  11.845   3.213   8.489 -0.2942 -0.2609 -0.1536
   12loPI   C3B  191  11.648   3.400   8.204 -0.3040 -0.6392 -0.1468
   12loPI   C4B  192  11.380   3.605   7.912  0.0308  0.1956 -0.2489
   13loPI    C1  193  11.163  16.509   9.932 -0.1163  0.0585  0.2251
   13loPI    C2  194  11.412  16.205  10.004 -0.0924  0.0091 -0.0533
   13loPI    C3  195  11.423  16.531  10.236  0.0738 -0.0860  0.0759
   13loPI   PO4  196  11.165  16.547   9.596  0.0488  0.0292 -0.0246
   13loPI   GL1  197  11.438  16.870   9.428  0.2262  0.1022 -0.0332
   13loPI   GL2  198  11.626  16.699   9.323  0.0674 -0.3486  0.0248
   13loPI   C1A  199  11.306  16.980   8.997  0.0807  0.1926 -0.0726
   13loPI   C2A  200  11.290  17.327   8.577 -0.0066  0.1917 -0.5426
   13loPI   C3A  201  11.443  17.276   8.173 -0.3710  0.0779 -0.1520
   13loPI   C4A  202  11.618  17.369   7.765 -0.0022 -0.1555 -0.1510
   13loPI   C5A  203  11.966  17.615   7.540 -0.2061  0.2254  0.1094
   13loPI   C6A  204  11.849  17.968   7.265  0.3733  0.0126  0.0454
   13loPI   C1B  205  11.539  16.578   8.987  0.3871 -0.0469 -0.0300
   13loPI   C2B  206  11.457  16.774   8.584  0.0349  0.2591  0.4838
   13loPI   C3B  207  11.404  16.816   8.152  0.2370  0.2073  0.1209
   13loPI   C4B  208  11.407  16.571   7.730  0.4794 -0.0299 -0.1074
   14loPI    C1  209  16.738   3.137   9.631 -0.1346 -0.1160  0.0737
   14loPI    C2  210  16.520   3.471   9.649 -0.0895 -0.0701 -0.1887
   14loPI    C3  211  16.666   3.310   9.985 -0.1578  0.1418 -0.0547
   14loPI   PO4  212  16.933   3.162   9.511  0.0047  0.1361 -0.2660
   14loPI   GL1  213  17.272   3.292   9.246 -0.2886 -0.1157  0.0055
   14loPI   GL2  214  17.186   3.199   8.932  0.1097  0.1985 -0.2165
   14loPI   C1A  215  17.447   3.580   9.048 -0.2702 -0.0824  0.1012
   14loPI   C2A  216  17.381   4.106   8.942  0.2187 -0.0367  0.2225
   14loPI   C3A  217  17.516   4.393   8.527  0.1303  0.0966 -0.1101
   14loPI   C4A  218  17.418   4.335   8.129  0.2998 -0.0263  0.2070
   14loPI   C5A  219  17.585   4.241   7.774  0.0212 -0.1350 -0.3486
   14loPI   C6A  220  17.973   4.215   7.584 -0.1009 -0.0886 -0.3128
   14loPI   C1B  221  16.807   3.187   8.648  0.0797  0.2918 -0.1168
   14loPI   C2B  222  16.745   3.212   8.283  0.3798  0.0337  0.2243
   14loPI   C3B  223  16.721   3.555   7.995  0.2260  0.1818  0.2822
   14loPI   C4B  224  16.845   3.691   7.614 -0.2306 -0.0749  0.0862
   15loPI    C1  225   0.853  14.815   9.759  0.0033 -0.1670  0.1265
   15loPI    C2  226   0.641  14.476   9.754  0.1237 -0.2416 -0.0880
   15loPI    C3  227   0.477  14.813   9.896 -0.0924 -0.3265 -0.1316
   15loPI   PO4  228   1.000  14.807   9.544 -0.0166 -0.0343 -0.0188
   15loPI   GL1  229   0.974  14.991   9.113 -0.5301 -0.0695  0.0074
   15loPI   GL2  230   1.308  14.947   9.154  0.0667  0.0523  0.0126
   15loPI   C1A  231   0.916  15.102   8.717  0.3251 -0.1253 -0.2562
   15loPI   C2A  232   0.742  15.128   8.227  0.1105  0.4037  0.3086
   15loPI   C3A  233   0.955  15.139   7.887  0.1061 -0.0958 -0.1941
   15loPI   C4A  234   0.726  15.015   7.511 -0.1054  0.0059 -0.0181
   15loPI   C5A  235   0.722  14.688   7.195 -0.0070 -0.1009  0.0612
   15loPI   C6A  236   0.560  14.287   7.078 -0.1920  0.3266 -0.2337
   15loPI   C1B  237   1.366  14.934   8.724  0.2055 -0.0699 -0.2675
   15loPI   C2B  238   1.196  14.834   8.233 -0.0164  0.2424 -0.0131
   15loPI   C3B  239   0.980  14.629   7.925  0.1830  0.1153  0.0269
   15loPI   C4B  240   1.017  14.435   7.584 -0.1773 -0.1059 -0.0159
   16loPI    C1  241  12.057   7.450  10.236 -0.1877 -0.2595  0.0422
   16loPI    C2  242  12.120   7.619  10.593 -0.2208 -0.1071 -0.0236
   16loPI    C3  243  11.750   7.512  10.486 -0.2418  0.0316 -0.0924
   16loPI   PO4  244  12.356   7.515  10.203  0.1815  0.1919 -0.0450
   16loPI   GL1  245  12.517   7.476   9.847 -0.2517  0.3331  0.2071
   16loPI   GL2  246  12.236   7.383   9.718  0.0550  0.1058 -0.5381
   16loPI   C1A  247  12.813   7.478   9.523 -0.5034 -0.0644 -0.0064
   16loPI   C2A  248  13.104   7.406   9.086 -0.1369 -0.0558 -0.1389
   16loPI   C3A  249  13.242   7.466   8.731 -0.0460 -0.1913 -0.3680
   16loPI   C4A  250  13.509   7.357   8.425 -0.1724  0.3735 -0.0186
   16loPI   C5A  251  13.618   7.472   8.107  0.1749  0.2939  0.0840
   16loPI   C6A  252  13.956   7.511   7.951  0.0522 -0.0408  0.0206
   16loPI   C1B  253  12.170   7.372   9.328  0.2752  0.0694  0.0483
   16loPI   C2B  254  12.004   7.355   8.998  0.0062  0.1046  0.0151
   16loPI   C3B  255  11.594   7.220   8.890 -0.0440 -0.0642  0.0220
   16loPI   C4B  256  11.498   6.884   8.539 -0.2171 -0.5620  0.0349
   17loPI    C1  257  12.223   9.438   9.995  0.0356  0.0109 -0.0016
   17loPI    C2  258  12.348   9.774  10.171  0.2566 -0.0749  0.0081
   17loPI    C3  259  12.381   9.425  10.362  0.1275 -0.1168 -0.0452
   17loPI   PO4  260  12.122   9.579   9.788  0.0846 -0.4791 -0.0081
   17loPI   GL1  261  12.235   9.490   9.418  0.0513  0.0235  0.2114
   17loPI   GL2  262  11.998   9.668   9.324  0.0199 -0.0067  0.1945
   17loPI   C1A  263  12.257   9.068   9.172 -0.1142  0.1363 -0.0084
   17loPI   C2A  264  12.222   8.873   8.789 -0.0456  0.1259 -0.2216
   17loPI   C3A  265  12.192   8.671   8.345  0.0542 -0.1494 -0.1085
   17loPI   C4A  266  11.990   8.393   8.069  0.1325  0.1106  0.0771
   17loPI   C5A  267  11.989   8.611   7.650  0.3106  0.1145 -0.1183
   17loPI   C6A  268  11.773   8.770   7.360 -0.0662 -0.0347 -0.4011
   17loPI   C1B  269  12.176   9.633   8.941  0.1023  0.1567 -0.0831
   17loPI   C2B  270  12.282   9.408   8.622  0.1932  0.0662  0.3381
   17loPI   C3B  271  12.264   9.581   8.227 -0.0065 -0.0274  0.0631
   17loPI   C4B  272  12.255   9.910   7.927  0.0356  0.1308 -0.1125
   18loPI    C1  273   9.609   4.563  10.361  0.0664  0.1258 -0.1618
   18loPI    C2  274   9.431   4.206  10.377 -0.0321  0.1804 -0.0326
   18loPI    C3  275   9.794   4.255  10.536  0.1764  0.0257 -0.4475
   18loPI   PO4  276   9.669   4.620  10.057  0.2141 -0.0135  0.0287
   18loPI   GL1  277   9.728   4.633   9.632 -0.0146 -0.1354 -0.2671
   18loPI   GL2  278   9.901   4.472   9.369 -0.0681 -0.3582 -0.0182
   18loPI   C1A  279   9.478   4.904   9.247 -0.3289 -0.0016 -0.1247
   18loPI   C2A  280   9.385   4.746   8.878 -0.1444  0.0123 -0.1329
   18loPI   C3A  281   9.248   4.681   8.505  0.0345  0.0012 -0.1002
   18loPI   C4A  282   9.332   4.762   8.061 -0.2523 -0.1726  0.1482
   18loPI   C5A  283   9.338   4.860   7.589 -0.1345 -0.0269  0.2124
   18loPI   C6A  284   9.316   5.093   7.302 -0.1546  0.2523  0.0186
   18loPI   C1B  285   9.864   4.519   9.028  0.3770  0.2555 -0.2155
   18loPI   C2B  286   9.862   4.536   8.629  0.2491  0.1028 -0.0594
   18loPI   C3B  287   9.596   4.348   8.354  0.1026  0.1068  0.1537
   18loPI   C4B  288   9.184   4.267   8.189 -0.2160 -0.1325 -0.1162
   19loPI    C1  289  10.356  16.038   9.990  0.1641  0.0745  0.0329
   19loPI    C2  290  10.487  16.413  10.041 -0.2324  0.2390 -0.1156
   19loPI    C3  291  10.183  16.275  10.262 -0.0886  0.0025 -0.0620
   19loPI   PO4  292  10.433  15.899   9.633 -0.0592  0.1554  0.3496
   19loPI   GL1  293  10.425  15.428   9.427  0.3466 -0.0542  0.0007
   19loPI   GL2  294  10.684  15.535   9.143  0.1249 -0.2934 -0.0584
   19loPI   C1A  295  10.280  15.250   9.053 -0.2483 -0.1083  0.0837
   19loPI   C2A  296  10.508  15.437   8.676 -0.0981 -0.3489  0.2912
   19loPI   C3A  297  10.463  15.417   8.369 -0.1562  0.1711 -0.1840
   19loPI   C4A  298  10.462  15.410   7.973  0.0818  0.2680  0.3168
   19loPI   C5A  299  10.217  15.039   7.789 -0.2063  0.2286  0.3028
   19loPI   C6A  300  10.408  14.719   7.489  0.3613 -0.0394 -0.1320
   19loPI   C1B  301  10.438  15.826   8.914  0.2992 -0.0101 -0.0139
   19loPI   C2B  302  10.336  15.880   8.495  0.1561 -0.2946  0.2778
   19loPI   C3B  303  10.117  15.818   8.118  0.0583  0.0144  0.2020
   19loPI   C4B  304   9.966  15.665   7.695  0.2585  0.1532 -0.0793
   20loPI    C1  305  11.082  17.769  10.172  0.1650  0.0454 -0.0253
   20loPI    C2  306  10.931  17.399  10.161  0.0681  0.0839  0.0055
   20loPI    C3  307  10.688  17.713  10.208  0.1362  0.1613 -0.1509
   20loPI   PO4  308  11.186  17.846   9.902  0.4728 -0.2145 -0.0974
   20loPI   GL1  309  10.965  18.050   9.527  0.1097  0.0315 -0.2418
   20loPI   GL2  310  11.306  17.982   9.404 -0.3041  0.3086  0.2237
   20loPI   C1A  311  10.707  17.980   9.175  0.2903 -0.3196 -0.1972
   20loPI   C2A  312  10.957  17.798   8.794 -0.3013  0.1882 -0.1067
   20loPI   C3A  313  11.159  17.910   8.471 -0.0269 -0.2039  0.0669
   20loPI   C4A  314  11.082  17.831   8.100  0.3224  0.4998 -0.0812
   20loPI   C5A  315  11.115  17.586   7.749 -0.2224 -0.0442  0.2093
   20loPI   C6A  316  10.700  17.351   7.567 -0.0182 -0.1170  0.4479
   20loPI   C1B  317  11.266  18.165   8.995  0.0632 -0.2792  0.1539
   20loPI   C2B  318  11.211  18.485   8.697 -0.1068 -0.2330  0.0212
   20loPI   C3B  319  11.091  18.551   8.338  0.1946  0.0708  0.2172
   20loPI   C4B  320  11.007  18.305   8.004 -0.3131 -0.2245  0.0322
   21loPI    C1  321   1.837  14.198   9.469 -0.0491  0.0156 -0.1128
   21loPI    C2  322   2.014  14.059   9.800 -0.2047 -0.1002 -0.0771
   21loPI    C3  323   1.735  14.345   9.827  0.1229  0.2346 -0.1511
   21loPI   PO4  324   2.060  14.121   9.283  0.0149 -0.3688  0.0844
   21loPI   GL1  325   2.497  13.997   9.107  0.2423 -0.0501 -0.0503
   21loPI   GL2  326   2.872  13.992   9.159  0.1451 -0.0233  0.3374
   21loPI   C1A  327   2.443  14.076   8.636 -0.1855  0.0704  0.3148
   21loPI   C2A  328   2.511  14.190   8.242 -0.0505 -0.1488 -0.0491
   21loPI   C3A  329   2.388  14.132   7.833  0.0326  0.3795 -0.2405
   21loPI   C4A  330   2.325  14.153   7.460  0.0309 -0.0302  0.1260
   21loPI   C5A  331   2.344  14.002   7.188 -0.2252  0.0200 -0.0784
   21loPI   C6A  332   2.636  13.999   6.827  0.0250  0.1622  0.0520
   21loPI   C1B  333   2.882  13.998   8.787 -0.2437 -0.0525 -0.1609
   21loPI   C2B  334   2.961  13.924   8.412 -0.2622  0.0158 -0.0488
   21loPI   C3B  335   3.211  14.166   8.215  0.3892 -0.0614  0.1893
   21loPI   C4B  336   3.304  14.346   7.823 -0.1715 -0.1279  0.2645
   22loPI    C1  337  16.478   0.341   9.324 -0.2073  0.0809  0.2367
   22loPI    C2  338  16.669   0.646   9.499 -0.3457  0.1560  0.2579
   22loPI    C3  339  16.485   0.370   9.722 -0.3022  0.1095  0.2365
   22loPI   PO4  340  16.408   0.440   9.120 -0.0116 -0.1557  0.0930
   22loPI   GL1  341  16.522   0.617   8.727 -0.1431 -0.2385 -0.1198
   22loPI   GL2  342  16.766   0.424   8.626 -0.1633  0.3544  0.1829
   22loPI   C1A  343  16.379   0.414   8.320 -0.2071  0.2534 -0.0233
   22loPI   C2A  344  16.383   0.478   7.907 -0.0554 -0.3000  0.0399
   22loPI   C3A  345  16.544   0.531   7.535  0.1191  0.1793  0.0150
   22loPI   C4A  346  16.494   0.591   7.139  0.0174  0.0109  0.0498
   22loPI   C5A  347  16.578   0.662   6.718 -0.0519 -0.0615  0.0020
   22loPI   C6A  348  16.677   1.057   6.432  0.2461 -0.0360 -0.1822
   22loPI   C1B  349  16.840   0.230   8.209  0.1549 -0.3323  0.0950
   22loPI   C2B  350  16.912   0.295   7.805  0.0307  0.1714 -0.0669
   22loPI   C3B  351  16.944   0.172   7.465  0.1909 -0.0660  0.1896
   22loPI   C4B  352  16.968  -0.018   7.003 -0.0760  0.0578  0.1732
   23loPI    C1  353   8.253  10.252  10.213 -0.0399  0.4073 -0.0783
   23loPI    C2  354   8.522  10.084  10.458 -0.1324  0.2407 -0.0899
   23loPI    C3  355   8.527  10.479  10.397 -0.0177  0.2645  0.0678
   23loPI   PO4  356   8.260  10.071   9.999 -0.1061  0.0749 -0.0633
   23loPI   GL1  357   8.304   9.863   9.625 -0.0259 -0.1405  0.4131
   23loPI   GL2  358   8.602  10.040   9.600  0.0854  0.0484  0.1482
   23loPI   C1A  359   8.336   9.514   9.322  0.0627 -0.2429  0.6188
   23loPI   C2A  360   8.035   9.450   8.954 -0.1044  0.1316 -0.0341
   23loPI   C3A  361   7.760   9.427   8.584  0.1435 -0.1780  0.0754
   23loPI   C4A  362   7.481   9.339   8.226 -0.2780  0.0681  0.1662
   23loPI   C5A  363   7.297   9.464   7.857  0.1392 -0.2607  0.0169
   23loPI   C6A  364   7.278   9.751   7.562  0.0156  0.0376 -0.0171
   23loPI   C1B  365   8.706   9.863   9.299  0.0418  0.2870 -0.1026
   23loPI   C2B  366   8.471   9.830   8.967 -0.3092 -0.2514  0.2322
   23loPI   C3B  367   8.335   9.639   8.523 -0.1283  0.1097  0.0647
   23loPI   C4B  368   8.481   9.690   8.107 -0.1903  0.1690 -0.1082
   24loPI    C1  369   8.781   3.038   9.996  0.0778 -0.2372  0.0103
   24loPI    C2  370   8.557   2.844  10.265  0.0386 -0.4230 -0.1541
   24loPI    C3  371   8.628   3.235  10.308 -0.0781 -0.4237  0.0535
   24loPI   PO4  372   8.738   2.960   9.779 -0.1147  0.3342  0.2969
   24loPI   GL1  373   8.899   2.997   9.421  0.1383  0.1217 -0.1009
   24loPI   GL2  374   8.607   3.143   9.299 -0.1381 -0.0430  0.1592
   24loPI   C1A  375   9.145   3.259   9.160 -0.1071 -0.2041  0.0667
   24loPI   C2A  376   9.020   3.714   8.922  0.2810 -0.2848 -0.2031
   24loPI   C3A  377   8.811   3.925   8.675  0.2621 -0.2336 -0.1374
   24loPI   C4A  378   8.763   3.825   8.308  0.2442  0.0084  0.1506
   24loPI   C5A  379   8.414   3.774   7.932 -0.0517 -0.0411  0.1106
   24loPI   C6A  380   8.081   3.931   7.606 -0.2804  0.2882  0.2862
   24loPI   C1B  381   8.445   3.515   9.006  0.3455  0.0333  0.3644
   24loPI   C2B  382   8.326   3.718   8.597 -0.0944 -0.0478 -0.0092
   24loPI   C3B  383   7.909   3.825   8.275  0.4709  0.3590  0.2380
   24loPI   C4B  384   7.750   3.895   7.950  0.0251  0.3556  0.0627
   25loPI    C1  385  13.539  18.943   9.345  0.0017 -0.3433 -0.2780
   25loPI    C2  386  13.270  19.199   9.198 -0.0113 -0.1645  0.0472
   25loPI    C3  387  13.538  19.324   9.467  0.3411 -0.3629 -0.2030
   25loPI   PO4  388  13.713  18.914   9.166 -0.3851  0.2890 -0.1290
   25loPI   GL1  389  13.500  18.789   8.849 -0.2573  0.1298 -0.0353
   25loPI   GL2  390  13.250  18.574   8.742 -0.0855 -0.2648  0.2787
   25loPI   C1A  391  13.553  18.882   8.396  0.0342  0.0992  0.6075
   25loPI   C2A  392  13.485  18.811   7.924 -0.0760 -0.2081 -0.0857
   25loPI   C3A  393  13.481  18.849   7.505 -0.0106  0.0391  0.1818
   25loPI   C4A  394  13.327  18.869   7.089 -0.2105  0.0977  0.0091
   25loPI   C5A  395  13.442  18.704   6.684  0.1914 -0.1783 -0.1614
   25loPI   C6A  396  13.871  18.795   6.482  0.0571  0.0889  0.1033
   25loPI   C1B  397  13.127  18.560   8.390  0.5209  0.3264  0.1610
   25loPI   C2B  398  12.875  18.655   8.017  0.1572 -0.0354 -0.1412
   25loPI   C3B  399  12.948  18.887   7.566  0.0807  0.3133 -0.2913
   25loPI   C4B  400  12.779  18.834   7.176 -0.0805  0.0591 -0.2933
   26loPI    C1  401  17.556  11.212   9.860 -0.1137 -0.0227 -0.0014
   26loPI    C2  402  17.343  11.417  10.130 -0.1934 -0.3542  0.1932
   26loPI    C3  403  17.544  11.089  10.240  0.4388 -0.0435  0.0173
   26loPI   PO4  404  17.460  11.054   9.636 -0.1365  0.1715  0.0643
   26loPI   GL1  405  17.570  11.164   9.209 -0.4373  0.2578  0.0391
   26loPI   GL2  406  17.857  10.990   9.076 -0.0772  0.1207  0.0109
   26loPI   C1A  407  17.470  11.069   8.784  0.0292  0.1671 -0.0782
   26loPI   C2A  408  17.392  11.020   8.350  0.1849 -0.2086 -0.2646
   26loPI   C3A  409  17.318  10.977   7.970 -0.0612 -0.1962  0.0156
   26loPI   C4A  410  17.297  10.963   7.519  0.0834 -0.2093  0.3003
   26loPI   C5A  411  17.224  10.930   7.097 -0.1043  0.0504 -0.3127
   26loPI   C6A  412  16.987  10.583   6.907 -0.0426  0.2190 -0.1541
   26loPI   C1B  413  17.861  10.780   8.581  0.0342 -0.1677 -0.3832
   26loPI   C2B  414  17.800  10.427   8.284 -0.3103 -0.2429 -0.0046
   26loPI   C3B  415  17.853  10.516   7.821  0.0429 -0.1294 -0.0764
   26loPI   C4B  416  17.820  10.324   7.450 -0.0731  0.0791  0.2729
   27loPI    C1  417  15.229  10.790   9.680 -0.0637 -0.0033 -0.0797
   27loPI    C2  418  15.489  11.039   9.854 -0.0525 -0.1288  0.0860
   27loPI    C3  419  15.096  11.100   9.894 -0.0501 -0.1679  0.1717
   27loPI   PO4  420  15.296  10.668   9.471 -0.1163 -0.0738  0.1295
   27loPI   GL1  421  15.549  10.411   9.214  0.0671 -0.1072 -0.0047
   27loPI   GL2  422  15.241  10.266   9.085 -0.2499 -0.2278  0.1481
   27loPI   C1A  423  15.553  10.418   8.757  0.1065  0.0008  0.1562
   27loPI   C2A  424  15.794  10.445   8.357  0.0053 -0.0606  0.0334
   27loPI   C3A  425  15.637  10.628   8.007 -0.1116 -0.1388 -0.0098
   27loPI   C4A  426  15.472  10.567   7.602 -0.1129  0.1994  0.0718
   27loPI   C5A  427  15.293  10.603   7.109 -0.0754  0.1081 -0.0167
   27loPI   C6A  428  14.993  10.579   6.725 -0.0583  0.1235  0.4479
   27loPI   C1B  429  15.043  10.635   8.822  0.0102 -0.1416  0.1256
   27loPI   C2B  430  14.835  10.466   8.419  0.0452 -0.1520  0.1467
   27loPI   C3B  431  14.641  10.505   7.896  0.0343 -0.1517  0.0479
   27loPI   C4B  432  14.617  10.727   7.536  0.1840 -0.0611  0.0350
   28loPI    C1  433   5.578  15.771   9.800 -0.0063 -0.0609 -0.1452
   28loPI    C2  434   5.292  15.552   9.974 -0.0780  0.2105  0.0853
   28loPI    C3  435   5.627  15.640  10.174 -0.1539  0.5109  0.0842
   28loPI   PO4  436   5.499  15.952   9.681 -0.2912  0.2022  0.1390
   28loPI   GL1  437   5.394  16.027   9.307  0.1456  0.0228  0.0617
   28loPI   GL2  438   5.119  16.128   9.338  0.0777  0.1161 -0.0105
   28loPI   C1A  439   5.484  16.195   8.945  0.0654 -0.0970  0.1181
   28loPI   C2A  440   5.408  16.177   8.484  0.0277  0.3465 -0.0789
   28loPI   C3A  441   5.299  16.279   8.156 -0.0142 -0.0698  0.0753
   28loPI   C4A  442   5.247  16.290   7.688 -0.0717 -0.0477 -0.2748
   28loPI   C5A  443   5.343  16.056   7.360  0.0658 -0.0914 -0.0957
   28loPI   C6A  444   5.322  16.327   6.971  0.1040 -0.2128 -0.0444
   28loPI   C1B  445   4.976  16.199   9.004  0.0528 -0.0749 -0.0697
   28loPI   C2B  446   4.962  16.313   8.631 -0.2713  0.0980 -0.0510
   28loPI   C3B  447   4.854  16.315   8.347 -0.3845 -0.0968  0.4567
   28loPI   C4B  448   4.721  16.260   7.984 -0.2527  0.1180 -0.0068
   29loPI    C1  449  10.337   1.336  10.331  0.0766  0.1215 -0.1306
   29loPI    C2  450  10.705   1.483  10.389  0.1599 -0.1392  0.0180
   29loPI    C3  451  10.456   1.440  10.699 -0.0671  0.2128 -0.1088
   29loPI   PO4  452  10.387   1.305  10.050 -0.1894 -0.0643  0.0730
   29loPI   GL1  453  10.287   1.439   9.537  0.2280  0.2113 -0.1164
   29loPI   GL2  454  10.646   1.461   9.445 -0.1023  0.1809 -0.1965
   29loPI   C1A  455  10.037   1.266   9.197 -0.2536 -0.1028 -0.0591
   29loPI   C2A  456   9.835   1.301   8.826 -0.1023  0.0284 -0.0035
   29loPI   C3A  457   9.570   1.114   8.429  0.1499 -0.4015 -0.0878
   29loPI   C4A  458   9.460   1.288   8.084 -0.0529 -0.0595  0.2290
   29loPI   C5A  459   9.139   1.210   7.835 -0.0156  0.2848 -0.2854
   29loPI   C6A  460   9.123   0.874   7.473  0.1169  0.1151  0.0380
   29loPI   C1B  461  10.473   1.471   8.991 -0.1333 -0.1006  0.3659
   29loPI   C2B  462  10.297   1.346   8.623  0.3709  0.2180  0.0222
   29loPI   C3B  463  10.018   1.333   8.282  0.2687 -0.1046  0.0003
   29loPI   C4B  464   9.995   1.229   7.830  0.1882 -0.0705 -0.1935
   30loPI    C1  465  16.831   7.521  10.062 -0.1462 -0.1598  0.0583
   30loPI    C2  466  16.657   7.302  10.348 -0.0942 -0.0158  0.2020
   30loPI    C3  467  16.943   7.142  10.118 -0.2426 -0.1780  0.1283
   30loPI   PO4  468  16.604   7.570   9.821  0.0991 -0.0159 -0.2068
   30loPI   GL1  469  16.588   7.587   9.428  0.1184 -0.2385  0.0362
   30loPI   GL2  470  16.225   7.571   9.451 -0.1957  0.0835 -0.0508
   30loPI   C1A  471  16.830   7.432   9.153 -0.1072 -0.0301  0.2914
   30loPI   C2A  472  17.059   7.223   8.951  0.0318  0.3132  0.2509
   30loPI   C3A  473  17.245   7.155   8.579 -0.2196 -0.2265  0.1906
   30loPI   C4A  474  17.173   7.198   8.267  0.2687  0.2580  0.1094
   30loPI   C5A  475  17.206   7.385   7.851  0.0984  0.0557 -0.2587
   30loPI   C6A  476  17.262   7.647   7.503 -0.0572 -0.2731  0.5752
   30loPI   C1B  477  16.336   7.404   8.992  0.0311  0.1309  0.4338
   30loPI   C2B  478  16.207   7.199   8.539 -0.0030  0.1552 -0.2879
   30loPI   C3B  479  16.224   7.043   8.142 -0.0024  0.1834 -0.3948
   30loPI   C4B  480  16.226   7.012   7.719  0.2142 -0.0711 -0.1045
   31loPI    C1  481  14.289  13.196   9.818  0.0111  0.1718 -0.0209
   31loPI    C2  482  14.129  12.926  10.066 -0.1990 -0.0425 -0.3807
   31loPI    C3  483  14.226  13.289  10.202  0.0803 -0.2891  0.1088
   31loPI   PO4  484  14.371  12.937   9.602 -0.3272 -0.1363 -0.0022
   31loPI   GL1  485  14.326  12.813   9.197 -0.1475 -0.2521  0.2357
   31loPI   GL2  486  14.256  12.451   9.117 -0.3912 -0.1316 -0.1052
   31loPI   C1A  487  14.303  13.089   8.741  0.1094 -0.0892  0.1506
   31loPI   C2A  488  14.395  13.276   8.337 -0.3577  0.0434  0.3063
   31loPI   C3A  489  14.250  13.512   7.977 -0.3564 -0.1212  0.2780
   31loPI   C4A  490  14.182  13.555   7.503 -0.0038 -0.0342  0.0861
   31loPI   C5A  491  14.103  13.575   7.107 -0.0781  0.0102  0.0101
   31loPI   C6A  492  14.313  13.894   6.811 -0.0063 -0.1015 -0.1023
   31loPI   C1B  493  14.334  12.381   8.731 -0.2678 -0.1445 -0.3169
   31loPI   C2B  494  14.294  12.361   8.251  0.2465  0.0474  0.0448
   31loPI   C3B  495  14.259  12.067   8.054  0.1173  0.4426  0.3136
   31loPI   C4B  496  14.188  11.951   7.605  0.0023  0.1532 -0.2831
   32loPI    C1  497  18.680  17.825   9.515 -0.4082 -0.2108  0.1511
   32loPI    C2  498  18.595  18.197   9.635 -0.0792 -0.1036  0.0650
   32loPI    C3  499  18.781  17.944   9.883 -0.0130 -0.1053  0.0138
   32loPI   PO4  500  18.702  17.971   9.179  0.0634  0.2107  0.3294
   32loPI   GL1  501  18.885  18.142   8.898  0.0146  0.0828  0.0403
   32loPI   GL2  502  19.151  18.280   8.894 -0.1206  0.1754 -0.0040
   32loPI   C1A  503  18.806  18.044   8.524  0.0656  0.0272 -0.2345
   32loPI   C2A  504  18.775  17.973   8.203  0.1504 -0.0397  0.0236
   32loPI   C3A  505  19.087  18.025   7.749  0.2295 -0.0815  0.0534
   32loPI   C4A  506  19.349  17.871   7.355  0.0867 -0.0847  0.2280
   32loPI   C5A  507  19.378  17.908   6.814 -0.0173 -0.0946 -0.4286
   32loPI   C6A  508  19.630  18.139   6.686 -0.4193  0.1569 -0.1332
   32loPI   C1B  509  19.235  18.242   8.465  0.1541 -0.0850  0.1614
   32loPI   C2B  510  19.297  18.034   8.233  0.0679 -0.1596  0.1212
   32loPI   C3B  511  19.509  17.872   7.881  0.0056  0.2547  0.3114
   32loPI   C4B  512  19.757  17.883   7.618 -0.2478 -0.3020 -0.1734
   33loPI    C1  513   8.330  11.038  10.438  0.3630 -0.2345 -0.1888
   33loPI    C2  514   8.348  11.436  10.409  0.2615 -0.2347 -0.2597
   33loPI    C3  515   8.127  11.267  10.696  0.3582 -0.2401 -0.1878
   33loPI   PO4  516   8.301  10.956  10.241  0.0901 -0.0834  0.0578
   33loPI   GL1  517   8.360  10.646   9.938  0.2254  0.0094 -0.0435
   33loPI   GL2  518   7.936  10.827   9.935  0.2438  0.0947  0.0375
   33loPI   C1A  519   8.499  10.671   9.546  0.1843 -0.1829  0.3929
   33loPI   C2A  520   8.362  10.776   9.077 -0.1123 -0.3551 -0.2249
   33loPI   C3A  521   8.179  10.809   8.780 -0.0700 -0.0946 -0.1590
   33loPI   C4A  522   8.268  10.702   8.436 -0.1042 -0.1813 -0.1100
   33loPI   C5A  523   8.320  10.550   8.045  0.0269 -0.1868  0.0848
   33loPI   C6A  524   8.582  10.317   7.852 -0.0543  0.0467  0.3970
   33loPI   C1B  525   8.034  10.920   9.516  0.0562  0.0258 -0.0360
   33loPI   C2B  526   7.770  10.881   9.046  0.0012  0.1050 -0.0602
   33loPI   C3B  527   7.614  10.761   8.643 -0.1403 -0.3114 -0.3948
   33loPI   C4B  528   7.792  10.855   8.238  0.4147 -0.1393  0.1659
   34loPI    C1  529  11.039  10.253  10.417 -0.1081  0.1402 -0.2666
   34loPI    C2  530  10.791  10.498  10.613  0.0435  0.0655  0.0239
   34loPI    C3  531  10.850  10.126  10.746  0.0643 -0.0234 -0.2292
   34loPI   PO4  532  10.974  10.278  10.162 -0.2583 -0.0996  0.0163
   34loPI   GL1  533  10.902  10.466   9.704  0.0880 -0.3114 -0.2353
   34loPI   GL2  534  10.580  10.498   9.738  0.1497 -0.0504  0.0540
   34loPI   C1A  535  10.929  10.563   9.294  0.1900  0.0041  0.1284
   34loPI   C2A  536  10.683  10.308   9.058 -0.3162 -0.3171  0.2772
   34loPI   C3A  537  10.410  10.137   8.732 -0.0145 -0.2386  0.1948
   34loPI   C4A  538  10.473  10.214   8.262 -0.0759  0.3408 -0.1944
   34loPI   C5A  539  10.480  10.567   7.912 -0.0685 -0.2776 -0.3653
   34loPI   C6A  540  10.452  10.938   7.729 -0.1505  0.1744  0.0663
   34loPI   C1B  541  10.488  10.749   9.406  0.1158 -0.2538  0.2596
   34loPI   C2B  542  10.591  10.790   9.025  0.0357  0.0426 -0.0253
   34loPI   C3B  543  10.696  10.880   8.656 -0.1102 -0.1545 -0.1541
   34loPI   C4B  544  10.790  11.036   8.205 -0.3262 -0.0837  0.2486
   35loPI    C1  545  18.104   8.194  10.093 -0.2274 -0.3115 -0.1724
   35loPI    C2  546  17.749   8.239  10.273 -0.0716  0.0538  0.0563
   35loPI    C3  547  18.084   8.238  10.490  0.1133  0.3832 -0.2175
   35loPI   PO4  548  18.036   8.077   9.844  0.0156 -0.0168  0.1025
   35loPI   GL1  549  18.093   8.237   9.435  0.2938 -0.0964 -0.0731
   35loPI   GL2  550  18.234   8.450   9.237  0.0925  0.0958  0.0914
   35loPI   C1A  551  18.129   8.100   8.962  0.1509 -0.0547 -0.0295
   35loPI   C2A  552  18.268   8.125   8.432  0.1109  0.3518  0.0989
   35loPI   C3A  553  18.386   7.945   7.961 -0.1330 -0.0927  0.1971
   35loPI   C4A  554  18.569   8.009   7.495 -0.2242  0.1793 -0.0139
   35loPI   C5A  555  18.779   7.860   7.197  0.2347  0.1639  0.1107
   35loPI   C6A  556  18.878   7.823   6.798 -0.3205  0.0300 -0.1947
   35loPI   C1B  557  18.076   8.656   8.975  0.1272  0.0705  0.3242
   35loPI   C2B  558  18.082   8.952   8.632 -0.3166 -0.0696 -0.0594
   35loPI   C3B  559  17.771   9.100   8.342  0.1107  0.2101 -0.3658
   35loPI   C4B  560  17.656   9.066   7.825  0.1934 -0.1638 -0.1410
   36loPI    C1  561   3.266  14.819   9.542  0.3404  0.3517  0.4223
   36loPI    C2  562   2.925  14.847   9.748  0.0493 -0.2219  0.0479
   36loPI    C3  563   3.181  14.550   9.826  0.2181 -0.0956 -0.0213
   36loPI   PO4  564   3.192  14.764   9.273 -0.1336  0.1992 -0.2469
   36loPI   GL1  565   3.449  14.582   8.923  0.0761  0.1268  0.0685
   36loPI   GL2  566   3.174  14.567   8.850 -0.0831  0.0478  0.3135
   36loPI   C1A  567   3.498  14.245   8.597 -0.2825 -0.3573 -0.4149
   36loPI   C2A  568   3.669  14.330   8.180 -0.1203  0.2486  0.3351
   36loPI   C3A  569   3.800  14.347   7.774 -0.2046  0.0348  0.0721
   36loPI   C4A  570   3.800  14.217   7.301 -0.0992  0.2173 -0.1180
   36loPI   C5A  571   4.052  14.014   7.022  0.1363 -0.0626 -0.3621
   36loPI   C6A  572   4.416  13.821   6.799 -0.4775 -0.2196 -0.3676
   36loPI   C1B  573   3.374  14.671   8.399 -0.0144  0.2014 -0.3282
   36loPI   C2B  574   3.575  14.839   7.977 -0.0711  0.0900 -0.4236
   36loPI   C3B  575   3.628  14.740   7.565 -0.0972 -0.0471  0.0512
   36loPI   C4B  576   3.581  14.755   7.157 -0.2221  0.0159  0.1221
   37loPI    C1  577  10.774   5.187  10.436  0.0833 -0.0655  0.0330
   37loPI    C2  578  10.922   4.995  10.754  0.0097  0.1216  0.1819
   37loPI    C3  579  10.676   5.307  10.805  0.0228  0.1731 -0.0587
   37loPI   PO4  580  11.004   5.102  10.226 -0.1263  0.0788 -0.0131
   37loPI   GL1  581  11.098   5.148   9.822 -0.2678 -0.1678 -0.2317
   37loPI   GL2  582  10.819   5.109   9.687  0.0548 -0.3664  0.1454
   37loPI   C1A  583  11.213   5.330   9.431  0.0974 -0.3286  0.0446
   37loPI   C2A  584  11.167   5.499   9.039  0.2240  0.2744 -0.1306
   37loPI   C3A  585  11.320   5.428   8.609 -0.2007 -0.4148  0.1517
   37loPI   C4A  586  11.571   5.617   8.294 -0.1262  0.0323  0.1248
   37loPI   C5A  587  11.730   5.872   7.849 -0.0860  0.0897 -0.0684
   37loPI   C6A  588  11.976   6.242   7.830 -0.0411  0.2642 -0.0351
   37loPI   C1B  589  10.837   5.073   9.203 -0.0098  0.0631 -0.1434
   37loPI   C2B  590  11.117   5.017   8.885  0.0188 -0.2881 -0.0541
   37loPI   C3B  591  11.180   4.933   8.481 -0.5692  0.3316  0.4459
   37loPI   C4B  592  11.379   4.856   8.103  0.1614  0.3218 -0.1472
   38loPI    C1  593  16.197   8.477   9.760  0.2850  0.2234  0.2120
   38loPI    C2  594  16.004   8.618  10.081  0.0590  0.0704  0.1462
   38loPI    C3  595  16.222   8.284  10.109 -0.0195  0.0169  0.1241
   38loPI   PO4  596  16.033   8.506   9.571 -0.2294  0.3279  0.3857
   38loPI   GL1  597  15.802   8.747   9.342 -0.6506 -0.1748  0.3296
   38loPI   GL2  598  15.551   8.483   9.547 -0.1359 -0.2584  0.1620
   38loPI   C1A  599  15.962   8.748   8.888 -0.0730  0.0260 -0.3476
   38loPI   C2A  600  15.970   8.703   8.501  0.3712 -0.3337 -0.1360
   38loPI   C3A  601  15.873   8.520   8.111 -0.0919 -0.0968  0.0741
   38loPI   C4A  602  15.780   8.395   7.653  0.1665 -0.3099  0.0228
   38loPI   C5A  603  15.534   8.338   7.278  0.1119 -0.0881 -0.0498
   38loPI   C6A  604  15.186   8.044   7.255 -0.3107  0.0565  0.0544
   38loPI   C1B  605  15.556   8.380   9.024  0.2714 -0.3567 -0.5718
   38loPI   C2B  606  15.540   8.395   8.627  0.2001 -0.0688  0.1802
   38loPI   C3B  607  15.532   8.194   8.304 -0.2887 -0.1062  0.1011
   38loPI   C4B  608  15.427   8.064   7.913  0.2785  0.1349  0.2425
   39loPI    C1  609  16.144  12.794   9.735  0.0081 -0.4164  0.2050
   39loPI    C2  610  16.349  12.672  10.056  0.0740 -0.1984  0.2476
   39loPI    C3  611  16.230  13.053  10.028 -0.0746 -0.2551  0.0885
   39loPI   PO4  612  16.210  12.538   9.618  0.2446 -0.0729 -0.2963
   39loPI   GL1  613  16.102  12.274   9.157 -0.3679 -0.1656 -0.1114
   39loPI   GL2  614  16.416  12.501   9.033 -0.1955  0.1984 -0.0643
   39loPI   C1A  615  16.392  11.985   8.806 -0.0063  0.1651 -0.2802
   39loPI   C2A  616  16.553  12.047   8.442 -0.0646  0.3256 -0.2412
   39loPI   C3A  617  16.496  12.041   8.037  0.3414  0.0595 -0.3050
   39loPI   C4A  618  16.459  12.246   7.667  0.0391  0.0805  0.0972
   39loPI   C5A  619  16.379  12.265   7.243  0.0320 -0.0958  0.0093
   39loPI   C6A  620  16.403  12.231   6.787 -0.2678  0.0926  0.0873
   39loPI   C1B  621  16.475  12.524   8.624 -0.1110 -0.3897  0.1116
   39loPI   C2B  622  16.391  12.512   8.185  0.1476  0.0117  0.1455
   39loPI   C3B  623  16.004  12.575   7.889 -0.2192  0.1667  0.0663
   39loPI   C4B  624  15.498  12.650   7.971 -0.0673 -0.0711 -0.0931
   40loPI    C1  625   8.005  19.025   9.942 -0.1103 -0.0306  0.2475
   40loPI    C2  626   8.111  19.408   9.989  0.1423 -0.0340 -0.2348
   40loPI    C3  627   8.287  19.123  10.208  0.2874  0.0806 -0.2002
   40loPI   PO4  628   7.899  19.074   9.739  0.1420 -0.1372 -0.0759
   40loPI   GL1  629   7.788  19.128   9.302  0.0076 -0.0984 -0.1503
   40loPI   GL2  630   7.448  19.156   9.285  0.2549 -0.4745 -0.2576
   40loPI   C1A  631   8.061  19.008   9.029 -0.1612 -0.1743 -0.0113
   40loPI   C2A  632   8.193  18.865   8.593  0.0827  0.0466 -0.2364
   40loPI   C3A  633   8.158  18.958   8.158 -0.0079  0.0687 -0.5964
   40loPI   C4A  634   7.999  19.250   7.958  0.1884 -0.1903 -0.4773
   40loPI   C5A  635   7.971  19.377   7.467 -0.2314  0.2279  0.2111
   40loPI   C6A  636   8.029  19.407   7.089 -0.0599 -0.0324 -0.2727
   40loPI   C1B  637   7.544  19.328   8.867 -0.6155  0.0632 -0.0653
   40loPI   C2B  638   7.947  19.325   8.597  0.2607 -0.0709 -0.0943
   40loPI   C3B  639   8.299  19.414   8.358 -0.2281  0.0512 -0.0427
   40loPI   C4B  640   8.624  19.691   8.094  0.0900  0.4561 -0.2566
   41loPI    C1  641  14.336   1.051   9.466 -0.3132 -0.1451  0.4379
   41loPI    C2  642  14.215   1.378   9.271  0.1150 -0.0655  0.2956
   41loPI    C3  643  13.966   1.193   9.523 -0.3554 -0.0113 -0.1119
   41loPI   PO4  644  14.469   0.966   9.165  0.0763  0.0799 -0.0582
   41loPI   GL1  645  14.772   0.922   8.971  0.1869  0.2769 -0.6708
   41loPI   GL2  646  15.053   0.679   8.871  0.2093  0.3637 -0.2819
   41loPI   C1A  647  14.857   0.988   8.564  0.2300  0.2791 -0.1301
   41loPI   C2A  648  14.944   0.820   8.156  0.0648 -0.1133  0.1798
   41loPI   C3A  649  15.092   0.685   7.707  0.0209 -0.0332 -0.1270
   41loPI   C4A  650  14.917   0.742   7.327  0.0162  0.0012  0.1177
   41loPI   C5A  651  15.146   0.796   6.990  0.2177  0.3164  0.1214
   41loPI   C6A  652  14.931   0.993   6.704  0.0392 -0.1132 -0.1746
   41loPI   C1B  653  15.168   0.469   8.510  0.0776 -0.1268  0.1111
   41loPI   C2B  654  15.384   0.333   8.215  0.2091  0.1189  0.0896
   41loPI   C3B  655  15.521   0.414   7.819  0.0417 -0.2614 -0.0640
   41loPI   C4B  656  15.497   0.680   7.426  0.4255  0.0495 -0.1781
   42loPI    C1  657   9.879  18.785   9.830 -0.0554 -0.2238 -0.1959
   42loPI    C2  658   9.618  18.988   9.606  0.2265  0.1504 -0.1952
   42loPI    C3  659   9.525  18.891   9.983  0.0096  0.0962 -0.2609
   42loPI   PO4  660  10.101  18.936   9.715  0.1581 -0.3029 -0.2317
   42loPI   GL1  661  10.169  18.755   9.355 -0.2891 -0.4429  0.1168
   42loPI   GL2  662  10.438  18.701   9.407  0.0202 -0.1931  0.2770
   42loPI   C1A  663   9.830  18.932   9.070 -0.1438  0.2918  0.0883
   42loPI   C2A  664   9.632  19.047   8.673  0.0433  0.0299 -0.1872
   42loPI   C3A  665   9.511  19.242   8.360 -0.2232 -0.2013  0.3030
   42loPI   C4A  666   9.517  19.316   7.910  0.3162  0.1186 -0.1791
   42loPI   C5A  667   9.389  19.258   7.421 -0.2280  0.3101 -0.3396
   42loPI   C6A  668   9.123  18.912   7.215 -0.1317 -0.0535  0.0889
   42loPI   C1B  669  10.385  18.708   8.824 -0.1446  0.0252 -0.0992
   42loPI   C2B  670  10.456  18.583   8.390  0.1175 -0.1366  0.1548
   42loPI   C3B  671  10.450  18.642   8.019  0.3111 -0.1770 -0.0003
   42loPI   C4B  672  10.184  18.665   7.644  0.0587 -0.0729  0.0289
   43loPI    C1  673  19.171   8.912   9.560  0.1070 -0.2675  0.0587
   43loPI    C2  674  19.085   8.774   9.925 -0.0381 -0.2189  0.0437
   43loPI    C3  675  18.871   9.074   9.770 -0.0439 -0.3082 -0.1227
   43loPI   PO4  676  19.390   8.967   9.493  0.4783  0.1569 -0.0680
   43loPI   GL1  677  19.482   9.176   9.178  0.1717 -0.3142  0.0991
   43loPI   GL2  678  19.147   9.148   9.079  0.2325 -0.3732  0.1372
   43loPI   C1A  679  19.603   9.327   8.868  0.3158  0.0351  0.0670
   43loPI   C2A  680  19.546   9.363   8.379 -0.1639  0.2772 -0.1149
   43loPI   C3A  681  19.388   9.244   7.935 -0.0487  0.4128 -0.1294
   43loPI   C4A  682  19.523   9.119   7.561  0.0985  0.1687 -0.1457
   43loPI   C5A  683  19.247   9.012   7.169  0.1726 -0.2304  0.2324
   43loPI   C6A  684  18.967   8.861   7.015 -0.2367  0.1236  0.3531
   43loPI   C1B  685  19.147   9.247   8.675  0.0709  0.0914  0.1157
   43loPI   C2B  686  19.093   9.022   8.286 -0.0410 -0.0766 -0.1291
   43loPI   C3B  687  18.867   9.180   7.958  0.1594 -0.0923 -0.1677
   43loPI   C4B  688  18.614   8.836   7.713 -0.0690 -0.2925 -0.0088
   44loPI    C1  689   0.800   8.699   9.575  0.1095 -0.0890 -0.0035
   44loPI    C2  690   0.476   8.465   9.560  0.1306 -0.1305  0.1612
   44loPI    C3  691   0.666   8.521   9.907  0.1701  0.0713  0.1084
   44loPI   PO4  692   0.693   8.903   9.398  0.2091  0.2686  0.0735
   44loPI   GL1  693   0.762   9.081   9.043  0.1095 -0.1249  0.1706
   44loPI   GL2  694   0.768   8.807   8.875  0.3313 -0.0029 -0.3156
   44loPI   C1A  695   0.726   9.308   8.638 -0.0703 -0.3190  0.1248
   44loPI   C2A  696   0.755   9.258   8.151 -0.1535 -0.2595  0.2256
   44loPI   C3A  697   0.659   9.193   7.795  0.2678  0.0042 -0.0643
   44loPI   C4A  698   0.695   9.229   7.466 -0.1279 -0.0380 -0.1020
   44loPI   C5A  699   0.840   9.298   7.133  0.0709  0.1896 -0.3511
   44loPI   C6A  700   1.181   9.458   7.002  0.1938 -0.2775 -0.1528
   44loPI   C1B  701   0.880   8.860   8.473  0.1292 -0.2195 -0.3840
   44loPI   C2B  702   0.962   8.745   8.055  0.2180  0.2467 -0.1107
   44loPI   C3B  703   0.941   8.832   7.580  0.0508 -0.2185  0.1415
   44loPI   C4B  704   1.268   9.092   7.378 -0.2104  0.2563  0.1020
   45loPI    C1  705  18.181   6.104  10.149 -0.1385  0.0132  0.0160
   45loPI    C2  706  18.327   6.001  10.507 -0.0656 -0.1266 -0.0532
   45loPI    C3  707  17.939   6.088  10.467 -0.1142 -0.3036  0.0220
   45loPI   PO4  708  18.274   6.014   9.969 -0.0216  0.2043  0.2590
   45loPI   GL1  709  18.117   5.765   9.745  0.0093  0.0406  0.1285
   45loPI   GL2  710  18.020   6.080   9.557  0.1963  0.0665 -0.0399
   45loPI   C1A  711  18.234   5.612   9.360  0.1724  0.0264  0.1104
   45loPI   C2A  712  18.462   5.549   9.012  0.1696 -0.0831 -0.0473
   45loPI   C3A  713  18.802   5.577   8.672 -0.0246 -0.0991  0.0237
   45loPI   C4A  714  18.808   5.566   8.250  0.0763 -0.3631  0.1838
   45loPI   C5A  715  18.560   5.284   8.146  0.1345  0.0529 -0.3537
   45loPI   C6A  716  18.382   4.905   8.202 -0.3580  0.1485  0.2898
   45loPI   C1B  717  18.161   6.045   9.090 -0.5112  0.0818 -0.1403
   45loPI   C2B  718  18.261   5.980   8.712 -0.0664 -0.3364  0.3706
   45loPI   C3B  719  18.342   6.266   8.363  0.1209  0.0744  0.0414
   45loPI   C4B  720  18.165   6.367   7.884 -0.2359  0.0328 -0.0285
   46loPI    C1  721  15.107   7.873  10.321  0.3542 -0.1321 -0.1690
   46loPI    C2  722  15.476   8.017  10.378  0.2449  0.0018  0.2319
   46loPI    C3  723  15.342   7.715  10.604 -0.0248  0.2084  0.3541
   46loPI   PO4  724  15.060   7.930  10.041 -0.1816  0.1203  0.2060
   46loPI   GL1  725  15.305   7.835   9.843 -0.0210  0.0080  0.0860
   46loPI   GL2  726  15.391   7.944   9.559  0.3691 -0.1771  0.0425
   46loPI   C1A  727  15.279   7.462   9.467  0.0279  0.0727  0.0804
   46loPI   C2A  728  15.316   7.119   9.308 -0.0058  0.1416 -0.1389
   46loPI   C3A  729  15.572   6.871   9.063 -0.0910 -0.0114  0.0243
   46loPI   C4A  730  15.730   6.846   8.714 -0.1456  0.0720  0.0051
   46loPI   C5A  731  15.775   6.760   8.358  0.0892  0.0863 -0.5236
   46loPI   C6A  732  15.643   6.553   7.953 -0.1924 -0.1703 -0.2635
   46loPI   C1B  733  15.498   7.878   9.085  0.1044 -0.0571 -0.0697
   46loPI   C2B  734  15.524   7.920   8.751  0.1312  0.0277 -0.0869
   46loPI   C3B  735  15.501   7.716   8.385 -0.0766  0.1369 -0.0634
   46loPI   C4B  736  15.405   7.569   7.975  0.0230 -0.0861  0.2500
   47loPI    C1  737   4.042  16.850  10.398  0.0147 -0.2269  0.1714
   47loPI    C2  738   3.898  16.480  10.350  0.0612 -0.2194 -0.0365
   47loPI    C3  739   4.257  16.535  10.518 -0.0081 -0.2595  0.1270
   47loPI   PO4  740   3.986  16.913  10.122 -0.0041 -0.0745  0.0802
   47loPI   GL1  741   3.927  16.864   9.608  0.2180  0.2655  0.3025
   47loPI   GL2  742   3.643  16.770   9.381  0.1336  0.0742  0.0379
   47loPI   C1A  743   4.186  16.880   9.361  0.0556  0.1218 -0.0369
   47loPI   C2A  744   4.273  17.066   9.030  0.1519 -0.2028 -0.0563
   47loPI   C3A  745   4.456  17.064   8.643  0.3614  0.0279 -0.0741
   47loPI   C4A  746   4.474  17.288   8.333  0.0543  0.1055  0.1761
   47loPI   C5A  747   4.596  17.333   7.759 -0.0122  0.0668 -0.1134
   47loPI   C6A  748   4.815  17.160   7.344 -0.3377  0.1029 -0.0536
   47loPI   C1B  749   3.819  16.884   9.051  0.1289 -0.1402 -0.1145
   47loPI   C2B  750   3.929  16.871   8.629 -0.1981  0.0987  0.1232
   47loPI   C3B  751   3.970  16.815   8.133  0.4808 -0.1248 -0.0901
   47loPI   C4B  752   3.879  16.861   7.757 -0.3065 -0.1763  0.2296
   48loPI    C1  753  14.598  18.068   9.573 -0.0235 -0.0800 -0.1688
   48loPI    C2  754  14.437  18.179   9.922  0.0146 -0.0077 -0.1742
   48loPI    C3  755  14.804  18.018   9.912  0.1145  0.2183 -0.2055
   48loPI   PO4  756  14.533  18.205   9.415  0.2120  0.0121 -0.1387
   48loPI   GL1  757  14.406  18.175   9.055 -0.1417  0.0189 -0.1528
   48loPI   GL2  758  14.576  18.208   8.758  0.0862  0.0092 -0.0570
   48loPI   C1A  759  14.033  18.053   8.751 -0.2928  0.0787  0.1147
   48loPI   C2A  760  14.060  18.005   8.172  0.0613  0.4861  0.1583
   48loPI   C3A  761  14.109  17.952   7.652  0.1091 -0.0750  0.0007
   48loPI   C4A  762  14.173  17.909   7.243 -0.1651 -0.0830 -0.0060
   48loPI   C5A  763  14.373  18.157   6.951 -0.0184  0.2982  0.0092
   48loPI   C6A  764  14.821  18.347   7.111 -0.2982 -0.0290  0.4525
   48loPI   C1B  765  14.364  18.320   8.405 -0.2043  0.2456 -0.4060
   48loPI   C2B  766  14.401  18.428   7.952  0.1701 -0.1592  0.0037
   48loPI   C3B  767  14.497  18.785   7.719  0.1302  0.1042  0.0121
   48loPI   C4B  768  14.640  18.989   7.328 -0.1774  0.2684  0.1801
   49loPI    C1  769  17.715  17.058   9.377 -0.0649  0.1915 -0.2737
   49loPI    C2  770  17.883  16.939   9.720 -0.2811 -0.0388 -0.2447
   49loPI    C3  771  17.655  17.268   9.712 -0.0557  0.1200 -0.2270
   49loPI   PO4  772  17.812  17.132   9.244  0.1174 -0.0165  0.1560
   49loPI   GL1  773  18.068  17.201   8.945 -0.1339 -0.3347  0.0865
   49loPI   GL2  774  18.356  17.264   8.758  0.1682 -0.2121 -0.1090
   49loPI   C1A  775  17.856  17.062   8.517  0.0129 -0.1202  0.1772
   49loPI   C2A  776  17.724  17.091   8.033 -0.2308  0.1154  0.0156
   49loPI   C3A  777  17.807  17.180   7.613  0.0496  0.2963 -0.1383
   49loPI   C4A  778  17.552  17.202   7.269  0.1667 -0.1601 -0.1267
   49loPI   C5A  779  17.166  17.167   7.108 -0.1574  0.2973 -0.3816
   49loPI   C6A  780  16.880  17.315   6.959 -0.1120 -0.1755  0.0186
   49loPI   C1B  781  18.374  17.038   8.431 -0.0824 -0.2677 -0.2912
   49loPI   C2B  782  18.413  17.094   8.033  0.1274 -0.3159  0.1379
   49loPI   C3B  783  18.545  16.989   7.656  0.2775  0.2850 -0.1881
   49loPI   C4B  784  18.608  16.889   7.216 -0.1137  0.1251  0.2810
   50loPI    C1  785   1.516  17.064   9.565 -0.0034 -0.1568 -0.1718
   50loPI    C2  786   1.693  17.344   9.790 -0.2130 -0.2214  0.0784
   50loPI    C3  787   1.759  16.957   9.865  0.0822 -0.2442 -0.2716
   50loPI   PO4  788   1.578  17.101   9.338 -0.1839  0.0048  0.0111
   50loPI   GL1  789   1.766  17.188   9.125  0.3034  0.3320  0.0979
   50loPI   GL2  790   1.701  17.475   8.921 -0.0002  0.3371  0.0456
   50loPI   C1A  791   1.888  17.062   8.735  0.0995  0.3421 -0.1649
   50loPI   C2A  792   2.047  17.157   8.308 -0.0311 -0.1673 -0.0872
   50loPI   C3A  793   2.143  17.248   7.926  0.1416  0.0960 -0.0045
   50loPI   C4A  794   2.312  17.154   7.625  0.1998 -0.1097 -0.0100
   50loPI   C5A  795   2.146  17.347   7.316  0.0148 -0.0572  0.1358
   50loPI   C6A  796   1.942  17.693   7.060  0.1583  0.2572 -0.1156
   50loPI   C1B  797   1.685  17.525   8.480 -0.1986 -0.0118 -0.2047
   50loPI   C2B  798   1.681  17.557   8.009  0.2375  0.0043  0.1731
   50loPI   C3B  799   1.670  17.453   7.602 -0.0662 -0.1025 -0.1475
   50loPI   C4B  800   1.631  17.317   7.102  0.0357 -0.3220 -0.1089
   51loPI    C1  801  12.907  15.606   9.864 -0.0686  0.0522 -0.1631
   51loPI    C2  802  13.224  15.835   9.782 -0.0423 -0.0238 -0.2754
   51loPI    C3  803  13.249  15.553  10.064 -0.0339  0.0221 -0.2302
   51loPI   PO4  804  12.754  15.764   9.623 -0.1015 -0.1029 -0.0961
   51loPI   GL1  805  12.731  15.776   9.269 -0.1098  0.2005  0.2659
   51loPI   GL2  806  12.848  15.462   9.156  0.1803 -0.1804 -0.0489
   51loPI   C1A  807  12.457  15.765   8.892 -0.2781 -0.2164  0.4206
   51loPI   C2A  808  12.490  15.689   8.435 -0.1455  0.1022 -0.3483
   51loPI   C3A  809  12.476  15.605   8.050  0.6612  0.0750  0.0719
   51loPI   C4A  810  12.660  15.474   7.620 -0.0368 -0.0636  0.0321
   51loPI   C5A  811  12.896  15.298   7.248 -0.1050 -0.1508  0.0449
   51loPI   C6A  812  13.289  15.177   6.997 -0.3366  0.0445 -0.2328
   51loPI   C1B  813  13.043  15.277   8.807  0.2229  0.0257  0.2266
   51loPI   C2B  814  13.157  15.057   8.324 -0.0005 -0.1975  0.1333
   51loPI   C3B  815  13.117  14.959   7.951 -0.0379 -0.1767  0.2324
   51loPI   C4B  816  13.043  14.900   7.436  0.1089  0.0306  0.0091
   52loPI    C1  817   7.233   6.281  10.715 -0.1541  0.0140  0.0776
   52loPI    C2  818   7.589   6.107  10.664 -0.1630  0.0114  0.0232
   52loPI    C3  819   7.470   6.215  11.030 -0.1651 -0.1133  0.0598
   52loPI   PO4  820   7.190   6.385  10.405 -0.0661 -0.1755 -0.3519
   52loPI   GL1  821   7.293   6.623  10.171 -0.1993 -0.1170 -0.0667
   52loPI   GL2  822   7.631   6.405  10.091 -0.3862  0.2584  0.1147
   52loPI   C1A  823   7.232   6.814   9.760 -0.0857 -0.0068 -0.1294
   52loPI   C2A  824   7.071   7.055   9.317 -0.0558  0.3682  0.0875
   52loPI   C3A  825   6.852   6.937   8.850 -0.1677 -0.0636 -0.1042
   52loPI   C4A  826   6.777   7.082   8.398 -0.1125 -0.0792 -0.1033
   52loPI   C5A  827   6.913   7.181   7.999  0.1105 -0.1305  0.1965
   52loPI   C6A  828   6.749   7.102   7.565 -0.0991 -0.1319  0.1283
   52loPI   C1B  829   7.576   6.430   9.625 -0.0964 -0.2903  0.1088
   52loPI   C2B  830   7.547   6.738   9.299 -0.2996 -0.0031 -0.1602
   52loPI   C3B  831   7.379   6.867   8.938 -0.1324  0.0817 -0.1073
   52loPI   C4B  832   7.340   6.942   8.531  0.2111  0.1562  0.1181
   53loPI    C1  833   1.498   5.226   9.885 -0.4221 -0.0175 -0.1954
   53loPI    C2  834   1.552   4.849   9.762  0.0734 -0.0168 -0.0028
   53loPI    C3  835   1.502   4.927  10.151 -0.1017  0.1121 -0.0500
   53loPI   PO4  836   1.445   5.352   9.626  0.0500  0.2067  0.0896
   53loPI   GL1  837   1.398   5.450   9.147  0.1587  0.3946 -0.0942
   53loPI   GL2  838   1.528   5.762   9.018  0.1545  0.0971  0.0348
   53loPI   C1A  839   1.286   5.148   8.791  0.1027  0.2440 -0.0303
   53loPI   C2A  840   1.334   5.136   8.303  0.0705  0.1561 -0.0810
   53loPI   C3A  841   1.448   4.991   7.995 -0.0833  0.3339  0.3014
   53loPI   C4A  842   1.730   5.039   7.607  0.0705  0.1831  0.0731
   53loPI   C5A  843   2.006   4.866   7.335  0.0544  0.0230 -0.2409
   53loPI   C6A  844   2.377   4.848   6.970  0.3734  0.1974 -0.1678
   53loPI   C1B  845   1.487   5.568   8.654 -0.1220 -0.0197  0.3839
   53loPI   C2B  846   1.367   5.665   8.285 -0.0217 -0.1387  0.1280
   53loPI   C3B  847   1.335   5.736   7.821 -0.2533 -0.0437  0.1118
   53loPI   C4B  848   1.282   5.850   7.422 -0.0420 -0.1792  0.1660
   54loPI    C1  849   3.463  18.832   9.947  0.1280  0.1057  0.4119
   54loPI    C2  850   3.243  19.035  10.212  0.0372  0.3588  0.1470
   54loPI    C3  851   3.510  18.766  10.339 -0.0403  0.4401  0.4921
   54loPI   PO4  852   3.329  18.887   9.674  0.2322 -0.2047  0.3042
   54loPI   GL1  853   3.441  18.689   9.363 -0.0092  0.2156  0.1498
   54loPI   GL2  854   3.591  18.437   9.483 -0.1923 -0.3374  0.1129
   54loPI   C1A  855   3.317  18.553   8.898 -0.2168  0.2047  0.2227
   54loPI   C2A  856   3.366  18.658   8.409 -0.0374  0.0521  0.2598
   54loPI   C3A  857   3.440  18.652   8.018  0.0709 -0.1162  0.0267
   54loPI   C4A  858   3.710  18.655   7.705  0.0656 -0.4294 -0.3030
   54loPI   C5A  859   4.027  18.947   7.561  0.1063  0.2435 -0.0715
   54loPI   C6A  860   4.376  18.944   7.472  0.2181 -0.1884  0.0497
   54loPI   C1B  861   3.762  18.340   9.038  0.3052  0.1109  0.0788
   54loPI   C2B  862   3.606  18.315   8.565 -0.2343  0.1656 -0.3965
   54loPI   C3B  863   3.603  18.160   8.049  0.1198 -0.1735 -0.0066
   54loPI   C4B  864   3.467  17.942   7.633 -0.3929 -0.2113  0.0392
   55loPI    C1  865   4.541  12.160   9.734  0.0673 -0.0166  0.1737
   55loPI    C2  866   4.720  11.895   9.493  0.0495  0.2456 -0.1348
   55loPI    C3  867   4.847  11.942   9.869  0.0133 -0.2398 -0.0562
   55loPI   PO4  868   4.485  12.394   9.577  0.1827  0.5015  0.3493
   55loPI   GL1  869   4.725  12.359   9.147 -0.3972  0.2102 -0.2240
   55loPI   GL2  870   4.980  12.056   9.047  0.1617  0.3895  0.2849
   55loPI   C1A  871   4.587  12.190   8.721 -0.3133 -0.0484  0.1766
   55loPI   C2A  872   4.321  12.045   8.330 -0.1918 -0.0076  0.0018
   55loPI   C3A  873   4.063  11.905   8.022 -0.0943  0.1034 -0.0218
   55loPI   C4A  874   4.125  11.770   7.578  0.0992  0.2144 -0.0404
   55loPI   C5A  875   3.940  11.903   7.163 -0.0820  0.0408  0.0308
   55loPI   C6A  876   3.709  11.856   6.776 -0.2100 -0.1611 -0.0090
   55loPI   C1B  877   5.127  12.262   8.692 -0.1777 -0.0100  0.0034
   55loPI   C2B  878   5.062  12.225   8.350  0.0469 -0.2237  0.0198
   55loPI   C3B  879   4.710  12.350   8.167  0.2380 -0.0581 -0.0302
   55loPI   C4B  880   4.691  12.344   7.734  0.0454 -0.3328  0.1398
   56loPI    C1  881  13.799   4.497  10.131 -0.1003 -0.2283 -0.1167
   56loPI    C2  882  13.905   4.187  10.361 -0.3038 -0.2845 -0.0968
   56loPI    C3  883  13.753   4.518  10.528  0.2179 -0.0406 -0.0867
   56loPI   PO4  884  13.959   4.479   9.889  0.0098 -0.0115 -0.0331
   56loPI   GL1  885  14.158   4.598   9.599 -0.1543 -0.1113 -0.0367
   56loPI   GL2  886  13.815   4.631   9.414 -0.0624 -0.2400 -0.1601
   56loPI   C1A  887  14.365   4.701   9.189 -0.0163  0.0740 -0.0389
   56loPI   C2A  888  14.194   4.691   8.792  0.0185  0.0034 -0.3348
   56loPI   C3A  889  14.257   4.558   8.375  0.1619  0.1007 -0.0120
   56loPI   C4A  890  14.636   4.694   8.063  0.0218 -0.2212 -0.3980
   56loPI   C5A  891  14.864   5.058   7.887  0.2026  0.2867  0.4097
   56loPI   C6A  892  14.927   5.431   7.592  0.3252  0.4230 -0.5059
   56loPI   C1B  893  13.894   4.947   9.213 -0.3214  0.3590 -0.2833
   56loPI   C2B  894  13.752   5.033   8.753 -0.0612  0.1624 -0.2861
   56loPI   C3B  895  13.696   5.118   8.294 -0.3321 -0.0801 -0.0097
   56loPI   C4B  896  13.656   5.104   7.918  0.0759  0.0178 -0.1404
   57loPI    C1  897   3.554  17.622  10.228  0.0855  0.3767 -0.1815
   57loPI    C2  898   3.845  17.399  10.387 -0.2833  0.0319  0.0306
   57loPI    C3  899   3.645  17.660  10.615 -0.1943  0.2143 -0.0969
   57loPI   PO4  900   3.598  17.681  10.022 -0.1064  0.1043 -0.4097
   57loPI   GL1  901   3.313  17.812   9.646 -0.2591  0.1950 -0.1308
   57loPI   GL2  902   3.120  17.642   9.435 -0.1567  0.1927 -0.1487
   57loPI   C1A  903   3.481  17.950   9.296 -0.3432  0.0211 -0.2030
   57loPI   C2A  904   3.752  17.827   8.980 -0.1216  0.2313 -0.0813
   57loPI   C3A  905   3.836  17.823   8.435  0.1108  0.0138 -0.2094
   57loPI   C4A  906   3.887  17.726   7.964  0.2010  0.1440  0.2351
   57loPI   C5A  907   4.019  17.726   7.511 -0.0938  0.0516  0.0472
   57loPI   C6A  908   4.372  17.965   7.269  0.1534  0.2633 -0.0819
   57loPI   C1B  909   3.091  17.814   9.017 -0.0030  0.0654 -0.1168
   57loPI   C2B  910   3.263  18.047   8.765  0.1270  0.2297  0.3008
   57loPI   C3B  911   3.153  18.188   8.300 -0.2658  0.0882  0.2557
   57loPI   C4B  912   3.076  18.244   7.825 -0.0543  0.1946 -0.0951
   58loPI    C1  913   7.726  16.406  10.269 -0.2701  0.1607 -0.3203
   58loPI    C2  914   7.593  16.168  10.562 -0.4865  0.1175 -0.4515
   58loPI    C3  915   7.553  16.565  10.592 -0.0499  0.1487 -0.1941
   58loPI   PO4  916   7.561  16.450   9.934  0.1226 -0.0932 -0.2005
   58loPI   GL1  917   7.587  16.422   9.398 -0.2018 -0.2082 -0.2462
   58loPI   GL2  918   7.405  16.656   9.164  0.0058 -0.1053 -0.1627
   58loPI   C1A  919   7.739  16.398   8.924 -0.2370 -0.1079  0.2924
   58loPI   C2A  920   7.799  16.236   8.560 -0.0589  0.3288 -0.0097
   58loPI   C3A  921   7.738  16.085   8.155  0.0625  0.2958 -0.1103
   58loPI   C4A  922   7.589  15.925   7.680 -0.1249  0.0438  0.0838
   58loPI   C5A  923   7.451  15.681   7.449 -0.1143  0.0494  0.0371
   58loPI   C6A  924   7.213  15.778   7.096  0.0448  0.2380  0.0367
   58loPI   C1B  925   7.119  16.729   8.887  0.3026  0.2869 -0.0523
   58loPI   C2B  926   6.977  16.938   8.561 -0.2680  0.0806 -0.0646
   58loPI   C3B  927   6.847  17.141   8.180 -0.0723  0.0858  0.1672
   58loPI   C4B  928   6.915  17.266   7.840 -0.2064  0.5226  0.1305
   59loPI    C1  929   3.083  12.952   9.599  0.1025 -0.1196 -0.0152
   59loPI    C2  930   3.126  13.342   9.677 -0.3710 -0.0483 -0.0750
   59loPI    C3  931   2.999  13.093   9.964  0.4093 -0.2590  0.1123
   59loPI   PO4  932   2.960  12.922   9.388  0.3771  0.1930 -0.2466
   59loPI   GL1  933   3.108  12.803   9.020 -0.2765  0.1157 -0.5796
   59loPI   GL2  934   3.322  12.564   9.022  0.0937  0.2502 -0.2633
   59loPI   C1A  935   2.930  12.817   8.598 -0.1062  0.3015 -0.1735
   59loPI   C2A  936   2.725  12.990   8.347  0.0542 -0.3539 -0.0163
   59loPI   C3A  937   2.671  12.866   7.981  0.0684 -0.1492 -0.0881
   59loPI   C4A  938   2.884  12.751   7.509  0.3727  0.0962  0.0480
   59loPI   C5A  939   3.067  12.439   7.083  0.0289  0.1756 -0.3098
   59loPI   C6A  940   3.275  12.102   6.847 -0.0104  0.0480  0.0618
   59loPI   C1B  941   3.309  12.492   8.619  0.1084 -0.1998  0.0340
   59loPI   C2B  942   3.406  12.405   8.193 -0.0114  0.0986 -0.0291
   59loPI   C3B  943   3.273  12.661   7.803  0.2092 -0.0740 -0.1114
   59loPI   C4B  944   3.394  12.742   7.388 -0.1744  0.0059  0.2752
   60loPI    C1  945   7.766  12.718  10.122  0.1593  0.0930  0.0463
   60loPI    C2  946   7.593  13.057  10.244 -0.1781 -0.0058 -0.1413
   60loPI    C3  947   7.975  12.982  10.338 -0.1655  0.3212  0.0897
   60loPI   PO4  948   7.666  12.732   9.840 -0.2056 -0.2239 -0.1710
   60loPI   GL1  949   7.881  12.464   9.453  0.4116 -0.0693 -0.1240
   60loPI   GL2  950   7.540  12.424   9.414  0.0184 -0.0881  0.1834
   60loPI   C1A  951   7.861  12.439   9.028  0.1217  0.1101 -0.1072
   60loPI   C2A  952   7.888  12.428   8.563 -0.0724  0.0825 -0.1088
   60loPI   C3A  953   7.890  12.533   8.165 -0.1116  0.3317 -0.0206
   60loPI   C4A  954   7.983  12.424   7.727 -0.3157 -0.1636 -0.1381
   60loPI   C5A  955   8.083  12.166   7.459 -0.0442  0.0130 -0.0417
   60loPI   C6A  956   8.279  11.984   7.138  0.0033 -0.0615 -0.0191
   60loPI   C1B  957   7.408  12.561   8.902  0.2343  0.1093 -0.1753
   60loPI   C2B  958   7.433  12.735   8.470  0.2847 -0.0951 -0.1305
   60loPI   C3B  959   7.470  12.824   8.013 -0.0642  0.2916  0.3230
   60loPI   C4B  960   7.605  13.121   7.687 -0.1342  0.0204  0.1372
   61loPI    C1  961  18.143   4.424   9.784 -0.3674 -0.1558 -0.1711
   61loPI    C2  962  18.278   4.510  10.151  0.0152 -0.1926 -0.2995
   61loPI    C3  963  17.885   4.478  10.086 -0.0712  0.0967  0.0443
   61loPI   PO4  964  18.302   4.299   9.625 -0.3167 -0.0572 -0.0692
   61loPI   GL1  965  18.220   4.092   9.233 -0.0220  0.0572 -0.1073
   61loPI   GL2  966  18.140   3.825   9.430  0.1381  0.2391  0.2254
   61loPI   C1A  967  18.242   4.339   8.858 -0.0982  0.2231  0.1438
   61loPI   C2A  968  18.404   4.412   8.397  0.1164  0.3271 -0.0042
   61loPI   C3A  969  18.389   4.166   7.936  0.0888  0.3104 -0.0088
   61loPI   C4A  970  18.516   4.319   7.625 -0.0550 -0.0138  0.1776
   61loPI   C5A  971  18.209   4.577   7.401 -0.2210  0.0159  0.0156
   61loPI   C6A  972  18.326   4.927   7.149 -0.2272  0.1985 -0.2991
   61loPI   C1B  973  18.272   3.538   9.124 -0.1586  0.4754 -0.0158
   61loPI   C2B  974  18.446   3.177   8.972 -0.0290 -0.0699 -0.0285
   61loPI   C3B  975  18.682   2.944   8.691 -0.0053 -0.0571 -0.0708
   61loPI   C4B  976  18.945   3.003   8.357 -0.0979  0.0020  0.0260
   62loPI    C1  977  15.370   8.883  10.150  0.1907 -0.2496 -0.1086
   62loPI    C2  978  15.333   8.705  10.506 -0.0298 -0.0485 -0.0277
   62loPI    C3  979  15.672   8.895  10.412  0.0183 -0.0768  0.0863
   62loPI   PO4  980  15.333   8.753  10.004 -0.2824 -0.3967 -0.0688
   62loPI   GL1  981  15.197   8.847   9.537 -0.0786 -0.0509 -0.2690
   62loPI   GL2  982  14.865   8.793   9.263 -0.1809 -0.1568  0.3986
   62loPI   C1A  983  15.386   8.860   9.052 -0.1696  0.0237 -0.0669
   62loPI   C2A  984  15.510   8.883   8.671  0.0890  0.1752  0.0247
   62loPI   C3A  985  15.507   8.812   8.278 -0.1845  0.3116  0.0745
   62loPI   C4A  986  15.420   8.749   7.917 -0.1842  0.2605 -0.0871
   62loPI   C5A  987  15.467   8.770   7.556 -0.0378  0.1893  0.0289
   62loPI   C6A  988  15.849   8.931   7.375 -0.0871  0.0229 -0.0938
   62loPI   C1B  989  14.969   8.644   8.902  0.1027 -0.0890  0.3563
   62loPI   C2B  990  15.066   8.516   8.466 -0.1161  0.0119 -0.2362
   62loPI   C3B  991  15.020   8.406   8.065  0.1074 -0.0517 -0.1586
   62loPI   C4B  992  15.075   8.424   7.644  0.2177  0.3601 -0.1969
   63loPI    C1  993   8.630  16.239   9.913 -0.1955  0.4883  0.1124
   63loPI    C2  994   8.934  16.298  10.166  0.1923  0.1396 -0.2561
   63loPI    C3  995   8.643  16.039  10.259  0.3823 -0.0578 -0.2040
   63loPI   PO4  996   8.779  16.268   9.704  0.0711 -0.1617  0.0134
   63loPI   GL1  997   9.127  16.288   9.439  0.1461 -0.0340  0.2791
   63loPI   GL2  998   9.116  16.009   9.411  0.3214  0.2383  0.2201
   63loPI   C1A  999   9.126  16.348   9.022  0.1779 -0.0033 -0.1880
   63loPI   C2A 1000   9.207  16.288   8.616 -0.1356  0.1905 -0.0316
   63loPI   C3A 1001   9.255  16.039   8.331  0.0877 -0.0613  0.2548
   63loPI   C4A 1002   9.197  15.821   7.835 -0.2936 -0.0291 -0.0253
   63loPI   C5A 1003   9.130  15.839   7.491  0.1417  0.3464  0.1591
   63loPI   C6A 1004   8.873  15.756   7.126  0.1489  0.0087  0.0398
   63loPI   C1B 1005   9.111  15.861   8.963  0.0826 -0.2248  0.0866
   63loPI   C2B 1006   9.095  15.666   8.592 -0.0462  0.2764 -0.1112
   63loPI   C3B 1007   9.145  15.538   8.227 -0.2424 -0.1782 -0.2299
   63loPI   C4B 1008   9.050  15.371   7.759 -0.2273 -0.0070  0.1617
   64loPI    C1 1009   8.776  12.186  10.153  0.0259 -0.2063  0.1780
   64loPI    C2 1010   8.466  11.933  10.173  0.1200 -0.3099  0.3501
   64loPI    C3 1011   8.840  11.795  10.209  0.1997 -0.2154 -0.0709
   64loPI   PO4 1012   8.652  12.364   9.802  0.0062 -0.1583 -0.1490
   64loPI   GL1 1013   8.642  12.277   9.307  0.0334 -0.1751 -0.4379
   64loPI   GL2 1014   8.918  12.133   9.264  0.2144 -0.0636 -0.0977
   64loPI   C1A 1015   8.350  12.164   9.005 -0.0228  0.0174 -0.1841
   64loPI   C2A 1016   8.299  12.093   8.537  0.0835 -0.0316 -0.0110
   64loPI   C3A 1017   8.420  12.050   8.124 -0.0179 -0.1925 -0.0281
   64loPI   C4A 1018   8.471  11.964   7.753 -0.1204  0.1172  0.1282
   64loPI   C5A 1019   8.271  11.618   7.474  0.2801 -0.0795 -0.0915
   64loPI   C6A 1020   8.470  11.275   7.177  0.0431 -0.0640  0.2350
   64loPI   C1B 1021   8.806  12.254   8.801 -0.0855  0.0235  0.3377
   64loPI   C2B 1022   8.784  12.328   8.360  0.1290 -0.3619 -0.0190
   64loPI   C3B 1023   8.958  12.144   8.018  0.1797 -0.0202  0.0004
   64loPI   C4B 1024   8.988  11.876   7.647  0.1910  0.1430 -0.2815
   65loPI    C1 1025   2.702  16.572   9.862  0.1502  0.1691  0.0714
   65loPI    C2 1026   2.336  16.720   9.796  0.0347 -0.0891  0.1203
   65loPI    C3 1027   2.506  16.758  10.156 -0.0443 -0.1784  0.1674
   65loPI   PO4 1028   2.715  16.525   9.463 -0.0313 -0.1665 -0.3838
   65loPI   GL1 1029   2.736  16.460   9.053  0.2679  0.0059 -0.1145
   65loPI   GL2 1030   3.087  16.426   9.145  0.0495 -0.1329  0.0763
   65loPI   C1A 1031   2.891  16.686   8.776 -0.1164  0.1427 -0.1455
   65loPI   C2A 1032   3.115  16.859   8.463  0.0302 -0.0631  0.5635
   65loPI   C3A 1033   3.161  16.773   7.948 -0.4649 -0.1145  0.0420
   65loPI   C4A 1034   3.396  16.920   7.597  0.0292  0.2094  0.0398
   65loPI   C5A 1035   3.693  16.823   7.248 -0.0821 -0.0631  0.0571
   65loPI   C6A 1036   3.936  16.539   7.254  0.3742 -0.0930  0.1968
   65loPI   C1B 1037   3.508  16.531   8.885 -0.3337  0.0818  0.2554
   65loPI   C2B 1038   3.532  16.587   8.526  0.1742 -0.1307  0.3352
   65loPI   C3B 1039   3.535  16.468   8.098  0.2935 -0.4913 -0.2887
   65loPI   C4B 1040   3.534  16.320   7.698  0.0961  0.0824 -0.0769
   66loPI    C1 1041   9.121  17.142  10.154  0.0202 -0.2173 -0.1698
   66loPI    C2 1042   8.766  16.969  10.215 -0.0658 -0.0303 -0.1341
   66loPI    C3 1043   8.975  17.111  10.525 -0.0500  0.0353 -0.1746
   66loPI   PO4 1044   9.025  17.331  10.012 -0.0103 -0.0261  0.1199
   66loPI   GL1 1045   9.061  17.564   9.620 -0.4306  0.0636 -0.0294
   66loPI   GL2 1046   8.851  17.654   9.322 -0.0239  0.3123 -0.0222
   66loPI   C1A 1047   9.247  17.586   9.127 -0.0241 -0.1381 -0.1356
   66loPI   C2A 1048   9.226  17.671   8.749 -0.3460  0.0556  0.2956
   66loPI   C3A 1049   9.216  17.679   8.266 -0.1601 -0.1442  0.3471
   66loPI   C4A 1050   9.249  17.631   7.852 -0.3447  0.1856 -0.0376
   66loPI   C5A 1051   9.169  17.434   7.486  0.1108 -0.0334 -0.0158
   66loPI   C6A 1052   9.009  16.992   7.418  0.0540 -0.2157  0.2666
   66loPI   C1B 1053   8.707  17.629   8.815  0.0680 -0.2319 -0.5946
   66loPI   C2B 1054   8.697  17.511   8.370 -0.5573  0.1988  0.1244
   66loPI   C3B 1055   8.685  17.620   7.924 -0.1727 -0.1786  0.1959
   66loPI   C4B 1056   9.014  17.948   7.579  0.0478 -0.0263  0.1803
   67loPI    C1 1057  18.606  16.773   9.260  0.1011 -0.1691 -0.1037
   67loPI    C2 1058  18.957  16.884   9.104  0.1246  0.1005  0.1314
   67loPI    C3 1059  18.869  16.977   9.483 -0.1859  0.0009  0.0863
   67loPI   PO4 1060  18.409  16.858   9.047 -0.3041  0.2207  0.1192
   67loPI   GL1 1061  18.012  16.616   8.920  0.0898  0.1423 -0.4210
   67loPI   GL2 1062  17.738  16.734   8.851  0.1426  0.1510  0.2050
   67loPI   C1A 1063  18.057  16.615   8.510 -0.3396 -0.0779  0.1282
   67loPI   C2A 1064  18.057  16.688   8.112  0.3401  0.4052 -0.0355
   67loPI   C3A 1065  18.227  16.624   7.759 -0.0603 -0.4592 -0.2084
   67loPI   C4A 1066  18.166  16.790   7.429  0.0419  0.1716 -0.2987
   67loPI   C5A 1067  18.033  16.924   7.021  0.0284  0.2959 -0.2338
   67loPI   C6A 1068  17.998  16.899   6.599  0.0796  0.3227  0.3676
   67loPI   C1B 1069  17.407  16.867   8.554  0.0635 -0.1994 -0.4688
   67loPI   C2B 1070  17.194  16.883   8.144 -0.2543 -0.2037  0.3020
   67loPI   C3B 1071  16.975  17.284   7.885  0.1666  0.2405 -0.0559
   67loPI   C4B 1072  17.114  17.785   8.028  0.3717 -0.3385 -0.2123
   68loPI    C1 1073   1.894   5.575   9.978  0.1256  0.1548  0.1974
   68loPI    C2 1074   2.029   5.754  10.309  0.1794 -0.0888  0.3092
   68loPI    C3 1075   1.676   5.566  10.314  0.1227  0.0135  0.1924
   68loPI   PO4 1076   2.082   5.641   9.755 -0.3792 -0.1024 -0.0782
   68loPI   GL1 1077   2.368   5.610   9.380 -0.0800  0.0826  0.0249
   68loPI   GL2 1078   2.263   5.899   9.375  0.1474 -0.2025 -0.1528
   68loPI   C1A 1079   2.450   5.435   8.974  0.0036 -0.2351  0.0421
   68loPI   C2A 1080   2.751   5.444   8.605  0.0961  0.0627 -0.1103
   68loPI   C3A 1081   2.956   5.486   8.284  0.2896  0.0787  0.1895
   68loPI   C4A 1082   3.451   5.270   8.166 -0.0490 -0.3681  0.1335
   68loPI   C5A 1083   3.742   5.353   7.872 -0.0983 -0.1177  0.0375
   68loPI   C6A 1084   4.124   5.474   7.937  0.1101  0.0666  0.2567
   68loPI   C1B 1085   2.395   6.002   8.941  0.0727  0.0607  0.2968
   68loPI   C2B 1086   2.396   6.023   8.469 -0.0560 -0.0209 -0.0441
   68loPI   C3B 1087   2.688   5.908   8.144 -0.0093  0.3512 -0.2067
   68loPI   C4B 1088   3.205   5.684   7.794  0.1068 -0.1040  0.1716
   69loPI    C1 1089   3.630   3.482  10.678  0.0451 -0.1642 -0.0670
   69loPI    C2 1090   3.449   3.312  10.992  0.1550 -0.0168  0.0778
   69loPI    C3 1091   3.319   3.663  10.853  0.1573 -0.0430  0.0091
   69loPI   PO4 1092   3.640   3.338  10.441 -0.0623 -0.0849  0.0795
   69loPI   GL1 1093   3.669   3.514  10.056 -0.5186 -0.0819  0.1220
   69loPI   GL2 1094   3.943   3.464  10.067 -0.0775 -0.2023  0.2550
   69loPI   C1A 1095   3.578   3.343   9.627  0.0702  0.1627 -0.0466
   69loPI   C2A 1096   3.239   3.116   9.351 -0.2779  0.0015  0.1222
   69loPI   C3A 1097   3.125   2.961   8.996 -0.3066 -0.2245 -0.1327
   69loPI   C4A 1098   3.174   3.001   8.612  0.1381 -0.0505  0.2168
   69loPI   C5A 1099   3.147   3.340   8.268 -0.2211  0.0706 -0.0327
   69loPI   C6A 1100   3.409   3.782   8.180 -0.0886  0.0109 -0.3878
   69loPI   C1B 1101   4.012   3.531   9.671  0.0345 -0.3550 -0.4415
   69loPI   C2B 1102   3.889   3.510   9.247 -0.0545  0.1127 -0.0472
   69loPI   C3B 1103   3.903   3.526   8.834 -0.2096 -0.3625  0.0850
   69loPI   C4B 1104   4.066   3.456   8.547 -0.2232 -0.1905 -0.4668
   70loPI    C1 1105   3.073   9.411   9.295  0.4830 -0.2307 -0.0357
   70loPI    C2 1106   3.313   9.485   9.605  0.0468  0.0560  0.2464
   70loPI    C3 1107   3.193   9.785   9.370 -0.1439 -0.0614  0.1914
   70loPI   PO4 1108   2.878   9.313   9.385  0.1519 -0.3605 -0.1464
   70loPI   GL1 1109   2.724   9.182   9.000  0.2247  0.2886  0.0771
   70loPI   GL2 1110   2.615   9.388   8.789 -0.0848  0.3385 -0.0207
   70loPI   C1A 1111   2.996   8.935   8.823  0.0726 -0.0453 -0.0137
   70loPI   C2A 1112   3.172   8.816   8.433 -0.0581 -0.1131 -0.1570
   70loPI   C3A 1113   2.970   8.861   8.049 -0.3014 -0.2183 -0.1393
   70loPI   C4A 1114   3.006   8.721   7.756 -0.2435 -0.2546  0.1564
   70loPI   C5A 1115   3.173   8.469   7.579  0.1039  0.1990 -0.0442
   70loPI   C6A 1116   3.271   8.153   7.304  0.1788 -0.0408  0.0565
   70loPI   C1B 1117   2.627   9.633   8.381 -0.0875  0.2647  0.1385
   70loPI   C2B 1118   2.545   9.737   7.990 -0.0279  0.1096 -0.2893
   70loPI   C3B 1119   2.500   9.900   7.634  0.2259 -0.0023  0.2653
   70loPI   C4B 1120   2.398   9.952   7.163 -0.0422 -0.1287  0.1041
   71loPI    C1 1121  19.024  11.771   9.252 -0.0659 -0.0451 -0.0669
   71loPI    C2 1122  18.883  12.127   9.368 -0.0078 -0.0973  0.1692
   71loPI    C3 1123  19.183  11.955   9.570 -0.0074 -0.2616  0.0309
   71loPI   PO4 1124  18.845  11.624   9.127 -0.1452 -0.4537  0.2616
   71loPI   GL1 1125  19.035  11.610   8.740  0.1492 -0.2458  0.1959
   71loPI   GL2 1126  19.383  11.575   8.755  0.1989  0.2397  0.0693
   71loPI   C1A 1127  18.836  11.951   8.482 -0.0094 -0.0904  0.0141
   71loPI   C2A 1128  18.720  12.040   7.965 -0.0804 -0.1908 -0.1061
   71loPI   C3A 1129  18.796  12.227   7.583  0.0888 -0.0369  0.2886
   71loPI   C4A 1130  19.110  12.318   7.302  0.1455 -0.0285 -0.2532
   71loPI   C5A 1131  19.283  12.563   7.118  0.0548 -0.0100 -0.1139
   71loPI   C6A 1132  19.411  12.619   6.753 -0.2063  0.0751 -0.0669
   71loPI   C1B 1133  19.129  11.543   8.295 -0.4028 -0.1396  0.1906
   71loPI   C2B 1134  19.056  11.617   7.956  0.3445 -0.2146  0.0104
   71loPI   C3B 1135  18.885  11.730   7.632  0.2261  0.4424 -0.1272
   71loPI   C4B 1136  18.450  11.770   7.488  0.4629 -0.3029  0.0185
   72loPI    C1 1137  11.435   4.822  10.284  0.2664  0.0995  0.0323
   72loPI    C2 1138  11.206   4.580  10.507  0.1334  0.1932 -0.0012
   72loPI    C3 1139  11.602   4.525  10.493  0.1116  0.0203  0.0453
   72loPI   PO4 1140  11.414   4.777  10.033 -0.1185  0.1813  0.0454
   72loPI   GL1 1141  11.291   4.707   9.744 -0.0406  0.4444 -0.0957
   72loPI   GL2 1142  10.983   4.665   9.602 -0.1545  0.0397  0.2871
   72loPI   C1A 1143  11.454   4.850   9.300  0.1097  0.2290  0.1660
   72loPI   C2A 1144  11.450   4.578   8.963 -0.0224 -0.2361  0.0563
   72loPI   C3A 1145  11.354   4.467   8.648 -0.0419  0.2054 -0.0950
   72loPI   C4A 1146  11.383   4.372   8.209 -0.1582  0.0972  0.2684
   72loPI   C5A 1147  11.480   4.423   7.728  0.0758  0.0606 -0.0003
   72loPI   C6A 1148  11.622   4.040   7.514 -0.0938 -0.0635 -0.0428
   72loPI   C1B 1149  10.944   4.617   9.108 -0.2747  0.0833 -0.0573
   72loPI   C2B 1150  10.897   4.523   8.642 -0.1616  0.3132 -0.1233
   72loPI   C3B 1151  10.875   4.490   8.226 -0.4940 -0.0117 -0.5522
   72loPI   C4B 1152  10.900   4.462   7.796  0.1522  0.0206  0.3354
   73loPI    C1 1153   8.833  13.575   9.680  0.2473 -0.1369 -0.0742
   73loPI    C2 1154   9.066  13.528  10.003  0.1484 -0.0648  0.0082
   73loPI    C3 1155   9.089  13.268   9.700  0.3120 -0.0769  0.0305
   73loPI   PO4 1156   8.781  13.773   9.649  0.0175  0.0086 -0.0348
   73loPI   GL1 1157   8.853  13.951   9.277  0.2194  0.1221 -0.1605
   73loPI   GL2 1158   8.774  13.587   9.123 -0.1017  0.0220 -0.1301
   73loPI   C1A 1159   8.981  13.994   8.949 -0.0915 -0.0345  0.0114
   73loPI   C2A 1160   8.985  13.873   8.461  0.0674  0.5249 -0.1930
   73loPI   C3A 1161   9.113  13.804   8.027 -0.1200  0.0495  0.0538
   73loPI   C4A 1162   9.180  13.785   7.627  0.1773  0.0005  0.1661
   73loPI   C5A 1163   9.003  13.750   7.276 -0.1784  0.2503  0.4941
   73loPI   C6A 1164   8.599  13.573   7.163  0.1388 -0.3453  0.2365
   73loPI   C1B 1165   8.942  13.407   8.783  0.1331  0.0603 -0.0592
   73loPI   C2B 1166   8.918  13.346   8.311 -0.0215 -0.0407 -0.0483
   73loPI   C3B 1167   9.075  13.298   7.898  0.1013  0.1721  0.2129
   73loPI   C4B 1168   8.802  13.357   7.541 -0.4591  0.0297 -0.1089
   74loPI    C1 1169   4.138  12.250   9.995  0.1085 -0.0172 -0.0311
   74loPI    C2 1170   4.305  12.583  10.141  0.2724 -0.2033  0.2133
   74loPI    C3 1171   4.036  12.382  10.359 -0.2632  0.0789 -0.1657
   74loPI   PO4 1172   3.950  12.194   9.733 -0.3870 -0.0746 -0.0246
   74loPI   GL1 1173   4.095  12.367   9.318 -0.0626  0.0299 -0.3552
   74loPI   GL2 1174   4.176  12.163   9.233 -0.0516  0.1889  0.2232
   74loPI   C1A 1175   3.765  12.321   9.009  0.3088 -0.1629 -0.0037
   74loPI   C2A 1176   3.803  12.316   8.531  0.0416 -0.0947 -0.1157
   74loPI   C3A 1177   3.892  12.421   8.096 -0.2214 -0.2823  0.1322
   74loPI   C4A 1178   4.125  12.285   7.744 -0.0076  0.0585 -0.2398
   74loPI   C5A 1179   4.268  12.248   7.390 -0.2355  0.0664  0.0966
   74loPI   C6A 1180   4.328  12.501   7.035 -0.0946  0.0815  0.0512
   74loPI   C1B 1181   4.211  12.503   8.848  0.1109 -0.2896 -0.3989
   74loPI   C2B 1182   4.225  12.579   8.471  0.0532 -0.1423  0.1556
   74loPI   C3B 1183   4.240  12.713   7.976  0.2761  0.2336 -0.1211
   74loPI   C4B 1184   4.408  12.715   7.490 -0.1558  0.2265  0.1987
   75loPI    C1 1185   3.152   0.860  10.633  0.0644  0.1266  0.0621
   75loPI    C2 1186   3.408   0.930  10.932  0.0165  0.1524  0.0973
   75loPI    C3 1187   3.334   0.554  10.816  0.1546  0.1506  0.0128
   75loPI   PO4 1188   3.235   0.964  10.352 -0.2350  0.3054  0.2505
   75loPI   GL1 1189   3.479   1.045   9.932  0.3445  0.1359  0.0829
   75loPI   GL2 1190   3.247   1.322  10.035 -0.2414  0.1193  0.0975
   75loPI   C1A 1191   3.486   1.096   9.546 -0.0905 -0.1011  0.0565
   75loPI   C2A 1192   3.711   1.064   9.191  0.2530 -0.2098 -0.3287
   75loPI   C3A 1193   3.997   1.192   8.754 -0.4492  0.0575  0.1428
   75loPI   C4A 1194   4.210   1.180   8.353  0.4283  0.2807  0.0946
   75loPI   C5A 1195   4.074   1.196   7.830  0.0103  0.1850  0.0421
   75loPI   C6A 1196   3.976   0.969   7.490  0.1250  0.2592 -0.0570
   75loPI   C1B 1197   3.313   1.643   9.819  0.1208  0.2581  0.2057
   75loPI   C2B 1198   3.180   1.679   9.327 -0.2130  0.3698 -0.3053
   75loPI   C3B 1199   2.809   1.578   9.034 -0.2928 -0.3348 -0.0634
   75loPI   C4B 1200   2.686   1.643   8.622 -0.2871  0.3199 -0.1381
   76loPI    C1 1201  10.442   4.835  10.190 -0.0709 -0.2295 -0.1212
   76loPI    C2 1202  10.324   4.818  10.572  0.0016 -0.1521 -0.0952
   76loPI    C3 1203  10.123   4.615  10.292 -0.4222  0.2687 -0.1095
   76loPI   PO4 1204  10.436   5.044  10.082 -0.2481  0.1283  0.0605
   76loPI   GL1 1205  10.333   5.271   9.714  0.1340 -0.1440  0.2180
   76loPI   GL2 1206  10.066   5.534   9.628  0.0783 -0.1460 -0.2205
   76loPI   C1A 1207  10.436   5.309   9.336  0.1329 -0.2946 -0.0104
   76loPI   C2A 1208  10.475   5.168   8.849  0.4260 -0.2287  0.4117
   76loPI   C3A 1209  10.662   4.911   8.446 -0.1757 -0.1730  0.1708
   76loPI   C4A 1210  10.815   5.011   7.957 -0.3990 -0.0249  0.1378
   76loPI   C5A 1211  11.108   4.862   7.622  0.2081  0.0368 -0.1002
   76loPI   C6A 1212  11.233   5.090   7.256 -0.1253 -0.3525  0.2849
   76loPI   C1B 1213  10.105   5.496   9.028 -0.2564 -0.0879  0.0831
   76loPI   C2B 1214  10.097   5.376   8.617  0.1736  0.0362  0.0814
   76loPI   C3B 1215   9.934   5.485   8.104 -0.0372  0.0777  0.1101
   76loPI   C4B 1216   9.940   5.656   7.598  0.0885  0.2069  0.0481
   77loPI    C1 1217   1.057  16.006   9.578 -0.0007 -0.0032  0.2283
   77loPI    C2 1218   1.089  15.778   9.905  0.0319 -0.2263  0.0717
   77loPI    C3 1219   0.785  15.722   9.651 -0.0368 -0.0017  0.1017
   77loPI   PO4 1220   1.272  16.019   9.448  0.0056  0.2597 -0.0245
   77loPI   GL1 1221   1.293  15.642   9.102 -0.2102 -0.1912 -0.2447
   77loPI   GL2 1222   1.249  15.488   8.773  0.1315 -0.0889  0.0778
   77loPI   C1A 1223   1.715  15.454   8.805 -0.1179 -0.0642 -0.1255
   77loPI   C2A 1224   1.853  15.549   8.530  0.0858  0.0572 -0.5365
   77loPI   C3A 1225   1.914  15.742   8.125  0.0074  0.2461  0.1078
   77loPI   C4A 1226   1.913  15.791   7.733  0.0142  0.1462  0.0874
   77loPI   C5A 1227   1.894  15.841   7.325 -0.2829 -0.2813 -0.3292
   77loPI   C6A 1228   2.015  16.122   6.952  0.1245  0.1010 -0.0619
   77loPI   C1B 1229   1.260  15.315   8.478 -0.2510 -0.1522  0.2949
   77loPI   C2B 1230   1.410  15.247   8.087 -0.2048 -0.0167 -0.2300
   77loPI   C3B 1231   1.600  15.384   7.939 -0.1651  0.0917  0.0325
   77loPI   C4B 1232   1.819  15.295   7.658 -0.2338 -0.2033  0.3952
   78loPI    C1 1233   5.325  11.869  10.006 -0.1176 -0.0162  0.0583
   78loPI    C2 1234   5.095  11.555  10.101  0.1513 -0.1956  0.1301
   78loPI    C3 1235   5.063  11.897  10.307 -0.0038 -0.2404  0.1813
   78loPI   PO4 1236   5.294  11.863   9.621 -0.0625 -0.0528  0.1530
   78loPI   GL1 1237   5.366  11.740   9.240  0.1042 -0.1030 -0.1836
   78loPI   GL2 1238   5.597  11.989   9.227  0.0435  0.2092 -0.2650
   78loPI   C1A 1239   5.232  11.654   8.892  0.3102  0.1585 -0.2588
   78loPI   C2A 1240   4.901  11.788   8.650  0.0084 -0.1737  0.2279
   78loPI   C3A 1241   4.838  11.821   8.295 -0.0630  0.0658  0.1145
   78loPI   C4A 1242   4.662  11.887   7.912  0.1830 -0.0998  0.2164
   78loPI   C5A 1243   4.685  11.873   7.467 -0.3784  0.0646  0.1199
   78loPI   C6A 1244   5.128  11.967   7.336 -0.3135 -0.2188  0.1008
   78loPI   C1B 1245   5.560  11.992   8.714  0.4124  0.3646 -0.1245
   78loPI   C2B 1246   5.500  11.890   8.277  0.2755  0.0084  0.0694
   78loPI   C3B 1247   5.591  11.709   7.822 -0.2171  0.1825 -0.0870
   78loPI   C4B 1248   5.360  11.515   7.347  0.1899 -0.0562 -0.1679
   79loPI    C1 1249   7.133  13.491  10.168  0.0486 -0.0446 -0.0487
   79loPI    C2 1250   6.847  13.260  10.324  0.0201  0.1203  0.1466
   79loPI    C3 1251   6.986  13.574  10.530 -0.0374  0.3585 -0.1706
   79loPI   PO4 1252   7.065  13.542   9.802  0.2905  0.3663 -0.0683
   79loPI   GL1 1253   6.769  13.752   9.554  0.0633 -0.3132  0.2629
   79loPI   GL2 1254   7.023  14.034   9.383  0.2506  0.1773 -0.0074
   79loPI   C1A 1255   6.531  13.528   9.204  0.0087  0.0099 -0.0274
   79loPI   C2A 1256   6.406  13.402   8.827 -0.1219 -0.0764  0.1026
   79loPI   C3A 1257   6.318  13.047   8.553  0.4190 -0.2468  0.2968
   79loPI   C4A 1258   6.138  13.161   8.147  0.0379 -0.1259  0.0999
   79loPI   C5A 1259   6.002  13.276   7.759 -0.2412 -0.0524  0.0023
   79loPI   C6A 1260   6.130  13.213   7.330 -0.1537 -0.1783 -0.2013
   79loPI   C1B 1261   6.902  13.842   8.985  0.0446  0.1972 -0.0931
   79loPI   C2B 1262   6.724  13.747   8.624 -0.0816 -0.1967 -0.0667
   79loPI   C3B 1263   6.495  13.515   8.272 -0.3582  0.2782 -0.2247
   79loPI   C4B 1264   6.564  13.269   7.920 -0.0273  0.2720  0.1448
   80loPI    C1 1265   0.602   3.959   9.942  0.0810  0.2013 -0.1790
   80loPI    C2 1266   0.384   4.256  10.098 -0.1215 -0.0026 -0.0676
   80loPI    C3 1267   0.570   3.996  10.339 -0.1600 -0.1201 -0.1635
   80loPI   PO4 1268   0.797   4.059   9.797  0.0558 -0.0347  0.0696
   80loPI   GL1 1269   0.926   4.292   9.392  0.3732 -0.0499 -0.4231
   80loPI   GL2 1270   0.963   4.089   9.307 -0.1210  0.2288  0.2018
   80loPI   C1A 1271   1.033   4.195   8.815 -0.1392  0.0155  0.0979
   80loPI   C2A 1272   1.071   4.204   8.404 -0.1391 -0.2784 -0.0798
   80loPI   C3A 1273   1.061   4.232   8.008  0.0941 -0.2786 -0.1890
   80loPI   C4A 1274   1.291   4.024   7.736 -0.1561 -0.1756  0.2751
   80loPI   C5A 1275   1.697   3.954   7.546  0.1301  0.0488 -0.0016
   80loPI   C6A 1276   1.907   4.169   7.147 -0.3671  0.0027  0.0380
   80loPI   C1B 1277   0.884   3.682   9.129 -0.3159 -0.0465  0.0222
   80loPI   C2B 1278   0.818   3.731   8.801  0.0663  0.1488  0.0930
   80loPI   C3B 1279   0.802   3.812   8.401 -0.0809  0.0816  0.2205
   80loPI   C4B 1280   0.653   3.985   8.003  0.0795  0.0489  0.1182
   81loPI    C1 1281  17.546  18.432   9.168  0.1935 -0.0776 -0.0734
   81loPI    C2 1282  17.727  18.102   9.302  0.1431 -0.0225  0.1340
   81loPI    C3 1283  17.552  18.352   9.560  0.1444  0.1449 -0.0259
   81loPI   PO4 1284  17.442  18.324   8.927 -0.0524 -0.1812  0.0174
   81loPI   GL1 1285  17.716  18.478   8.547 -0.1108 -0.0145 -0.2398
   81loPI   GL2 1286  17.776  18.146   8.521 -0.0176  0.2687 -0.0887
   81loPI   C1A 1287  17.870  18.503   8.161 -0.2681 -0.0090 -0.1170
   81loPI   C2A 1288  17.963  18.381   7.706 -0.0044  0.0275  0.0785
   81loPI   C3A 1289  18.214  18.412   7.312  0.1271 -0.1044  0.3345
   81loPI   C4A 1290  18.528  18.288   7.031  0.1676  0.3932  0.1039
   81loPI   C5A 1291  18.800  18.589   7.008 -0.0197 -0.0237  0.0498
   81loPI   C6A 1292  18.989  18.751   6.704 -0.2296 -0.1732  0.0063
   81loPI   C1B 1293  17.438  18.220   8.275  0.2801 -0.3706  0.5149
   81loPI   C2B 1294  17.462  18.059   7.844 -0.2330  0.2706 -0.3144
   81loPI   C3B 1295  17.615  18.079   7.446 -0.0468 -0.0445  0.1169
   81loPI   C4B 1296  17.744  18.103   7.035 -0.3075 -0.2622 -0.2216
   82loPI    C1 1297  13.071   5.058  10.249  0.0412  0.1194 -0.1545
   82loPI    C2 1298  13.193   5.256  10.575 -0.0541  0.0359 -0.0670
   82loPI    C3 1299  12.816   5.295  10.447  0.0103  0.1471 -0.2270
   82loPI   PO4 1300  13.263   5.199  10.031  0.0178  0.0981 -0.2098
   82loPI   GL1 1301  13.267   5.340   9.636 -0.0055  0.1684 -0.4440
   82loPI   GL2 1302  13.619   5.373   9.470  0.1298  0.0552 -0.2164
   82loPI   C1A 1303  13.066   5.456   9.325  0.1791  0.1654 -0.0471
   82loPI   C2A 1304  12.938   5.591   8.792 -0.1071  0.0592  0.1504
   82loPI   C3A 1305  12.959   5.770   8.365  0.0636  0.1847  0.0160
   82loPI   C4A 1306  13.186   6.169   8.280 -0.1400 -0.4790  0.2782
   82loPI   C5A 1307  13.241   6.444   8.058 -0.0626 -0.4176 -0.2732
   82loPI   C6A 1308  13.241   6.624   7.788  0.0062 -0.2311 -0.0300
   82loPI   C1B 1309  13.430   5.351   9.037 -0.2338  0.0219  0.3908
   82loPI   C2B 1310  13.358   5.348   8.592 -0.0876 -0.1175  0.2502
   82loPI   C3B 1311  13.271   5.425   8.117  0.5311 -0.0912 -0.0095
   82loPI   C4B 1312  13.061   5.364   7.737  0.2601 -0.3227 -0.0015
   83loPI    C1 1313   6.659   0.978  10.119 -0.3181 -0.0461 -0.0086
   83loPI    C2 1314   6.832   1.125  10.448 -0.0706  0.0417 -0.1748
   83loPI    C3 1315   6.651   0.768  10.460 -0.2091  0.1182  0.0965
   83loPI   PO4 1316   6.840   1.177   9.857  0.1004 -0.1142 -0.0494
   83loPI   GL1 1317   6.705   1.124   9.464 -0.2294  0.3497 -0.1422
   83loPI   GL2 1318   7.075   1.134   9.421  0.0688  0.0771 -0.0342
   83loPI   C1A 1319   6.808   1.021   9.047  0.2135  0.0346 -0.0934
   83loPI   C2A 1320   6.675   1.134   8.720  0.2074 -0.1887  0.0751
   83loPI   C3A 1321   6.739   1.072   8.301  0.0957  0.2008 -0.2435
   83loPI   C4A 1322   6.854   0.877   7.941  0.3060  0.2882  0.2637
   83loPI   C5A 1323   6.866   0.550   7.640 -0.0644 -0.4746  0.4141
   83loPI   C6A 1324   6.764   0.545   7.205  0.1092  0.2527  0.2583
   83loPI   C1B 1325   7.241   1.432   9.174  0.2906  0.0764  0.1451
   83loPI   C2B 1326   7.142   1.432   8.850  0.2305 -0.1939  0.0260
   83loPI   C3B 1327   7.163   1.143   8.536 -0.0784  0.1421  0.0418
   83loPI   C4B 1328   7.067   0.770   8.595 -0.1969  0.1720  0.1514
   84loPI    C1 1329  15.427  12.225  10.017  0.0085 -0.0169 -0.1011
   84loPI    C2 1330  15.211  11.971  10.239 -0.0341  0.1001 -0.0070
   84loPI    C3 1331  15.283  12.341  10.373 -0.1250  0.1980 -0.2227
   84loPI   PO4 1332  15.506  11.987   9.798 -0.0861 -0.0835 -0.0332
   84loPI   GL1 1333  15.466  11.877   9.252 -0.0368 -0.3119 -0.0275
   84loPI   GL2 1334  15.647  11.753   9.048  0.1869  0.0733 -0.1444
   84loPI   C1A 1335  15.447  12.112   8.791 -0.2500 -0.1475  0.1322
   84loPI   C2A 1336  15.516  12.335   8.450  0.0037  0.4372  0.3566
   84loPI   C3A 1337  15.372  12.725   8.446  0.2030 -0.3107 -0.0501
   84loPI   C4A 1338  15.317  13.158   8.074 -0.2439  0.1117  0.3461
   84loPI   C5A 1339  15.179  13.143   7.715  0.0032 -0.1189  0.3026
   84loPI   C6A 1340  15.174  13.077   7.285  0.0828  0.2866  0.0020
   84loPI   C1B 1341  15.567  11.439   8.694  0.1974 -0.4347 -0.0594
   84loPI   C2B 1342  15.609  11.213   8.257 -0.1190 -0.0750 -0.1317
   84loPI   C3B 1343  15.540  11.120   7.784 -0.2402 -0.0363 -0.2013
   84loPI   C4B 1344  15.444  11.172   7.331  0.1549 -0.0464 -0.0812
   85loPI    C1 1345   2.976   8.294  10.144  0.3393  0.1429  0.2690
   85loPI    C2 1346   2.796   8.529  10.413 -0.0104  0.2433 -0.0436
   85loPI    C3 1347   2.625   8.185  10.303  0.2665  0.0687  0.0605
   85loPI   PO4 1348   3.095   8.485   9.947 -0.0163  0.1024 -0.1883
   85loPI   GL1 1349   3.222   8.470   9.550 -0.4833 -0.3024  0.4218
   85loPI   GL2 1350   3.042   8.707   9.331 -0.2560  0.1625 -0.3140
   85loPI   C1A 1351   3.452   8.149   9.470 -0.0439  0.0946  0.1524
   85loPI   C2A 1352   3.483   8.092   9.046 -0.3980 -0.1131 -0.0641
   85loPI   C3A 1353   3.421   7.926   8.596  0.1566 -0.0892  0.1203
   85loPI   C4A 1354   3.516   7.426   8.443  0.0238 -0.1102 -0.0572
   85loPI   C5A 1355   3.520   7.217   7.999  0.3352  0.0551 -0.3188
   85loPI   C6A 1356   3.145   7.369   7.766 -0.0379  0.0704  0.0419
   85loPI   C1B 1357   3.166   8.501   8.917 -0.3569  0.1417 -0.2331
   85loPI   C2B 1358   3.462   8.456   8.594 -0.0424 -0.1145 -0.3136
   85loPI   C3B 1359   3.648   8.672   8.406  0.1029  0.0056 -0.0440
   85loPI   C4B 1360   3.811   8.630   8.022 -0.2598 -0.0603 -0.1590
   86loPI    C1 1361  13.164   1.703   9.512 -0.0525  0.0228 -0.2429
   86loPI    C2 1362  12.811   1.598   9.355 -0.1326 -0.0042 -0.0467
   86loPI    C3 1363  12.960   1.395   9.666  0.1135 -0.0691 -0.2049
   86loPI   PO4 1364  13.114   1.969   9.578  0.0580 -0.2695  0.0651
   86loPI   GL1 1365  13.105   2.305   9.278  0.1147 -0.1458 -0.3501
   86loPI   GL2 1366  12.768   2.228   9.334 -0.0882  0.2334  0.2530
   86loPI   C1A 1367  13.129   2.011   8.914 -0.0577  0.2694  0.3396
   86loPI   C2A 1368  13.035   2.143   8.478 -0.1875 -0.0858 -0.3395
   86loPI   C3A 1369  13.120   2.506   8.171  0.0521 -0.0111  0.0621
   86loPI   C4A 1370  12.971   2.597   7.847 -0.0748 -0.0430 -0.0983
   86loPI   C5A 1371  12.858   2.771   7.410  0.1833  0.0795  0.3132
   86loPI   C6A 1372  12.588   2.864   7.114  0.0558  0.1032 -0.0070
   86loPI   C1B 1373  12.773   2.475   8.932  0.0569  0.2251  0.0828
   86loPI   C2B 1374  12.856   2.654   8.584 -0.2006 -0.1449  0.1119
   86loPI   C3B 1375  12.630   2.795   8.216 -0.4738  0.0075  0.0907
   86loPI   C4B 1376  12.705   3.115   7.880  0.1406 -0.0116 -0.1054
   87loPI    C1 1377   0.678   0.902   9.693  0.2203  0.0058  0.1808
   87loPI    C2 1378   0.303   0.961   9.821  0.1338  0.0135 -0.0705
   87loPI    C3 1379   0.612   1.081  10.045 -0.0111 -0.0587  0.1721
   87loPI   PO4 1380   0.636   0.900   9.464 -0.0850  0.0438 -0.3431
   87loPI   GL1 1381   0.657   0.754   9.131 -0.2433 -0.3002 -0.2099
   87loPI   GL2 1382   0.351   0.868   9.053 -0.1273  0.2134  0.0703
   87loPI   C1A 1383   0.798   0.513   8.875  0.0422 -0.1137 -0.1482
   87loPI   C2A 1384   0.997   0.514   8.518 -0.1589  0.5380  0.1415
   87loPI   C3A 1385   1.167   0.489   8.057 -0.1677 -0.0171 -0.3323
   87loPI   C4A 1386   1.226   0.491   7.622 -0.0982 -0.1547  0.2182
   87loPI   C5A 1387   1.605   0.605   7.461 -0.3188 -0.2250 -0.4756
   87loPI   C6A 1388   2.074   0.620   7.545 -0.2772 -0.0812  0.0287
   87loPI   C1B 1389   0.401   0.843   8.585  0.2297  0.3024  0.0160
   87loPI   C2B 1390   0.324   0.808   8.160 -0.1171  0.4918  0.1912
   87loPI   C3B 1391   0.516   1.017   7.768  0.2174 -0.0989  0.2265
   87loPI   C4B 1392   0.496   0.992   7.293 -0.1949 -0.2102 -0.0574
   88loPI    C1 1393  12.475  10.965  10.131  0.1270  0.0664 -0.1581
   88loPI    C2 1394  12.703  10.647  10.216 -0.2060 -0.1542 -0.0722
   88loPI    C3 1395  12.785  11.003  10.381  0.0422 -0.2425 -0.0017
   88loPI   PO4 1396  12.312  10.866   9.995 -0.3019  0.2798  0.1447
   88loPI   GL1 1397  12.231  10.962   9.633 -0.1415 -0.0147  0.2760
   88loPI   GL2 1398  12.156  11.280   9.850  0.1063 -0.0744 -0.3685
   88loPI   C1A 1399  12.194  11.074   9.216 -0.0146  0.3064  0.2813
   88loPI   C2A 1400  12.029  11.169   8.815  0.1053  0.0261  0.2315
   88loPI   C3A 1401  11.885  11.260   8.337  0.1060  0.3797 -0.0452
   88loPI   C4A 1402  11.662  11.355   8.048 -0.2014  0.0961  0.0512
   88loPI   C5A 1403  11.427  11.729   7.793 -0.2702 -0.0121  0.3594
   88loPI   C6A 1404  11.353  12.113   7.662  0.0445  0.2478 -0.1929
   88loPI   C1B 1405  11.945  11.403   9.417 -0.3355 -0.2333 -0.1662
   88loPI   C2B 1406  12.109  11.709   9.109 -0.4618  0.0996  0.0157
   88loPI   C3B 1407  12.012  11.647   8.668 -0.0098  0.0785 -0.0155
   88loPI   C4B 1408  11.840  11.816   8.199 -0.2831  0.1809  0.0595
   89loPI    C1 1409   3.056  12.091   9.881  0.2424 -0.2905  0.1683
   89loPI    C2 1410   2.985  12.140  10.271 -0.1952 -0.0321  0.0626
   89loPI    C3 1411   2.806  11.843  10.072  0.0339 -0.1685  0.0569
   89loPI   PO4 1412   3.356  12.149   9.776 -0.2813  0.1699  0.0139
   89loPI   GL1 1413   3.448  12.005   9.438  0.0231  0.0007  0.1268
   89loPI   GL2 1414   3.769  11.942   9.337  0.1777  0.0998 -0.0159
   89loPI   C1A 1415   3.361  12.030   9.018 -0.0907  0.0469 -0.5687
   89loPI   C2A 1416   3.434  12.026   8.608 -0.0421 -0.0490 -0.1622
   89loPI   C3A 1417   3.565  11.948   8.220 -0.3564 -0.0955  0.0160
   89loPI   C4A 1418   3.682  11.839   7.760  0.1145  0.0727 -0.0241
   89loPI   C5A 1419   3.528  11.679   7.328  0.2526  0.1568 -0.0842
   89loPI   C6A 1420   3.278  11.623   7.072  0.1325  0.3432 -0.2608
   89loPI   C1B 1421   3.930  11.612   9.103 -0.1209  0.2234  0.0495
   89loPI   C2B 1422   3.998  11.378   8.856  0.0204 -0.1659  0.2247
   89loPI   C3B 1423   3.801  11.148   8.592  0.1275 -0.2336 -0.6199
   89loPI   C4B 1424   3.376  10.983   8.557 -0.1156  0.3123 -0.1073
   90loPI    C1 1425  13.654  18.077   9.725  0.0499 -0.1015 -0.1618
   90loPI    C2 1426  13.913  17.777   9.777  0.0679 -0.0955 -0.2165
   90loPI    C3 1427  14.043  18.134   9.654  0.0829  0.0097  0.0958
   90loPI   PO4 1428  13.442  17.901   9.510  0.0195  0.1242  0.0810
   90loPI   GL1 1429  13.262  17.812   9.068 -0.1620 -0.0835  0.0406
   90loPI   GL2 1430  13.059  17.485   9.002  0.0919  0.0706 -0.0018
   90loPI   C1A 1431  13.539  18.169   8.852  0.0918  0.0183 -0.0534
   90loPI   C2A 1432  13.599  18.257   8.430  0.2283 -0.0706  0.0376
   90loPI   C3A 1433  13.666  18.368   8.000  0.2047 -0.3186  0.2821
   90loPI   C4A 1434  13.718  18.348   7.550  0.1954 -0.3314 -0.1170
   90loPI   C5A 1435  13.663  18.386   7.069 -0.2492  0.0030  0.1824
   90loPI   C6A 1436  13.994  18.549   6.998  0.0083 -0.0476 -0.1050
   90loPI   C1B 1437  13.159  17.558   8.528 -0.2445  0.1108  0.0438
   90loPI   C2B 1438  13.192  17.545   8.066  0.0214  0.2229 -0.0303
   90loPI   C3B 1439  13.088  17.821   7.653  0.1658 -0.1180  0.0781
   90loPI   C4B 1440  12.812  17.980   7.312  0.4473  0.1982  0.0083
   91loPI    C1 1441  17.156   8.904   9.570 -0.1573  0.0624 -0.1994
   91loPI    C2 1442  17.167   9.232   9.797 -0.2233 -0.1474  0.1133
   91loPI    C3 1443  17.153   8.871   9.969 -0.4282 -0.3052 -0.2265
   91loPI   PO4 1444  17.397   8.935   9.320 -0.2032 -0.0734  0.1896
   91loPI   GL1 1445  17.317   8.747   9.062  0.0080 -0.2322  0.2541
   91loPI   GL2 1446  17.006   8.647   9.130 -0.1724 -0.3101 -0.0870
   91loPI   C1A 1447  17.509   8.651   8.689  0.0649  0.0881  0.3321
   91loPI   C2A 1448  17.923   8.508   8.441  0.2406  0.3617 -0.0982
   91loPI   C3A 1449  17.794   8.579   8.070  0.1300 -0.2357  0.3834
   91loPI   C4A 1450  17.646   8.623   7.537  0.1901 -0.4851 -0.0781
   91loPI   C5A 1451  17.497   8.682   7.158  0.0710 -0.1318 -0.0328
   91loPI   C6A 1452  17.261   8.380   6.842  0.0965 -0.0477  0.0462
   91loPI   C1B 1453  16.899   8.836   8.706 -0.3337 -0.3154 -0.0703
   91loPI   C2B 1454  16.777   8.709   8.252  0.1937  0.0113  0.0070
   91loPI   C3B 1455  16.710   8.563   7.802  0.0039 -0.1882 -0.2917
   91loPI   C4B 1456  16.675   8.873   7.482 -0.0962 -0.0991  0.1514
   92loPI    C1 1457  15.255  12.475   9.614  0.2651 -0.0708 -0.1497
   92loPI    C2 1458  15.088  12.837   9.652  0.0028 -0.1882 -0.1600
   92loPI    C3 1459  15.045  12.566   9.943  0.3079 -0.1697 -0.0946
   92loPI   PO4 1460  15.201  12.337   9.371  0.0198 -0.0971 -0.0202
   92loPI   GL1 1461  15.004  12.358   9.033 -0.2105 -0.0283 -0.0275
   92loPI   GL2 1462  14.675  12.219   9.075  0.1135  0.1142 -0.1212
   92loPI   C1A 1463  15.017  12.290   8.550  0.0969  0.1912 -0.1100
   92loPI   C2A 1464  15.037  12.554   8.141  0.0414 -0.1624  0.0502
   92loPI   C3A 1465  14.823  12.786   7.714 -0.1288 -0.1124 -0.2272
   92loPI   C4A 1466  14.804  12.741   7.467 -0.0268  0.0302  0.0852
   92loPI   C5A 1467  14.606  13.071   7.211 -0.2315 -0.1497 -0.0330
   92loPI   C6A 1468  14.794  13.369   6.961 -0.2144  0.0679 -0.2112
   92loPI   C1B 1469  14.662  11.956   8.716  0.0352 -0.0600  0.0974
   92loPI   C2B 1470  14.671  12.027   8.266 -0.1405  0.3283 -0.5097
   92loPI   C3B 1471  14.672  12.263   7.908 -0.1055  0.0657 -0.4298
   92loPI   C4B 1472  14.417  12.431   7.632  0.2025 -0.1689 -0.0624
   93loPI    C1 1473   1.312   8.764   9.393  0.0902  0.0342 -0.0527
   93loPI    C2 1474   1.675   8.746   9.227 -0.0096 -0.3077 -0.2423
   93loPI    C3 1475   1.582   8.504   9.532 -0.0288 -0.1104 -0.0896
   93loPI   PO4 1476   1.166   8.751   9.257 -0.3535 -0.0061  0.2782
   93loPI   GL1 1477   1.265   8.752   8.923  0.0290  0.0918 -0.4160
   93loPI   GL2 1478   1.198   8.449   8.777  0.1346  0.0330 -0.1836
   93loPI   C1A 1479   1.510   8.807   8.588 -0.0608  0.2940  0.1804
   93loPI   C2A 1480   1.594   8.807   8.165 -0.0148  0.0003  0.3108
   93loPI   C3A 1481   1.434   8.821   7.792 -0.1298  0.2358  0.2485
   93loPI   C4A 1482   1.407   8.639   7.429 -0.0832  0.0546 -0.2310
   93loPI   C5A 1483   1.709   8.485   7.035  0.1385  0.1253 -0.2390
   93loPI   C6A 1484   1.746   8.298   6.700  0.2153  0.2260 -0.0152
   93loPI   C1B 1485   1.252   8.479   8.311  0.0316  0.0791 -0.3079
   93loPI   C2B 1486   1.607   8.407   7.880  0.1111 -0.2236 -0.0143
   93loPI   C3B 1487   2.007   8.379   7.782 -0.0737 -0.3815  0.3299
   93loPI   C4B 1488   2.320   8.213   7.556 -0.1456 -0.2542  0.1383
   94loPI    C1 1489   6.208  12.900   9.572 -0.1108 -0.0836 -0.0959
   94loPI    C2 1490   6.214  13.276   9.434  0.0508 -0.0217  0.0770
   94loPI    C3 1491   6.163  13.206   9.825  0.2230 -0.1714  0.0740
   94loPI   PO4 1492   6.465  12.812   9.408 -0.2377  0.0490 -0.2565
   94loPI   GL1 1493   6.496  12.897   8.986 -0.0002 -0.0408 -0.2304
   94loPI   GL2 1494   6.091  12.801   9.057  0.1312 -0.0918  0.1745
   94loPI   C1A 1495   6.944  12.846   8.880  0.1240 -0.3064 -0.3829
   94loPI   C2A 1496   7.342  13.135   8.930  0.1060 -0.1670  0.1457
   94loPI   C3A 1497   7.411  13.549   8.743 -0.1248 -0.1441  0.3540
   94loPI   C4A 1498   7.155  13.920   8.531 -0.0908  0.1894  0.0717
   94loPI   C5A 1499   7.233  14.200   8.124  0.2317  0.0237  0.0398
   94loPI   C6A 1500   7.306  13.999   7.785 -0.1734 -0.4703  0.1161
   94loPI   C1B 1501   6.153  12.605   8.678  0.0436  0.0543  0.3044
   94loPI   C2B 1502   6.252  12.307   8.423  0.1122  0.1258  0.3351
   94loPI   C3B 1503   5.800  12.245   8.374 -0.0267  0.2645  0.2271
   94loPI   C4B 1504   5.450  12.452   8.092  0.0665  0.0232 -0.0616
   95loPI    C1 1505   4.092  17.757  10.129 -0.0987  0.0816 -0.0881
   95loPI    C2 1506   4.354  17.902  10.394 -0.2752 -0.0018  0.1359
   95loPI    C3 1507   3.972  18.018  10.407 -0.2613  0.0869 -0.1616
   95loPI   PO4 1508   4.212  17.736   9.876  0.0762 -0.1721  0.1118
   95loPI   GL1 1509   4.258  17.709   9.521  0.0658 -0.0474 -0.1858
   95loPI   GL2 1510   4.301  17.390   9.486 -0.1395  0.1090  0.1809
   95loPI   C1A 1511   4.148  18.087   9.259  0.1660 -0.5561 -0.0478
   95loPI   C2A 1512   4.222  18.274   8.818  0.2545  0.3099  0.0416
   95loPI   C3A 1513   4.371  18.296   8.406 -0.2691  0.0958 -0.2650
   95loPI   C4A 1514   4.160  18.171   8.080 -0.0881 -0.1611 -0.1844
   95loPI   C5A 1515   4.131  18.211   7.616 -0.0361 -0.1516 -0.0142
   95loPI   C6A 1516   3.834  18.142   7.303 -0.1725  0.2090 -0.1227
   95loPI   C1B 1517   4.319  17.581   9.089 -0.0200  0.0843  0.0929
   95loPI   C2B 1518   4.345  17.641   8.676 -0.1709  0.4905 -0.2229
   95loPI   C3B 1519   4.304  17.738   8.212 -0.2647  0.0340 -0.2448
   95loPI   C4B 1520   4.387  17.834   7.834 -0.1012  0.1596 -0.0536
   96loPI    C1 1521   5.936   1.419  10.188 -0.0847 -0.3430  0.2081
   96loPI    C2 1522   6.286   1.293  10.334  0.0998  0.2292  0.2852
   96loPI    C3 1523   5.993   1.402  10.584 -0.1335 -0.2227  0.2207
   96loPI   PO4 1524   5.995   1.625   9.992  0.2478 -0.0047 -0.1853
   96loPI   GL1 1525   6.048   1.741   9.532  0.2126  0.0372  0.1057
   96loPI   GL2 1526   6.348   1.639   9.472  0.2893  0.1100  0.2130
   96loPI   C1A 1527   5.799   2.006   9.144  0.1250  0.2846 -0.0245
   96loPI   C2A 1528   5.765   2.186   8.728 -0.5755  0.1467  0.1307
   96loPI   C3A 1529   5.693   2.175   8.342 -0.1198 -0.4283 -0.1678
   96loPI   C4A 1530   5.660   2.467   8.062  0.0219 -0.0141 -0.2438
   96loPI   C5A 1531   5.463   2.887   7.978  0.0278 -0.0831  0.1780
   96loPI   C6A 1532   5.289   3.313   7.938  0.0549  0.0041 -0.0935
   96loPI   C1B 1533   6.199   1.487   9.035 -0.1096 -0.1509 -0.1715
   96loPI   C2B 1534   6.033   1.718   8.803  0.1117  0.1621 -0.0953
   96loPI   C3B 1535   6.012   1.757   8.365  0.1735  0.1684 -0.3306
   96loPI   C4B 1536   5.891   1.841   8.088 -0.0435 -0.4152 -0.0599
   97loPI    C1 1537   1.409  16.633   9.790  0.1075  0.1857  0.1319
   97loPI    C2 1538   1.190  16.318   9.903  0.1302  0.0169 -0.2764
   97loPI    C3 1539   1.315  16.583  10.176 -0.0428 -0.2268  0.0470
   97loPI   PO4 1540   1.464  16.575   9.532 -0.0210  0.2456 -0.1699
   97loPI   GL1 1541   1.373  16.623   9.120  0.0910  0.0308 -0.1643
   97loPI   GL2 1542   1.748  16.649   9.007  0.4957  0.1096  0.0687
   97loPI   C1A 1543   1.272  16.439   8.800  0.0967 -0.0719 -0.2421
   97loPI   C2A 1544   1.272  16.428   8.409 -0.3133  0.1261 -0.0603
   97loPI   C3A 1545   1.275  16.384   7.937  0.1796  0.0599 -0.0904
   97loPI   C4A 1546   1.378  16.543   7.458  0.0105  0.1599  0.1463
   97loPI   C5A 1547   1.471  16.828   7.150 -0.2214  0.0216  0.0618
   97loPI   C6A 1548   1.836  16.900   6.769  0.2733 -0.4213 -0.1031
   97loPI   C1B 1549   1.776  16.429   8.660 -0.2703  0.0583 -0.1867
   97loPI   C2B 1550   1.742  16.432   8.248 -0.0763 -0.0668 -0.1521
   97loPI   C3B 1551   1.767  16.330   7.844  0.1070 -0.0583  0.2175
   97loPI   C4B 1552   1.854  16.427   7.406 -0.0293 -0.0908  0.1590
   98loPI    C1 1553  13.741  11.332   9.937 -0.0977  0.0514 -0.0421
   98loPI    C2 1554  13.616  11.684  10.079  0.1924  0.0559  0.2115
   98loPI    C3 1555  13.624  11.364  10.318 -0.0642 -0.1252 -0.0162
   98loPI   PO4 1556  13.733  11.329   9.585  0.2481  0.1885 -0.1219
   98loPI   GL1 1557  13.811  11.296   9.122  0.1741 -0.0737  0.4138
   98loPI   GL2 1558  14.038  11.046   9.282 -0.0646  0.3982  0.1296
   98loPI   C1A 1559  13.855  11.317   8.643 -0.1254  0.1868 -0.7027
   98loPI   C2A 1560  13.815  11.343   8.262 -0.2159  0.0394 -0.0970
   98loPI   C3A 1561  13.738  11.189   7.948 -0.1296 -0.0121 -0.0410
   98loPI   C4A 1562  13.694  10.956   7.684  0.4736  0.2078 -0.1929
   98loPI   C5A 1563  13.837  10.793   7.222 -0.2101  0.0685 -0.1453
   98loPI   C6A 1564  14.032  10.612   6.789 -0.0133  0.0522 -0.5000
   98loPI   C1B 1565  13.890  10.858   8.897 -0.0560 -0.2298  0.1789
   98loPI   C2B 1566  13.932  10.832   8.398  0.0549 -0.1194 -0.3186
   98loPI   C3B 1567  13.833  10.574   8.030  0.0362  0.2376 -0.1692
   98loPI   C4B 1568  13.760  10.405   7.543 -0.1407 -0.0722 -0.0619
   99loPI    C1 1569   5.068   5.372  10.259  0.3233 -0.0108 -0.0947
   99loPI    C2 1570   5.216   5.359  10.630  0.4057 -0.1458 -0.1316
   99loPI    C3 1571   5.035   5.037  10.475  0.2016 -0.0287 -0.1400
   99loPI   PO4 1572   4.984   5.631  10.165  0.0377  0.1477 -0.2135
   99loPI   GL1 1573   4.822   5.738   9.752  0.0290  0.1596 -0.1516
   99loPI   GL2 1574   5.200   5.801   9.758 -0.1642  0.0480  0.2682
   99loPI   C1A 1575   4.907   5.669   9.381 -0.3878  0.0197  0.0157
   99loPI   C2A 1576   4.791   5.557   8.945  0.0794  0.0940  0.1443
   99loPI   C3A 1577   4.828   5.413   8.554 -0.1852 -0.0173 -0.3266
   99loPI   C4A 1578   4.543   5.163   8.143 -0.1646 -0.1999  0.0681
   99loPI   C5A 1579   4.551   5.034   7.707 -0.0549  0.2631  0.1870
   99loPI   C6A 1580   4.679   4.680   7.516  0.0369 -0.2353  0.3450
   99loPI   C1B 1581   5.437   5.945   9.347  0.0749  0.3687  0.1148
   99loPI   C2B 1582   5.358   6.023   8.907  0.3465  0.3367  0.0756
   99loPI   C3B 1583   5.295   5.827   8.434  0.0527 -0.2880 -0.0880
   99loPI   C4B 1584   4.979   5.590   8.077 -0.2349 -0.1341 -0.1384
  100loPI    C1 1585   4.736  15.241   9.938 -0.0447 -0.0461  0.0401
  100loPI    C2 1586   4.547  15.589   9.991  0.1756  0.0437  0.2588
  100loPI    C3 1587   4.530  15.307  10.274  0.1485 -0.0532  0.1614
  100loPI   PO4 1588   4.993  15.233   9.748 -0.0652  0.1388  0.4338
  100loPI   GL1 1589   5.098  15.230   9.355 -0.0879 -0.1918  0.3321
  100loPI   GL2 1590   5.298  15.110   9.161  0.0573  0.4862  0.3142
  100loPI   C1A 1591   5.295  15.558   9.249  0.0740  0.1332  0.4660
  100loPI   C2A 1592   5.376  15.714   8.907 -0.2218  0.0278 -0.2310
  100loPI   C3A 1593   5.488  15.662   8.494  0.0547  0.1608 -0.1833
  100loPI   C4A 1594   5.621  15.698   8.114  0.1437  0.0752  0.0753
  100loPI   C5A 1595   5.696  15.573   7.653 -0.2203  0.0650  0.1547
  100loPI   C6A 1596   5.560  15.492   7.226 -0.0076 -0.1084 -0.0125
  100loPI   C1B 1597   5.581  15.291   8.829 -0.0472  0.1822 -0.1011
  100loPI   C2B 1598   5.701  15.192   8.462 -0.1075 -0.3389  0.1823
  100loPI   C3B 1599   6.127  14.982   8.286 -0.1030 -0.1095  0.0146
  100loPI   C4B 1600   6.283  14.591   8.234  0.1408  0.0689  0.1650
  101loPI    C1 1601  12.827  11.336  10.003 -0.0687 -0.2217 -0.0369
  101loPI    C2 1602  13.051  11.657   9.922 -0.0799 -0.1757  0.1110
  101loPI    C3 1603  13.107  11.456  10.263 -0.3659 -0.0719  0.2222
  101loPI   PO4 1604  12.682  11.323   9.802  0.1850  0.2161 -0.1105
  101loPI   GL1 1605  12.707  11.143   9.340 -0.1814 -0.1348 -0.0922
  101loPI   GL2 1606  12.520  11.420   9.320  0.1167 -0.2895  0.2163
  101loPI   C1A 1607  12.679  10.934   8.908 -0.0527 -0.0003  0.1024
  101loPI   C2A 1608  12.556  10.900   8.539 -0.2670 -0.1730 -0.0101
  101loPI   C3A 1609  12.507  10.523   8.298  0.0701  0.0991 -0.0303
  101loPI   C4A 1610  12.282  10.459   7.972  0.2617 -0.3299 -0.0044
  101loPI   C5A 1611  12.255  10.318   7.428 -0.0258  0.0162 -0.2516
  101loPI   C6A 1612  12.210  10.523   7.091 -0.1075 -0.0113  0.0787
  101loPI   C1B 1613  12.500  11.435   8.809  0.2121  0.0789 -0.1915
  101loPI   C2B 1614  12.403  11.415   8.386  0.2113 -0.5810 -0.1809
  101loPI   C3B 1615  12.187  11.388   7.954 -0.1129 -0.2526 -0.1875
  101loPI   C4B 1616  12.305  11.365   7.627  0.1336  0.0803  0.1840
  102loPI    C1 1617  17.511   8.605   9.820  0.1417 -0.0240  0.2366
  102loPI    C2 1618  17.649   8.972   9.739 -0.3736  0.1539  0.1283
  102loPI    C3 1619  17.654   8.835  10.115  0.1917  0.1060  0.1121
  102loPI   PO4 1620  17.600   8.434   9.715  0.1265 -0.3595 -0.0821
  102loPI   GL1 1621  17.606   8.411   9.245 -0.0806  0.2646  0.1231
  102loPI   GL2 1622  17.356   8.254   9.123  0.2355  0.0180  0.1729
  102loPI   C1A 1623  17.706   7.869   9.076  0.1498 -0.1601 -0.0356
  102loPI   C2A 1624  17.807   7.900   8.602  0.2017  0.2700 -0.0017
  102loPI   C3A 1625  17.812   8.056   8.186 -0.2328  0.1267  0.2198
  102loPI   C4A 1626  17.811   8.000   7.752  0.1042 -0.0647  0.2121
  102loPI   C5A 1627  17.782   7.834   7.409 -0.2868 -0.3138  0.1182
  102loPI   C6A 1628  17.656   7.480   7.136  0.1116  0.1378  0.0197
  102loPI   C1B 1629  17.331   8.205   8.577  0.2317  0.2132 -0.0006
  102loPI   C2B 1630  17.221   8.496   8.300  0.2429 -0.2749 -0.3433
  102loPI   C3B 1631  17.281   8.514   7.888  0.3925 -0.0824  0.3728
  102loPI   C4B 1632  17.129   8.612   7.482  0.0107  0.0870  0.1785
  103loPI    C1 1633   8.060   5.755  10.805  0.0646  0.1877  0.0408
  103loPI    C2 1634   7.753   5.794  11.059  0.1155  0.3027  0.0854
  103loPI    C3 1635   8.028   5.510  11.120 -0.1403  0.0034 -0.1199
  103loPI   PO4 1636   8.093   5.938  10.713 -0.0595 -0.0416 -0.0135
  103loPI   GL1 1637   8.122   5.950  10.299  0.1891 -0.4757  0.0352
  103loPI   GL2 1638   7.885   5.855  10.106  0.0586 -0.4164  0.1012
  103loPI   C1A 1639   8.140   6.325  10.049 -0.2668 -0.1583  0.4885
  103loPI   C2A 1640   8.123   6.429   9.609  0.2966  0.1443  0.2639
  103loPI   C3A 1641   7.975   6.476   9.155  0.1083 -0.3254 -0.1027
  103loPI   C4A 1642   7.636   6.504   8.732  0.1198 -0.2257 -0.0742
  103loPI   C5A 1643   7.322   6.272   8.433 -0.3279  0.0762 -0.0316
  103loPI   C6A 1644   7.161   6.282   8.034  0.1018  0.1108 -0.1707
  103loPI   C1B 1645   7.962   5.951   9.716 -0.0558  0.0626 -0.0063
  103loPI   C2B 1646   8.004   6.021   9.311  0.2355 -0.0943  0.0141
  103loPI   C3B 1647   7.993   6.091   8.872 -0.0545 -0.1139 -0.1194
  103loPI   C4B 1648   7.941   6.165   8.459 -0.1130 -0.0459 -0.1857
  104loPI    C1 1649   6.171  16.081  10.185  0.1040 -0.1074 -0.0831
  104loPI    C2 1650   5.798  16.149  10.058  0.1114 -0.0621 -0.0806
  104loPI    C3 1651   5.859  15.979  10.415  0.0940 -0.0171 -0.0559
  104loPI   PO4 1652   6.299  16.112   9.853  0.1675  0.2153  0.0775
  104loPI   GL1 1653   6.411  16.215   9.393 -0.1181  0.0438 -0.0747
  104loPI   GL2 1654   6.194  16.483   9.520  0.0310  0.2259  0.3587
  104loPI   C1A 1655   6.489  16.236   8.919  0.3902  0.1986  0.0571
  104loPI   C2A 1656   6.773  16.342   8.623  0.2724  0.4513  0.4081
  104loPI   C3A 1657   6.775  16.574   8.313  0.0190 -0.0042  0.0477
  104loPI   C4A 1658   6.561  16.665   7.924  0.2474  0.1407 -0.1229
  104loPI   C5A 1659   6.688  16.361   7.536  0.0483 -0.0964 -0.1563
  104loPI   C6A 1660   7.113  16.136   7.492  0.1990  0.3567  0.0222
  104loPI   C1B 1661   6.413  16.667   9.066  0.2918  0.2800  0.0013
  104loPI   C2B 1662   6.211  16.732   8.774 -0.2816  0.0838 -0.2594
  104loPI   C3B 1663   6.252  16.652   8.369 -0.0431  0.0816 -0.0515
  104loPI   C4B 1664   6.051  16.644   7.999 -0.0476 -0.0878 -0.1668
  105loPI    C1 1665  15.794  14.699   9.368  0.0792 -0.0646 -0.3102
  105loPI    C2 1666  16.108  14.822   9.582 -0.1911 -0.0703  0.1026
  105loPI    C3 1667  15.749  14.988   9.641 -0.3124 -0.2128 -0.2104
  105loPI   PO4 1668  15.846  14.704   9.148 -0.0288  0.0706 -0.2785
  105loPI   GL1 1669  16.045  14.498   8.875  0.1868  0.0397  0.0399
  105loPI   GL2 1670  15.818  14.553   8.647 -0.1852  0.3388  0.0058
  105loPI   C1A 1671  16.259  14.306   8.412  0.0652  0.0130  0.0232
  105loPI   C2A 1672  16.640  14.172   8.111 -0.0664  0.0217  0.3266
  105loPI   C3A 1673  16.871  14.088   7.658  0.0594 -0.0737 -0.1881
  105loPI   C4A 1674  17.216  14.178   7.219  0.1449  0.1855  0.0306
  105loPI   C5A 1675  17.419  14.329   6.861 -0.3458 -0.3017  0.1181
  105loPI   C6A 1676  17.802  14.179   6.792  0.0348  0.3544  0.0323
  105loPI   C1B 1677  16.013  14.694   8.316  0.1861  0.0555 -0.0514
  105loPI   C2B 1678  16.156  14.616   7.883  0.0741 -0.3999 -0.1734
  105loPI   C3B 1679  16.332  14.430   7.616 -0.1862 -0.1936  0.0887
  105loPI   C4B 1680  16.442  14.030   7.435  0.1045 -0.2248  0.4081
  106loPI    C1 1681  16.282   5.636  10.707  0.2401  0.1017  0.1180
  106loPI    C2 1682  16.066   5.504  11.017  0.2152  0.0569  0.0817
  106loPI    C3 1683  16.166   5.891  10.992 -0.0910  0.1308 -0.0385
  106loPI   PO4 1684  16.158   5.575  10.479 -0.1018  0.0243  0.1685
  106loPI   GL1 1685  16.204   5.802  10.079 -0.2236 -0.4788 -0.4417
  106loPI   GL2 1686  16.035   5.638   9.992 -0.2288 -0.4189  0.0272
  106loPI   C1A 1687  16.424   6.074   9.778  0.4443  0.1454  0.0112
  106loPI   C2A 1688  16.181   6.130   9.293  0.0826  0.0519  0.0469
  106loPI   C3A 1689  16.104   5.919   8.843 -0.0503 -0.1154 -0.0021
  106loPI   C4A 1690  16.371   6.157   8.621  0.1031 -0.2367  0.1223
  106loPI   C5A 1691  16.661   6.191   8.252 -0.3399 -0.1803 -0.2077
  106loPI   C6A 1692  16.984   6.340   8.037 -0.0916 -0.1653  0.0503
  106loPI   C1B 1693  15.744   5.676   9.719  0.0034  0.0572  0.3020
  106loPI   C2B 1694  15.375   5.712   9.472 -0.0482 -0.1028  0.0335
  106loPI   C3B 1695  15.450   5.434   9.117 -0.1933 -0.3749  0.1405
  106loPI   C4B 1696  15.323   5.343   8.703 -0.0563 -0.2145 -0.0545
  107loPI    C1 1697   3.257  11.646   9.725 -0.0070  0.0963  0.0469
  107loPI    C2 1698   3.248  11.359  10.004  0.1147  0.1372  0.0935
  107loPI    C3 1699   3.299  11.741  10.111 -0.0369  0.1760  0.0307
  107loPI   PO4 1700   3.046  11.600   9.573 -0.1801  0.0306 -0.1245
  107loPI   GL1 1701   2.980  11.472   9.131  0.1250  0.2102  0.1305
  107loPI   GL2 1702   3.347  11.375   9.226  0.0247  0.1720  0.0995
  107loPI   C1A 1703   2.963  11.259   8.672 -0.0294  0.1304  0.3199
  107loPI   C2A 1704   3.034  11.353   8.256 -0.0230  0.1188  0.0595
  107loPI   C3A 1705   3.071  11.424   7.863  0.1022  0.0294  0.3252
  107loPI   C4A 1706   3.459  11.335   7.691  0.0870 -0.1517 -0.2626
  107loPI   C5A 1707   3.849  11.336   7.595  0.1347  0.1949 -0.4534
  107loPI   C6A 1708   4.205  11.109   7.426  0.0396 -0.1554 -0.1993
  107loPI   C1B 1709   3.411  11.585   8.837  0.1224 -0.3120 -0.3806
  107loPI   C2B 1710   3.403  11.542   8.469 -0.1403  0.0584  0.1754
  107loPI   C3B 1711   3.504  11.325   8.187 -0.0103  0.0298 -0.2449
  107loPI   C4B 1712   3.453  10.896   7.993 -0.1894 -0.0927  0.1301
  108loPI    C1 1713  15.842   2.234   9.561  0.1244 -0.1445  0.0133
  108loPI    C2 1714  15.965   2.200   9.939  0.0388 -0.1317  0.0427
  108loPI    C3 1715  15.621   2.031   9.826 -0.1859  0.2806  0.0909
  108loPI   PO4 1716  15.972   2.147   9.382  0.1693 -0.2574 -0.1585
  108loPI   GL1 1717  16.101   2.149   8.940 -0.1034 -0.3219  0.5441
  108loPI   GL2 1718  16.293   2.284   8.886 -0.1326 -0.0302 -0.0706
  108loPI   C1A 1719  15.784   2.183   8.642  0.0330  0.2441  0.1437
  108loPI   C2A 1720  15.928   2.264   8.200 -0.1341  0.3006  0.0570
  108loPI   C3A 1721  15.952   2.493   7.847 -0.1704  0.1749  0.2178
  108loPI   C4A 1722  16.197   2.818   7.653 -0.0564  0.1223 -0.0638
  108loPI   C5A 1723  16.603   3.093   7.475 -0.1843 -0.1495 -0.2506
  108loPI   C6A 1724  16.679   3.418   7.161  0.0377  0.0951  0.3035
  108loPI   C1B 1725  16.303   2.494   8.418  0.0434  0.3872  0.0089
  108loPI   C2B 1726  16.327   2.694   8.157  0.0413 -0.1734  0.2295
  108loPI   C3B 1727  16.676   2.825   7.914 -0.0579 -0.2093  0.1116
  108loPI   C4B 1728  16.959   3.176   7.807 -0.1458  0.1684 -0.1299
  109loPI    C1 1729   0.026   7.674   9.848 -0.0477 -0.2965 -0.0809
  109loPI    C2 1730   0.364   7.557  10.026 -0.1112 -0.0790  0.1901
  109loPI    C3 1731   0.047   7.661  10.247 -0.2703 -0.0297 -0.0568
  109loPI   PO4 1732   0.030   7.472   9.673 -0.3422  0.5969  0.0527
  109loPI   GL1 1733  -0.115   7.413   9.277 -0.1114  0.1710 -0.4021
  109loPI   GL2 1734  -0.428   7.502   9.102 -0.1895 -0.0196 -0.2023
  109loPI   C1A 1735   0.218   7.329   9.020 -0.0735 -0.1133  0.0143
  109loPI   C2A 1736   0.198   7.160   8.559  0.1174 -0.1235  0.1951
  109loPI   C3A 1737   0.163   7.124   8.191  0.2063  0.1281 -0.0478
  109loPI   C4A 1738   0.117   7.046   7.717 -0.1672  0.0120 -0.1815
  109loPI   C5A 1739   0.269   6.874   7.339 -0.2243  0.2776  0.1415
  109loPI   C6A 1740  -0.098   6.820   7.059 -0.0249  0.1505  0.0016
  109loPI   C1B 1741  -0.282   7.295   8.689  0.1565  0.2432 -0.1272
  109loPI   C2B 1742  -0.312   7.053   8.405 -0.1462  0.0031 -0.0629
  109loPI   C3B 1743  -0.315   7.038   7.967 -0.1018  0.2931 -0.1313
  109loPI   C4B 1744  -0.403   6.919   7.546  0.0890 -0.0218 -0.1075
  110loPI    C1 1745  14.003  12.558   9.669  0.1153  0.0776 -0.1361
  110loPI    C2 1746  14.231  12.232   9.624 -0.1280 -0.1552  0.2586
  110loPI    C3 1747  14.296  12.481   9.931 -0.0288  0.1009  0.0339
  110loPI   PO4 1748  13.887  12.625   9.451  0.1809  0.1732 -0.1066
  110loPI   GL1 1749  13.890  12.701   8.960 -0.2872 -0.0082  0.0359
  110loPI   GL2 1750  13.860  12.950   8.932  0.4263 -0.1332  0.0458
  110loPI   C1A 1751  13.932  12.655   8.479 -0.0035 -0.1985  0.3558
  110loPI   C2A 1752  13.912  12.554   8.024  0.1764  0.3205  0.1437
  110loPI   C3A 1753  13.823  12.534   7.478  0.0782  0.0296 -0.3071
  110loPI   C4A 1754  14.018  12.270   7.162  0.0065  0.2572 -0.1048
  110loPI   C5A 1755  13.835  11.964   6.806 -0.3925 -0.0685  0.1135
  110loPI   C6A 1756  13.856  11.883   6.382  0.0365 -0.0597  0.0812
  110loPI   C1B 1757  13.498  12.826   8.710  0.0143 -0.1478 -0.2208
  110loPI   C2B 1758  13.518  12.871   8.258  0.0421  0.1214  0.1350
  110loPI   C3B 1759  13.488  12.661   7.811 -0.0369  0.2510 -0.4436
  110loPI   C4B 1760  13.311  12.362   7.570 -0.3740 -0.2497  0.2686
  111loPI    C1 1761   4.865   3.656  10.562  0.1479  0.0043 -0.0695
  111loPI    C2 1762   4.556   3.754  10.796  0.0190 -0.1554 -0.1703
  111loPI    C3 1763   4.907   3.656  10.960  0.0755  0.2121 -0.0605
  111loPI   PO4 1764   4.887   3.774  10.415 -0.2843 -0.0422  0.1838
  111loPI   GL1 1765   4.617   3.933  10.124 -0.1895 -0.0023 -0.1285
  111loPI   GL2 1766   4.444   3.946   9.801  0.0817 -0.2474 -0.1989
  111loPI   C1A 1767   4.937   4.079   9.737 -0.0962 -0.0861  0.0811
  111loPI   C2A 1768   5.126   4.233   9.298  0.0534  0.0097 -0.2728
  111loPI   C3A 1769   5.292   4.290   8.864  0.1939  0.2243 -0.0859
  111loPI   C4A 1770   5.483   4.301   8.524  0.0810  0.0157  0.1103
  111loPI   C5A 1771   5.704   4.279   8.103  0.4627 -0.0383 -0.0006
  111loPI   C6A 1772   6.121   4.332   7.946  0.0649 -0.1258 -0.0303
  111loPI   C1B 1773   4.401   3.676   9.446 -0.1411  0.0067 -0.0626
  111loPI   C2B 1774   4.353   3.411   8.973  0.0418  0.3085  0.0383
  111loPI   C3B 1775   4.552   3.296   8.628 -0.2763  0.1037  0.3563
  111loPI   C4B 1776   4.516   3.345   8.257 -0.2381 -0.0093 -0.2059
  112loPI    C1 1777  11.006  13.743  10.039  0.0036  0.0368 -0.0592
  112loPI    C2 1778  11.217  13.967  10.295  0.2994 -0.1807 -0.1072
  112loPI    C3 1779  10.864  13.814  10.406  0.0399  0.3905 -0.1097
  112loPI   PO4 1780  11.093  13.939   9.804 -0.0105  0.1509 -0.3648
  112loPI   GL1 1781  11.095  14.193   9.455  0.2903  0.1699  0.0467
  112loPI   GL2 1782  11.111  14.540   9.284  0.1267 -0.5374 -0.2326
  112loPI   C1A 1783  10.878  14.145   8.999 -0.0870 -0.2011 -0.0424
  112loPI   C2A 1784  10.893  14.210   8.588 -0.4837  0.0602 -0.0830
  112loPI   C3A 1785  10.849  14.209   8.236  0.1534 -0.1251  0.0384
  112loPI   C4A 1786  10.921  13.990   7.797 -0.0427  0.1146  0.1688
  112loPI   C5A 1787  11.150  13.832   7.363  0.7374 -0.2871  0.0841
  112loPI   C6A 1788  11.092  13.487   7.047  0.1125 -0.2073  0.0777
  112loPI   C1B 1789  10.899  14.633   8.916 -0.1528  0.1560 -0.0268
  112loPI   C2B 1790  10.900  14.693   8.473 -0.0962  0.2628 -0.0507
  112loPI   C3B 1791  10.956  14.683   8.090  0.0730 -0.1741  0.0300
  112loPI   C4B 1792  10.980  14.688   7.694  0.1793  0.1063  0.2363
  113loPI    C1 1793   1.016   4.867   9.970  0.0644 -0.1450 -0.0635
  113loPI    C2 1794   0.796   4.549   9.869  0.0588 -0.0745 -0.2782
  113loPI    C3 1795   0.742   4.725  10.224 -0.0360 -0.2266 -0.2162
  113loPI   PO4 1796   1.068   5.012   9.796  0.1296 -0.0239  0.0053
  113loPI   GL1 1797   1.093   4.803   9.428  0.3583 -0.1201 -0.1893
  113loPI   GL2 1798   0.701   4.729   9.448  0.0208 -0.0215  0.3068
  113loPI   C1A 1799   1.129   4.735   8.979 -0.1766 -0.0549 -0.0380
  113loPI   C2A 1800   1.262   4.637   8.565 -0.1404 -0.1751 -0.1217
  113loPI   C3A 1801   1.404   4.536   8.139 -0.1702 -0.0207 -0.1864
  113loPI   C4A 1802   1.489   4.472   7.812 -0.0216 -0.0066  0.0770
  113loPI   C5A 1803   1.487   4.682   7.421 -0.2789 -0.0827  0.0745
  113loPI   C6A 1804   1.212   4.802   7.137  0.0314  0.0037 -0.0238
  113loPI   C1B 1805   0.660   4.501   9.065 -0.2123  0.1490  0.2713
  113loPI   C2B 1806   0.751   4.609   8.563  0.0032  0.0643  0.0306
  113loPI   C3B 1807   0.983   4.738   8.209  0.4490  0.0033  0.0484
  113loPI   C4B 1808   1.053   4.842   7.717  0.0652 -0.1388  0.0289
  114loPI    C1 1809  15.823   7.947  10.005  0.1712 -0.0139 -0.1581
  114loPI    C2 1810  16.050   7.618   9.991 -0.1252 -0.2483  0.2881
  114loPI    C3 1811  15.961   7.785  10.343 -0.1871  0.1683  0.0825
  114loPI   PO4 1812  15.819   8.019   9.779  0.2335  0.0158 -0.2400
  114loPI   GL1 1813  15.921   8.076   9.350  0.0398  0.0374  0.3532
  114loPI   GL2 1814  16.142   8.266   9.139  0.2496  0.0258  0.2089
  114loPI   C1A 1815  16.027   7.790   8.982  0.2306 -0.0148 -0.1484
  114loPI   C2A 1816  16.031   7.623   8.588  0.1530 -0.2360 -0.0742
  114loPI   C3A 1817  15.878   7.372   8.207 -0.2582  0.1366  0.0383
  114loPI   C4A 1818  15.643   7.061   7.871  0.3353 -0.0061  0.2518
  114loPI   C5A 1819  15.620   7.234   7.443 -0.1457 -0.0894  0.3031
  114loPI   C6A 1820  15.916   7.308   7.180  0.1255  0.1959 -0.0754
  114loPI   C1B 1821  16.022   8.177   8.627 -0.4130  0.0890 -0.3557
  114loPI   C2B 1822  15.945   7.955   8.225  0.2115  0.0928  0.0922
  114loPI   C3B 1823  15.953   7.914   7.781  0.4302 -0.2977  0.3654
  114loPI   C4B 1824  16.081   7.738   7.431 -0.0467 -0.2069  0.0097
  115loPI    C1 1825   9.356   0.914  10.054  0.1495 -0.2304 -0.0092
  115loPI    C2 1826   9.278   0.786  10.425 -0.2471  0.3105  0.1074
  115loPI    C3 1827   9.490   1.120  10.370 -0.2633  0.2798 -0.1521
  115loPI   PO4 1828   9.418   0.791   9.848  0.1318  0.2071 -0.2000
  115loPI   GL1 1829   9.587   1.013   9.513  0.2304  0.0810 -0.2144
  115loPI   GL2 1830   9.562   1.293   9.448  0.4604  0.0264 -0.3773
  115loPI   C1A 1831   9.602   0.807   9.195 -0.2321  0.3498  0.0158
  115loPI   C2A 1832   9.510   0.776   8.787  0.2524  0.0441  0.2895
  115loPI   C3A 1833   9.617   0.589   8.382  0.1198  0.0341  0.1769
  115loPI   C4A 1834   9.577   0.492   8.036 -0.2567  0.0222 -0.0514
  115loPI   C5A 1835   9.802   0.338   7.624  0.1117  0.0408  0.0878
  115loPI   C6A 1836   9.926  -0.012   7.489  0.2647  0.1281 -0.0836
  115loPI   C1B 1837   9.284   1.190   9.046 -0.3878 -0.1292  0.1220
  115loPI   C2B 1838   9.025   1.343   8.698  0.1301 -0.3012 -0.2267
  115loPI   C3B 1839   9.004   1.382   8.283 -0.2336 -0.3698  0.3690
  115loPI   C4B 1840   8.743   1.557   7.991  0.0028  0.2828  0.2085
  116loPI    C1 1841   1.601   6.000  10.022  0.1319 -0.0633  0.2530
  116loPI    C2 1842   1.292   5.750   9.984  0.0882  0.0191  0.0497
  116loPI    C3 1843   1.349   5.947  10.327 -0.0793 -0.0036  0.0916
  116loPI   PO4 1844   1.701   6.138   9.729  0.1231  0.1977 -0.3843
  116loPI   GL1 1845   1.835   6.183   9.239  0.0093  0.2567  0.3694
  116loPI   GL2 1846   1.503   6.297   9.248  0.2771 -0.2189  0.0253
  116loPI   C1A 1847   1.919   5.985   8.762 -0.0302 -0.1854 -0.1865
  116loPI   C2A 1848   1.883   5.861   8.315 -0.0108 -0.2401 -0.2721
  116loPI   C3A 1849   2.101   6.028   7.940  0.0023 -0.2370  0.0473
  116loPI   C4A 1850   2.387   6.019   7.662 -0.0573  0.2117 -0.1514
  116loPI   C5A 1851   2.767   5.796   7.585  0.2152  0.0471  0.0340
  116loPI   C6A 1852   2.935   5.515   7.410 -0.0181  0.0089  0.0702
  116loPI   C1B 1853   1.528   6.407   8.838  0.2212 -0.7660  0.0357
  116loPI   C2B 1854   1.779   6.378   8.431  0.1078 -0.1550  0.0600
  116loPI   C3B 1855   1.942   6.496   8.050  0.0909  0.0702  0.0461
  116loPI   C4B 1856   1.967   6.691   7.645  0.2555  0.4722  0.0997
  117loPI    C1 1857  10.647  12.993  10.093  0.1670 -0.1709 -0.0214
  117loPI    C2 1858  10.875  13.012  10.421 -0.1130 -0.2248  0.1797
  117loPI    C3 1859  10.719  13.346  10.266  0.3738 -0.1440 -0.1585
  117loPI   PO4 1860  10.742  12.941   9.850 -0.0736 -0.0590  0.0544
  117loPI   GL1 1861  11.051  12.870   9.573 -0.0016 -0.0264  0.1484
  117loPI   GL2 1862  11.262  13.022   9.532 -0.1369 -0.4639  0.1560
  117loPI   C1A 1863  10.881  13.087   9.165  0.1384  0.1721  0.0602
  117loPI   C2A 1864  10.675  13.171   8.764 -0.0229 -0.3622  0.2260
  117loPI   C3A 1865  10.742  13.121   8.368  0.0105 -0.0136 -0.2201
  117loPI   C4A 1866  10.880  12.936   7.937 -0.1976  0.1839  0.4266
  117loPI   C5A 1867  11.075  12.681   7.521  0.0229 -0.0620 -0.1087
  117loPI   C6A 1868  11.220  12.343   7.163  0.0473  0.1037 -0.3104
  117loPI   C1B 1869  11.509  13.104   9.119  0.0323  0.0854  0.3179
  117loPI   C2B 1870  11.298  13.368   8.806 -0.1897  0.2405  0.1682
  117loPI   C3B 1871  11.214  13.415   8.431  0.0520  0.2291  0.0377
  117loPI   C4B 1872  11.312  13.433   8.048 -0.2731  0.1083  0.3232
  118loPI    C1 1873  11.790  10.729  10.494 -0.1012 -0.0219 -0.0103
  118loPI    C2 1874  11.394  10.734  10.550 -0.0811 -0.2942  0.1718
  118loPI    C3 1875  11.637  10.628  10.849  0.1304 -0.1343  0.0591
  118loPI   PO4 1876  11.750  10.820  10.201  0.0022 -0.1924  0.0604
  118loPI   GL1 1877  11.699  11.068   9.841 -0.0538  0.0177 -0.4051
  118loPI   GL2 1878  11.426  10.944   9.826  0.2287  0.0091 -0.1224
  118loPI   C1A 1879  11.731  10.996   9.460 -0.2619  0.2190 -0.0674
  118loPI   C2A 1880  11.687  11.075   9.108  0.0386 -0.0488 -0.0584
  118loPI   C3A 1881  11.553  11.239   8.658  0.0120  0.0798  0.0763
  118loPI   C4A 1882  11.251  10.971   8.366  0.2434 -0.1003 -0.0533
  118loPI   C5A 1883  11.104  10.851   7.895  0.0737  0.1055 -0.2748
  118loPI   C6A 1884  10.877  10.763   7.583 -0.2252 -0.0883 -0.0296
  118loPI   C1B 1885  11.347  10.690   9.528  0.0525  0.5033  0.4771
  118loPI   C2B 1886  11.330  10.710   9.147  0.2585 -0.1362 -0.1173
  118loPI   C3B 1887  11.216  10.716   8.767 -0.1260  0.2772  0.6431
  118loPI   C4B 1888  10.956  10.516   8.443  0.1744 -0.3623  0.0658
  119loPI    C1 1889  13.085   8.070  10.529  0.0465  0.0737  0.0132
  119loPI    C2 1890  13.396   8.199  10.745  0.1838 -0.1621 -0.0406
  119loPI    C3 1891  13.023   8.260  10.876  0.2387  0.3639 -0.1073
  119loPI   PO4 1892  13.211   8.136  10.232 -0.2627  0.1555  0.2268
  119loPI   GL1 1893  12.963   8.156   9.864  0.1404  0.2377  0.2045
  119loPI   GL2 1894  13.058   8.396   9.742 -0.1640  0.1456  0.0708
  119loPI   C1A 1895  13.085   7.961   9.512  0.2084  0.1511  0.1811
  119loPI   C2A 1896  13.242   7.903   9.042 -0.1472 -0.0019  0.0767
  119loPI   C3A 1897  13.161   8.009   8.633  0.1973 -0.0292 -0.0143
  119loPI   C4A 1898  12.990   8.117   8.140  0.0560 -0.1756 -0.2101
  119loPI   C5A 1899  12.775   8.138   7.750  0.0532  0.0363 -0.2383
  119loPI   C6A 1900  12.333   8.117   7.564  0.2752  0.2963  0.0622
  119loPI   C1B 1901  13.104   8.422   9.329 -0.0324 -0.1193 -0.2552
  119loPI   C2B 1902  13.232   8.458   8.922 -0.4012 -0.4227 -0.0552
  119loPI   C3B 1903  13.084   8.517   8.548 -0.1795 -0.0636  0.0137
  119loPI   C4B 1904  13.164   8.605   8.076  0.0965 -0.4791 -0.3991
  120loPI    C1 1905   3.765  15.884  10.061 -0.2614 -0.0555 -0.0423
  120loPI    C2 1906   3.537  16.010  10.365 -0.0122 -0.0699  0.1538
  120loPI    C3 1907   3.577  15.618  10.294 -0.0772 -0.0662  0.0968
  120loPI   PO4 1908   3.717  16.097   9.866  0.1200 -0.3553 -0.2343
  120loPI   GL1 1909   4.004  16.319   9.626  0.3090  0.3363  0.0259
  120loPI   GL2 1910   3.831  16.031   9.385  0.1048  0.1056  0.2696
  120loPI   C1A 1911   3.967  16.436   9.196  0.0905  0.1171 -0.1733
  120loPI   C2A 1912   4.082  16.461   8.769 -0.2387 -0.1355 -0.0154
  120loPI   C3A 1913   4.282  16.363   8.299 -0.0374  0.2096  0.0640
  120loPI   C4A 1914   4.218  16.431   7.880 -0.1956 -0.0019 -0.0340
  120loPI   C5A 1915   4.433  16.242   7.417  0.2202 -0.4662 -0.1040
  120loPI   C6A 1916   4.287  16.238   7.014 -0.0375  0.1563  0.3643
  120loPI   C1B 1917   3.793  15.944   9.036  0.1790 -0.3085  0.2938
  120loPI   C2B 1918   3.768  16.121   8.579  0.2218 -0.0360  0.0140
  120loPI   C3B 1919   3.716  16.034   8.055 -0.1367 -0.0628  0.0766
  120loPI   C4B 1920   3.830  15.691   7.773  0.0780 -0.2630 -0.1174
  121loPI    C1 1921   3.217  16.639   9.571  0.3086  0.1496  0.3241
  121loPI    C2 1922   3.157  16.319   9.802 -0.0011 -0.0579 -0.0314
  121loPI    C3 1923   3.442  16.312   9.523  0.0912  0.0343  0.0599
  121loPI   PO4 1924   3.220  16.869   9.684 -0.2446  0.2664  0.0352
  121loPI   GL1 1925   3.080  17.168   9.431 -0.0972 -0.4027 -0.2521
  121loPI   GL2 1926   2.821  16.965   9.263 -0.3097  0.0428  0.4529
  121loPI   C1A 1927   3.279  16.932   9.053  0.0001  0.0718 -0.0997
  121loPI   C2A 1928   3.489  17.082   8.647 -0.3735  0.1819  0.0974
  121loPI   C3A 1929   3.466  17.210   8.264 -0.1339  0.0169  0.3181
  121loPI   C4A 1930   3.573  17.173   7.979 -0.1189  0.0099  0.3361
  121loPI   C5A 1931   3.529  17.447   7.622 -0.4583  0.0717  0.1341
  121loPI   C6A 1932   3.584  17.563   7.146 -0.3281 -0.0899 -0.1957
  121loPI   C1B 1933   2.896  17.303   8.938  0.2783  0.0764 -0.2845
  121loPI   C2B 1934   2.962  17.343   8.394  0.1427  0.0715  0.0032
  121loPI   C3B 1935   3.026  17.234   8.068 -0.0946 -0.2052 -0.2676
  121loPI   C4B 1936   3.127  17.287   7.550 -0.1189  0.0587  0.1070
  122loPI    C1 1937  17.495   5.049  10.186 -0.1260 -0.1440  0.2012
  122loPI    C2 1938  17.430   4.692  10.354 -0.1554 -0.2202  0.0295
  122loPI    C3 1939  17.402   5.025  10.574 -0.2495 -0.3150  0.1618
  122loPI   PO4 1940  17.578   4.916   9.933  0.0083 -0.1854 -0.0791
  122loPI   GL1 1941  17.377   4.884   9.638  0.0870  0.1058 -0.1352
  122loPI   GL2 1942  17.167   4.583   9.603 -0.1619 -0.1196  0.0935
  122loPI   C1A 1943  17.247   5.086   9.225  0.0386 -0.2870 -0.0352
  122loPI   C2A 1944  17.381   5.396   8.926  0.0199 -0.0973 -0.3270
  122loPI   C3A 1945  17.241   5.395   8.459  0.1924 -0.0146  0.3769
  122loPI   C4A 1946  17.263   5.299   7.969  0.0219  0.0077  0.0331
  122loPI   C5A 1947  17.108   5.319   7.543  0.0363  0.1479 -0.2599
  122loPI   C6A 1948  16.748   5.380   7.263 -0.1101 -0.1112  0.0644
  122loPI   C1B 1949  17.033   4.606   9.160  0.0796 -0.3097 -0.0761
  122loPI   C2B 1950  17.147   4.716   8.710  0.1256  0.0246  0.2236
  122loPI   C3B 1951  17.017   4.609   8.324  0.1134  0.1400  0.2278
  122loPI   C4B 1952  16.953   4.883   7.950 -0.1284  0.1810  0.0884
  123loPI    C1 1953   8.515   3.812   9.655  0.0481 -0.0900  0.1175
  123loPI    C2 1954   8.514   3.415   9.705 -0.1154 -0.1288 -0.1731
  123loPI    C3 1955   8.739   3.580   9.418  0.0208 -0.0018  0.0044
  123loPI   PO4 1956   8.229   3.902   9.817 -0.0510 -0.0768 -0.0775
  123loPI   GL1 1957   7.912   4.029   9.579  0.2281  0.0799 -0.2184
  123loPI   GL2 1958   7.529   3.873   9.603 -0.2388  0.0449  0.3458
  123loPI   C1A 1959   7.635   4.229   9.280  0.0811  0.0341  0.2766
  123loPI   C2A 1960   7.350   4.410   8.962  0.2162  0.4383 -0.2997
  123loPI   C3A 1961   7.151   4.334   8.609 -0.0873 -0.0057  0.3674
  123loPI   C4A 1962   6.857   4.422   8.255  0.1386 -0.0981  0.0971
  123loPI   C5A 1963   6.723   4.440   7.842 -0.2607 -0.0104 -0.0418
  123loPI   C6A 1964   6.473   4.221   7.516 -0.2013 -0.0050  0.0612
  123loPI   C1B 1965   7.408   3.646   9.236 -0.4588  0.3619 -0.0297
  123loPI   C2B 1966   7.558   3.332   9.004  0.0342 -0.2185  0.4003
  123loPI   C3B 1967   7.590   2.962   9.091 -0.2377 -0.1181  0.0137
  123loPI   C4B 1968   7.855   2.739   9.365  0.1208  0.1388 -0.1036
  124loPI    C1 1969   7.035   9.657  10.084 -0.0515 -0.3798  0.1427
  124loPI    C2 1970   6.901   9.642  10.460 -0.0174 -0.2536  0.1605
  124loPI    C3 1971   7.285   9.729  10.388  0.0072 -0.4085  0.1015
  124loPI   PO4 1972   6.784   9.678   9.934 -0.1972  0.1427 -0.1553
  124loPI   GL1 1973   6.676   9.697   9.572  0.0210  0.3066  0.4635
  124loPI   GL2 1974   6.931   9.685   9.438  0.2031 -0.1108  0.2600
  124loPI   C1A 1975   6.689   9.680   9.040  0.0157  0.4347  0.1139
  124loPI   C2A 1976   6.360   9.381   8.783 -0.1147 -0.3246  0.0452
  124loPI   C3A 1977   6.277   9.008   8.577  0.1201  0.1624 -0.1445
  124loPI   C4A 1978   6.394   8.846   8.244  0.0547  0.0401  0.2806
  124loPI   C5A 1979   6.337   8.775   7.773 -0.0791  0.3024 -0.1651
  124loPI   C6A 1980   6.230   8.798   7.324  0.0922  0.1306  0.1360
  124loPI   C1B 1981   7.084   9.434   9.097 -0.1594 -0.0093  0.1002
  124loPI   C2B 1982   7.202   9.452   8.682  0.2311 -0.1923 -0.0703
  124loPI   C3B 1983   7.334   9.765   8.386 -0.0388 -0.0372  0.4205
  124loPI   C4B 1984   7.502   9.868   7.971 -0.1821 -0.2112 -0.2348
  125loPI    C1 1985   9.458  15.947  10.194  0.0587  0.0541  0.1421
  125loPI    C2 1986   9.818  15.976  10.022 -0.0057 -0.0511 -0.0134
  125loPI    C3 1987   9.785  15.981  10.421  0.1203  0.4937 -0.0023
  125loPI   PO4 1988   9.318  15.967   9.850 -0.0324  0.0987  0.4088
  125loPI   GL1 1989   9.624  15.976   9.593  0.3507  0.3858 -0.1757
  125loPI   GL2 1990   9.962  15.815   9.551  0.3667 -0.2654 -0.1081
  125loPI   C1A 1991   9.607  15.988   9.160  0.0761  0.0176  0.2855
  125loPI   C2A 1992   9.552  15.982   8.791  0.1989  0.0923 -0.0788
  125loPI   C3A 1993   9.749  16.001   8.424 -0.1164 -0.0152 -0.0065
  125loPI   C4A 1994   9.631  16.007   8.002 -0.1829  0.0545  0.0020
  125loPI   C5A 1995   9.550  16.115   7.446 -0.4611 -0.2391  0.0835
  125loPI   C6A 1996   9.797  16.301   7.130  0.2401 -0.0638  0.1477
  125loPI   C1B 1997   9.990  15.694   9.169  0.1281 -0.1668  0.3212
  125loPI   C2B 1998   9.991  15.723   8.791 -0.0673  0.0077  0.0095
  125loPI   C3B 1999   9.864  15.535   8.478 -0.1791  0.2125 -0.1708
  125loPI   C4B 2000   9.972  15.374   8.067 -0.0060 -0.1828 -0.0433
  126loPI    C1 2001   0.707  11.444   9.446 -0.0093 -0.0949  0.0074
  126loPI    C2 2002   0.981  11.426   9.737 -0.1131  0.1188  0.1208
  126loPI    C3 2003   0.644  11.636   9.792 -0.1491  0.1330 -0.1412
  126loPI   PO4 2004   0.850  11.470   9.247 -0.1912  0.0674  0.1138
  126loPI   GL1 2005   1.143  11.742   9.038 -0.1693  0.1617 -0.2455
  126loPI   GL2 2006   0.923  11.861   8.920 -0.4183 -0.3557  0.1521
  126loPI   C1A 2007   1.275  11.811   8.574  0.4037 -0.0008  0.1794
  126loPI   C2A 2008   1.302  12.062   8.193  0.0353  0.2931 -0.2538
  126loPI   C3A 2009   1.140  11.907   7.751  0.1260  0.1538 -0.4483
  126loPI   C4A 2010   1.290  11.679   7.482  0.1986  0.2273 -0.0109
  126loPI   C5A 2011   1.172  11.397   7.265  0.2614 -0.0255 -0.0304
  126loPI   C6A 2012   1.134  10.968   7.043  0.1339 -0.0337  0.2675
  126loPI   C1B 2013   0.875  12.092   8.498 -0.1984 -0.2565 -0.0131
  126loPI   C2B 2014   0.460  12.231   8.332  0.1372 -0.2371 -0.1474
  126loPI   C3B 2015   0.311  12.404   8.031 -0.1926  0.0475 -0.0041
  126loPI   C4B 2016  -0.014  12.453   7.771 -0.2827 -0.1076  0.1072
  127loPI    C1 2017  11.003  18.525  10.190 -0.3067  0.0068  0.7936
  127loPI    C2 2018  11.371  18.569  10.341  0.0484 -0.0169 -0.0147
  127loPI    C3 2019  11.174  18.225  10.393  0.2619 -0.1143  0.1696
  127loPI   PO4 2020  10.935  18.658   9.976  0.3674  0.3031 -0.0098
  127loPI   GL1 2021  10.857  18.563   9.624 -0.1564 -0.3606  0.2355
  127loPI   GL2 2022  10.964  18.873   9.476 -0.0583  0.2416  0.3871
  127loPI   C1A 2023  10.855  18.464   9.227 -0.3471  0.0807  0.1708
  127loPI   C2A 2024  10.743  18.360   8.828  0.0999  0.1250  0.4258
  127loPI   C3A 2025  10.710  18.141   8.497  0.2241  0.1107 -0.0381
  127loPI   C4A 2026  10.545  18.192   8.089  0.0812  0.0967 -0.2517
  127loPI   C5A 2027  10.623  18.298   7.698  0.2946 -0.2175  0.0645
  127loPI   C6A 2028  10.431  18.386   7.288  0.0831 -0.0697 -0.0739
  127loPI   C1B 2029  10.745  18.990   9.084 -0.0618  0.0759 -0.0242
  127loPI   C2B 2030  10.799  18.923   8.563  0.0013  0.2119 -0.0028
  127loPI   C3B 2031  10.818  18.936   8.171 -0.0887 -0.1573  0.0816
  127loPI   C4B 2032  10.818  18.834   7.762  0.2942  0.1205 -0.1616
  128loPI    C1 2033   0.353   1.498  10.037 -0.0792 -0.1293 -0.1040
  128loPI    C2 2034   0.068   1.697  10.235  0.0824 -0.0248  0.0265
  128loPI    C3 2035   0.197   1.345  10.373  0.0274 -0.0650 -0.0244
  128loPI   PO4 2036   0.311   1.465   9.803  0.1789 -0.0250  0.0691
  128loPI   GL1 2037   0.534   1.356   9.359 -0.1336  0.3460 -0.1274
  128loPI   GL2 2038   0.265   1.434   9.070 -0.2012 -0.3051  0.2723
  128loPI   C1A 2039   0.766   1.548   8.974  0.2028  0.0690 -0.0736
  128loPI   C2A 2040   0.855   1.581   8.469 -0.2715  0.0514 -0.2112
  128loPI   C3A 2041   1.012   1.498   8.082 -0.0042  0.2542  0.1280
  128loPI   C4A 2042   0.917   1.358   7.516 -0.0312  0.1102 -0.4940
  128loPI   C5A 2043   0.816   1.723   7.210 -0.1013  0.2749  0.0977
  128loPI   C6A 2044   0.758   1.794   6.734  0.0092 -0.1224 -0.4145
  128loPI   C1B 2045   0.401   1.377   8.599 -0.3918  0.1214 -0.0842
  128loPI   C2B 2046   0.499   1.250   8.206 -0.0232  0.0891  0.1387
  128loPI   C3B 2047   0.535   1.480   7.849 -0.0127 -0.0302 -0.0539
  128loPI   C4B 2048   0.455   1.487   7.454 -0.1763 -0.2702  0.0994
  129loPI    C1 2049   3.672   7.643  10.408 -0.1298  0.0869  0.0277
  129loPI    C2 2050   3.472   7.953  10.564 -0.2353 -0.0965  0.2630
  129loPI    C3 2051   3.533   7.623  10.783 -0.0226 -0.1985  0.0548
  129loPI   PO4 2052   3.628   7.639  10.071  0.0384 -0.2060 -0.1107
  129loPI   GL1 2053   3.429   7.668   9.709  0.3699  0.2784 -0.3650
  129loPI   GL2 2054   3.174   7.449   9.740  0.1444  0.2539 -0.1548
  129loPI   C1A 2055   3.699   7.742   9.395 -0.2737  0.0734 -0.2281
  129loPI   C2A 2056   3.765   7.645   8.876 -0.3086  0.2507 -0.3649
  129loPI   C3A 2057   3.979   7.760   8.518  0.0863  0.0030  0.2049
  129loPI   C4A 2058   3.994   7.641   8.234 -0.0146  0.0954  0.0750
  129loPI   C5A 2059   4.141   7.555   7.890 -0.1299  0.0619 -0.0385
  129loPI   C6A 2060   4.025   7.370   7.603 -0.1666  0.1997  0.2886
  129loPI   C1B 2061   2.995   7.152   9.447  0.0491  0.0880 -0.0430
  129loPI   C2B 2062   3.082   6.948   9.181 -0.2670 -0.0368 -0.1957
  129loPI   C3B 2063   3.307   6.689   8.977 -0.0153 -0.2644  0.2236
  129loPI   C4B 2064   3.128   6.205   8.963 -0.0971  0.1931 -0.0303
  130loPI    C1 2065   4.707  16.420  10.193  0.1337 -0.3375 -0.3150
  130loPI    C2 2066   5.004  16.343  10.450  0.0575 -0.3263 -0.2231
  130loPI    C3 2067   5.021  16.667  10.216 -0.1163 -0.0465  0.1406
  130loPI   PO4 2068   4.739  16.090  10.045 -0.0314  0.4129  0.1570
  130loPI   GL1 2069   4.554  16.064   9.580 -0.1966 -0.0628  0.3023
  130loPI   GL2 2070   4.636  16.509   9.634 -0.1261  0.2422  0.0894
  130loPI   C1A 2071   4.438  16.008   9.106  0.2346  0.0205 -0.4007
  130loPI   C2A 2072   4.533  16.092   8.762  0.1369 -0.0389  0.1511
  130loPI   C3A 2073   4.522  15.917   8.327 -0.1999  0.0577  0.1741
  130loPI   C4A 2074   4.326  15.926   7.901 -0.1987 -0.0840  0.3735
  130loPI   C5A 2075   4.268  15.468   7.640  0.1238 -0.3025  0.3108
  130loPI   C6A 2076   4.632  15.334   7.494  0.1822 -0.0608 -0.3207
  130loPI   C1B 2077   4.457  16.476   9.195  0.0867 -0.3743  0.0614
  130loPI   C2B 2078   4.538  16.628   8.784 -0.2933  0.2118  0.3643
  130loPI   C3B 2079   4.592  16.712   8.325  0.0366 -0.0548  0.0761
  130loPI   C4B 2080   4.458  16.896   8.001  0.1884 -0.1279  0.0564
  131loPI    C1 2081  17.304   4.024   9.840 -0.1959 -0.0991  0.1177
  131loPI    C2 2082  17.273   4.362  10.051 -0.1589  0.0637 -0.1330
  131loPI    C3 2083  17.537   4.082  10.160 -0.1710  0.1260  0.0603
  131loPI   PO4 2084  17.193   4.095   9.546  0.3385 -0.0961  0.2318
  131loPI   GL1 2085  16.999   3.791   9.227  0.0541 -0.3800 -0.0427
  131loPI   GL2 2086  16.743   3.538   9.238 -0.0029  0.0445  0.0564
  131loPI   C1A 2087  17.039   3.664   8.834 -0.2113  0.0356  0.4267
  131loPI   C2A 2088  16.892   3.659   8.508 -0.2408  0.0218 -0.0912
  131loPI   C3A 2089  16.972   3.962   8.128 -0.1971 -0.1898  0.2236
  131loPI   C4A 2090  16.929   4.231   7.757  0.1182  0.1187 -0.0766
  131loPI   C5A 2091  17.162   4.542   7.497  0.2609 -0.1713 -0.1855
  131loPI   C6A 2092  17.247   4.856   7.379 -0.0997 -0.1889 -0.0434
  131loPI   C1B 2093  16.385   3.432   8.936 -0.1480 -0.2392 -0.0395
  131loPI   C2B 2094  16.432   3.562   8.551 -0.0070  0.0423  0.2484
  131loPI   C3B 2095  16.272   3.752   8.112  0.1826 -0.2295  0.0096
  131loPI   C4B 2096  16.502   3.965   7.829  0.4746  0.2187 -0.1716
  132loPI    C1 2097   2.515   7.706  10.402  0.1350 -0.0654 -0.0630
  132loPI    C2 2098   2.148   7.779  10.260  0.0778 -0.1060  0.0623
  132loPI    C3 2099   2.196   7.654  10.637  0.2185 -0.1320  0.0366
  132loPI   PO4 2100   2.624   7.680  10.073 -0.1264 -0.1502  0.0906
  132loPI   GL1 2101   2.761   7.759   9.705  0.1639 -0.2404  0.2051
  132loPI   GL2 2102   2.982   8.059   9.681  0.1977  0.0827 -0.0771
  132loPI   C1A 2103   2.589   7.943   9.437 -0.3329 -0.1802  0.3261
  132loPI   C2A 2104   2.511   8.001   8.960  0.1965  0.2826  0.1720
  132loPI   C3A 2105   2.620   8.038   8.566  0.1755  0.0230 -0.1253
  132loPI   C4A 2106   2.975   8.323   8.329  0.0781 -0.0682 -0.0367
  132loPI   C5A 2107   3.322   8.455   8.054 -0.1218 -0.1716  0.1821
  132loPI   C6A 2108   3.562   8.202   7.793 -0.2341  0.0927  0.4774
  132loPI   C1B 2109   3.063   7.738   9.358  0.4377  0.3768  0.0910
  132loPI   C2B 2110   3.239   7.456   9.117 -0.5192 -0.0386 -0.3176
  132loPI   C3B 2111   3.132   7.230   8.763 -0.1832 -0.0481 -0.0376
  132loPI   C4B 2112   3.206   6.876   8.442 -0.3777 -0.2007 -0.1070
  133loPI    C1 2113  18.502  12.341   9.616  0.2403 -0.4023  0.3603
  133loPI    C2 2114  18.116  12.266   9.686  0.0176  0.0613 -0.2796
  133loPI    C3 2115  18.336  12.452   9.963 -0.2577 -0.0542  0.0237
  133loPI   PO4 2116  18.416  12.503   9.303 -0.0231 -0.2823  0.0377
  133loPI   GL1 2117  18.534  12.627   8.855 -0.0543  0.1048 -0.0292
  133loPI   GL2 2118  18.659  12.853   8.915 -0.1755  0.1773  0.0505
  133loPI   C1A 2119  18.561  12.632   8.444  0.2517  0.4590  0.2335
  133loPI   C2A 2120  18.370  12.821   8.122 -0.0632 -0.2666  0.2119
  133loPI   C3A 2121  18.078  12.923   7.926  0.1305  0.2851 -0.1777
  133loPI   C4A 2122  17.907  13.030   7.583  0.0911 -0.1690  0.0085
  133loPI   C5A 2123  17.841  12.863   7.177 -0.0399 -0.0043 -0.0263
  133loPI   C6A 2124  17.662  12.736   6.738  0.0968 -0.1101  0.0811
  133loPI   C1B 2125  18.906  12.958   8.519 -0.2326 -0.1223 -0.0599
  133loPI   C2B 2126  18.919  12.919   8.129  0.1516 -0.0806  0.2213
  133loPI   C3B 2127  18.940  12.814   7.692  0.0770 -0.1008 -0.1267
  133loPI   C4B 2128  18.764  12.673   7.291  0.0629  0.2521  0.1137
  134loPI    C1 2129   6.219   2.478  10.542 -0.0917 -0.0085 -0.0653
  134loPI    C2 2130   6.032   2.782  10.722  0.0437 -0.0243  0.1053
  134loPI    C3 2131   6.033   2.420  10.892 -0.0534 -0.1034 -0.0603
  134loPI   PO4 2132   6.102   2.417  10.258  0.2211 -0.1030  0.1508
  134loPI   GL1 2133   5.981   2.477   9.832 -0.1183 -0.0990 -0.4877
  134loPI   GL2 2134   5.701   2.157   9.702  0.1653 -0.0592 -0.1911
  134loPI   C1A 2135   6.154   2.705   9.522  0.2189 -0.1030  0.1522
  134loPI   C2A 2136   6.181   2.994   9.341 -0.1728 -0.0123 -0.0202
  134loPI   C3A 2137   6.408   2.923   9.015 -0.1993  0.1111 -0.2428
  134loPI   C4A 2138   6.663   2.948   8.587  0.1060  0.1445  0.1033
  134loPI   C5A 2139   6.398   3.208   8.333  0.0807 -0.1522  0.0169
  134loPI   C6A 2140   6.372   3.662   8.257 -0.3174 -0.0198 -0.1072
  134loPI   C1B 2141   5.799   2.463   9.257 -0.0369  0.1050 -0.1854
  134loPI   C2B 2142   6.059   2.561   8.908  0.2756 -0.1527 -0.0591
  134loPI   C3B 2143   6.214   2.689   8.439  0.1192 -0.0944 -0.0638
  134loPI   C4B 2144   6.029   2.800   8.000  0.3251 -0.0009  0.1375
  135loPI    C1 2145   5.075   2.418  10.464 -0.2379 -0.0422  0.2138
  135loPI    C2 2146   4.860   2.717  10.621  0.0385  0.0380  0.4500
  135loPI    C3 2147   5.046   2.457  10.861 -0.2798 -0.3892  0.2478
  135loPI   PO4 2148   4.949   2.365  10.168  0.0699  0.1059 -0.0285
  135loPI   GL1 2149   4.825   2.442   9.749  0.0924  0.2124 -0.2731
  135loPI   GL2 2150   4.878   2.786   9.879 -0.1021  0.2634  0.2688
  135loPI   C1A 2151   4.813   2.254   9.328  0.1523  0.1946  0.0095
  135loPI   C2A 2152   4.972   1.990   8.955  0.0592 -0.2075 -0.1318
  135loPI   C3A 2153   5.218   2.035   8.480 -0.0293 -0.3131 -0.1997
  135loPI   C4A 2154   5.358   1.940   8.043 -0.0790 -0.0870  0.1484
  135loPI   C5A 2155   5.661   2.109   7.692  0.0436 -0.1272 -0.0348
  135loPI   C6A 2156   5.622   2.144   7.255 -0.0778  0.1667  0.0364
  135loPI   C1B 2157   5.098   3.116   9.564 -0.2679 -0.0309  0.2713
  135loPI   C2B 2158   5.205   3.094   9.067  0.2016 -0.0924 -0.1963
  135loPI   C3B 2159   5.382   3.174   8.747 -0.1988 -0.1432 -0.0436
  135loPI   C4B 2160   5.358   3.061   8.430 -0.2454 -0.0908  0.4514
  136loPI    C1 2161  17.054  11.776   9.469 -0.2928  0.0551 -0.0703
  136loPI    C2 2162  17.027  12.154   9.595 -0.1525  0.0511 -0.0271
  136loPI    C3 2163  17.158  11.869   9.843  0.0288  0.0258 -0.1494
  136loPI   PO4 2164  16.801  11.759   9.260 -0.1914 -0.1273  0.0700
  136loPI   GL1 2165  16.831  11.862   8.748 -0.3460  0.2999 -0.3013
  136loPI   GL2 2166  16.827  12.219   9.018  0.2475 -0.2334 -0.3634
  136loPI   C1A 2167  16.986  11.814   8.357  0.1381 -0.0265  0.0287
  136loPI   C2A 2168  17.050  11.724   7.925 -0.3837  0.0121 -0.1054
  136loPI   C3A 2169  17.144  11.617   7.432 -0.0419  0.1581 -0.0220
  136loPI   C4A 2170  17.446  11.728   7.053 -0.2036  0.0949  0.0492
  136loPI   C5A 2171  17.805  11.954   6.863 -0.1452  0.0066  0.0075
  136loPI   C6A 2172  17.970  12.289   6.606 -0.1118  0.1561 -0.1625
  136loPI   C1B 2173  16.930  12.335   8.632 -0.1342  0.1666  0.1851
  136loPI   C2B 2174  16.885  12.273   8.176  0.1640  0.3967 -0.1895
  136loPI   C3B 2175  16.993  12.219   7.746 -0.0149  0.3349 -0.0761
  136loPI   C4B 2176  16.751  11.960   7.470 -0.1972 -0.2565  0.1062
  137loPI    C1 2177  19.260  12.417   9.807 -0.2444 -0.1156 -0.1597
  137loPI    C2 2178  18.958  12.678   9.823 -0.2241 -0.0999 -0.0229
  137loPI    C3 2179  18.888  12.289   9.879 -0.2352 -0.1093 -0.1004
  137loPI   PO4 2180  19.325  12.464   9.567 -0.3164 -0.1174  0.1436
  137loPI   GL1 2181  19.282  12.241   9.174 -0.2831  0.1717 -0.0523
  137loPI   GL2 2182  19.300  12.075   8.909  0.1236 -0.1849  0.0811
  137loPI   C1A 2183  19.043  12.497   8.774 -0.0613 -0.2139 -0.2629
  137loPI   C2A 2184  18.946  12.419   8.289  0.2915  0.0156  0.0503
  137loPI   C3A 2185  18.725  12.514   7.952  0.1870 -0.1904 -0.3463
  137loPI   C4A 2186  18.425  12.525   7.685  0.2687 -0.0890  0.0001
  137loPI   C5A 2187  18.312  12.306   7.418  0.2035 -0.2533  0.1427
  137loPI   C6A 2188  18.269  12.028   7.088 -0.0708 -0.3548  0.2881
  137loPI   C1B 2189  19.311  12.010   8.532 -0.1236 -0.0760 -0.2366
  137loPI   C2B 2190  19.261  12.034   8.183  0.2940  0.1110  0.4224
  137loPI   C3B 2191  19.416  11.928   7.717 -0.1497 -0.2301 -0.0911
  137loPI   C4B 2192  19.339  11.803   7.337 -0.0007 -0.0188  0.0263
  138loPI    C1 2193  17.560  11.650   9.726 -0.1795  0.0036 -0.1542
  138loPI    C2 2194  17.920  11.807   9.649 -0.1212 -0.1682 -0.2385
  138loPI    C3 2195  17.821  11.708  10.024  0.0059 -0.3304 -0.2468
  138loPI   PO4 2196  17.524  11.587   9.482  0.0291  0.2461 -0.0766
  138loPI   GL1 2197  17.224  11.504   9.043 -0.1325  0.1311  0.2765
  138loPI   GL2 2198  17.440  11.565   8.811 -0.1654 -0.0473 -0.2194
  138loPI   C1A 2199  17.003  11.404   8.681  0.1404  0.1985  0.1158
  138loPI   C2A 2200  16.939  11.302   8.327 -0.2486  0.0383  0.2922
  138loPI   C3A 2201  16.922  11.277   7.824 -0.0724 -0.1695  0.0348
  138loPI   C4A 2202  16.858  11.200   7.426 -0.1508 -0.4262  0.0475
  138loPI   C5A 2203  16.697  11.032   7.057  0.4034  0.0062  0.1023
  138loPI   C6A 2204  16.892  10.939   6.609  0.0356  0.1118  0.0252
  138loPI   C1B 2205  17.450  11.660   8.505  0.6386  0.0221  0.0887
  138loPI   C2B 2206  17.447  11.491   8.040  0.0222 -0.2663  0.3749
  138loPI   C3B 2207  17.612  11.482   7.617 -0.0668  0.1593  0.1633
  138loPI   C4B 2208  17.658  11.342   7.241  0.1490  0.0508  0.1721
  139loPI    C1 2209   4.635  11.367  10.196  0.0344  0.4278 -0.1227
  139loPI    C2 2210   4.258  11.282  10.298  0.0897  0.0001 -0.2540
  139loPI    C3 2211   4.560  11.160  10.529  0.1669 -0.0450 -0.3778
  139loPI   PO4 2212   4.672  11.277   9.966 -0.0023  0.0233 -0.0326
  139loPI   GL1 2213   4.821  11.401   9.630  0.0424 -0.0221 -0.4096
  139loPI   GL2 2214   4.541  11.433   9.447  0.0387 -0.0577 -0.0589
  139loPI   C1A 2215   4.909  11.392   9.128  0.0714 -0.0324  0.2354
  139loPI   C2A 2216   4.925  11.289   8.715 -0.0488 -0.1501 -0.0790
  139loPI   C3A 2217   5.049  11.329   8.292  0.0237 -0.0790  0.1894
  139loPI   C4A 2218   5.069  11.627   7.802  0.1667  0.1744  0.2076
  139loPI   C5A 2219   5.114  12.090   7.791  0.2790 -0.2940 -0.1670
  139loPI   C6A 2220   5.316  12.410   7.627 -0.2394  0.1320 -0.2289
  139loPI   C1B 2221   4.456  11.736   9.058  0.1055 -0.0725  0.1299
  139loPI   C2B 2222   4.131  11.930   8.781  0.1356  0.0056 -0.3517
  139loPI   C3B 2223   3.890  11.650   8.426 -0.3665 -0.0847  0.0932
  139loPI   C4B 2224   3.964  11.406   8.053 -0.0429 -0.1358  0.0460
  140loPI    C1 2225   2.319  17.302   9.867  0.1138 -0.0600 -0.1577
  140loPI    C2 2226   2.055  17.258  10.165  0.1436  0.0201 -0.1193
  140loPI    C3 2227   2.336  17.542  10.186  0.0844  0.0907 -0.2687
  140loPI   PO4 2228   2.139  17.165   9.555  0.3108 -0.1642  0.3954
  140loPI   GL1 2229   2.284  16.955   9.109  0.0794 -0.2558  0.5640
  140loPI   GL2 2230   2.238  17.348   9.047  0.0734  0.2447 -0.1120
  140loPI   C1A 2231   2.490  17.019   8.710 -0.0352 -0.0179 -0.3714
  140loPI   C2A 2232   2.566  17.054   8.253 -0.1332  0.0282  0.1420
  140loPI   C3A 2233   2.618  16.946   7.950  0.0465  0.2497 -0.0457
  140loPI   C4A 2234   2.772  16.813   7.476  0.3110 -0.0561  0.1476
  140loPI   C5A 2235   2.742  16.484   7.237 -0.0856  0.1093  0.0278
  140loPI   C6A 2236   2.986  16.198   7.108  0.3104 -0.0076  0.3439
  140loPI   C1B 2237   2.156  17.513   8.685  0.2214 -0.2550  0.1337
  140loPI   C2B 2238   2.113  17.622   8.253 -0.0049 -0.2201 -0.5470
  140loPI   C3B 2239   2.116  17.752   7.772  0.1436 -0.1403  0.0384
  140loPI   C4B 2240   2.446  17.726   7.378  0.0818 -0.0615  0.2326
  141loPI    C1 2241   9.012  15.695  10.382 -0.1810  0.1707 -0.1214
  141loPI    C2 2242   9.247  15.731  10.703 -0.3370 -0.1670  0.0357
  141loPI    C3 2243   9.025  16.041  10.582  0.1092  0.1257 -0.0582
  141loPI   PO4 2244   9.185  15.576  10.178  0.1723 -0.0840 -0.1883
  141loPI   GL1 2245   9.188  15.434   9.741 -0.2105  0.1232 -0.2612
  141loPI   GL2 2246   9.001  15.499   9.424 -0.1857 -0.0420 -0.0470
  141loPI   C1A 2247   9.509  15.536   9.386 -0.1137 -0.1096 -0.3088
  141loPI   C2A 2248   9.522  15.469   8.845 -0.1123  0.0410  0.1067
  141loPI   C3A 2249   9.477  15.172   8.451 -0.1125 -0.0975 -0.2429
  141loPI   C4A 2250   9.529  15.270   7.980 -0.1605 -0.2052 -0.2827
  141loPI   C5A 2251   9.535  15.340   7.596 -0.0424 -0.1274 -0.2048
  141loPI   C6A 2252   9.669  15.684   7.193 -0.1916  0.0300  0.1031
  141loPI   C1B 2253   9.081  15.376   9.018  0.1360  0.5438 -0.2423
  141loPI   C2B 2254   9.195  15.022   8.796 -0.1375  0.0742 -0.2011
  141loPI   C3B 2255   9.128  14.811   8.399  0.0026  0.2617  0.1100
  141loPI   C4B 2256   9.142  14.873   7.923 -0.1754 -0.2850  0.1309
  142loPI    C1 2257  11.355   4.274  10.093  0.0191 -0.0699 -0.0566
  142loPI    C2 2258  10.992   4.190  10.238 -0.1171  0.2293 -0.2165
  142loPI    C3 2259  11.318   4.051  10.423 -0.3126 -0.0841 -0.1006
  142loPI   PO4 2260  11.281   4.227   9.813 -0.0714 -0.0767  0.1203
  142loPI   GL1 2261  11.334   4.352   9.369 -0.0092 -0.0902 -0.0455
  142loPI   GL2 2262  11.628   4.371   9.325  0.0795  0.4485 -0.1750
  142loPI   C1A 2263  11.103   4.149   9.059 -0.0392  0.1304  0.0612
  142loPI   C2A 2264  10.681   3.941   8.917  0.2196 -0.0504 -0.0423
  142loPI   C3A 2265  10.663   3.919   8.415  0.1545  0.0232 -0.0176
  142loPI   C4A 2266  10.505   4.057   7.988  0.3464  0.0369  0.3567
  142loPI   C5A 2267  10.483   4.162   7.566 -0.0236 -0.1859  0.0087
  142loPI   C6A 2268  10.231   4.362   7.189 -0.0944 -0.1807  0.0946
  142loPI   C1B 2269  11.759   4.122   8.941 -0.0276 -0.5970  0.2340
  142loPI   C2B 2270  11.706   4.094   8.490  0.1227  0.1886 -0.0805
  142loPI   C3B 2271  11.689   4.036   8.055 -0.0335  0.2579 -0.1984
  142loPI   C4B 2272  11.883   3.683   7.782 -0.1918  0.2787 -0.7114
  143loPI    C1 2273   5.153  14.590   9.639  0.0245 -0.0283  0.0361
  143loPI    C2 2274   4.867  14.767   9.856  0.1892  0.0089  0.2255
  143loPI    C3 2275   4.936  14.375   9.897  0.2011  0.0105  0.2197
  143loPI   PO4 2276   5.089  14.652   9.425 -0.2275  0.0333 -0.0449
  143loPI   GL1 2277   4.931  14.682   9.095  0.1726  0.3274 -0.0123
  143loPI   GL2 2278   4.889  15.032   8.901  0.0765  0.3645 -0.0985
  143loPI   C1A 2279   5.082  14.584   8.674  0.0748  0.1218 -0.1838
  143loPI   C2A 2280   5.036  14.319   8.300 -0.0832 -0.0460  0.0983
  143loPI   C3A 2281   5.130  14.298   7.899 -0.3818  0.3066 -0.4527
  143loPI   C4A 2282   5.405  14.114   7.670 -0.0777 -0.0869 -0.1028
  143loPI   C5A 2283   5.467  14.121   7.268 -0.2262  0.3596  0.0017
  143loPI   C6A 2284   5.297  14.339   6.902  0.2723 -0.0517 -0.1880
  143loPI   C1B 2285   5.099  15.291   8.671 -0.4821  0.1702 -0.1018
  143loPI   C2B 2286   5.201  15.319   8.215 -0.3160  0.2419 -0.0701
  143loPI   C3B 2287   5.488  15.231   8.000 -0.0978  0.0719 -0.0492
  143loPI   C4B 2288   5.902  15.169   7.937 -0.0175  0.1401  0.0442
  144loPI    C1 2289  13.727  16.640   9.695  0.0885 -0.2450  0.1444
  144loPI    C2 2290  13.674  16.892  10.001 -0.2013  0.0255 -0.1213
  144loPI    C3 2291  13.840  16.534  10.064  0.1667  0.2550  0.2720
  144loPI   PO4 2292  13.523  16.598   9.428 -0.0559  0.2167 -0.0621
  144loPI   GL1 2293  13.177  16.463   9.147 -0.1802  0.1743 -0.1043
  144loPI   GL2 2294  13.230  16.600   8.785 -0.2835  0.0924 -0.4132
  144loPI   C1A 2295  12.925  16.275   8.914  0.0124  0.1206  0.1713
  144loPI   C2A 2296  12.821  16.124   8.555 -0.2505  0.4357  0.2383
  144loPI   C3A 2297  12.860  15.923   8.116  0.5365 -0.4387 -0.0102
  144loPI   C4A 2298  13.065  15.831   7.668  0.4389  0.0242  0.0321
  144loPI   C5A 2299  13.098  16.056   7.274 -0.1071 -0.1147 -0.1738
  144loPI   C6A 2300  12.931  16.219   6.930 -0.0722 -0.1563  0.0365
  144loPI   C1B 2301  13.175  16.488   8.419  0.2010  0.3984  0.2050
  144loPI   C2B 2302  13.195  16.381   8.003  0.0823  0.0849 -0.0026
  144loPI   C3B 2303  13.061  16.477   7.570  0.1455 -0.1927  0.1344
  144loPI   C4B 2304  13.287  16.518   7.191  0.1961  0.0259  0.0482
  145loPI    C1 2305  15.500  14.180   9.546 -0.1357 -0.1037 -0.0525
  145loPI    C2 2306  15.330  13.820   9.584  0.2792 -0.2975  0.0289
  145loPI    C3 2307  15.555  13.967   9.881 -0.0772  0.1374  0.0939
  145loPI   PO4 2308  15.662  14.141   9.312  0.1550  0.1086 -0.0686
  145loPI   GL1 2309  15.695  14.120   8.844 -0.1271 -0.2240  0.1651
  145loPI   GL2 2310  15.442  14.212   8.571  0.1183  0.1741  0.3379
  145loPI   C1A 2311  15.871  13.988   8.495  0.3107  0.2214 -0.1578
  145loPI   C2A 2312  15.800  14.284   8.124 -0.0610  0.1094 -0.3450
  145loPI   C3A 2313  15.859  14.269   7.623 -0.2131  0.1609 -0.0680
  145loPI   C4A 2314  15.774  14.343   7.216 -0.3438 -0.1300  0.1649
  145loPI   C5A 2315  15.935  14.072   6.893 -0.0612  0.0639  0.0885
  145loPI   C6A 2316  15.852  13.820   6.628 -0.2181  0.4633 -0.0228
  145loPI   C1B 2317  15.266  14.226   8.141  0.1826 -0.0365 -0.0221
  145loPI   C2B 2318  15.414  14.339   7.780  0.1751  0.1033  0.3826
  145loPI   C3B 2319  15.365  14.592   7.418 -0.0072  0.1064 -0.4112
  145loPI   C4B 2320  15.395  15.085   7.413 -0.1709 -0.3257 -0.0180
  146loPI    C1 2321   1.767  11.067   9.849 -0.1383  0.1457  0.0304
  146loPI    C2 2322   1.580  10.779  10.054  0.3084 -0.0936  0.1143
  146loPI    C3 2323   1.769  11.072  10.249 -0.1248  0.2529  0.0293
  146loPI   PO4 2324   1.812  11.118   9.564  0.0918  0.1094  0.0400
  146loPI   GL1 2325   1.787  11.399   9.206 -0.0701  0.2835  0.1417
  146loPI   GL2 2326   2.084  11.382   9.211  0.0041 -0.1680 -0.1858
  146loPI   C1A 2327   1.710  11.627   8.814 -0.1247  0.0060  0.2005
  146loPI   C2A 2328   1.784  11.775   8.348  0.2391  0.0888 -0.1212
  146loPI   C3A 2329   1.731  11.683   7.931 -0.2704 -0.0743  0.0605
  146loPI   C4A 2330   1.741  11.944   7.578 -0.1364  0.1700 -0.3972
  146loPI   C5A 2331   1.552  11.934   7.149 -0.1503  0.1439 -0.0052
  146loPI   C6A 2332   1.301  12.074   6.797 -0.0624 -0.0536 -0.3318
  146loPI   C1B 2333   2.097  11.273   8.685  0.0977 -0.1926  0.1470
  146loPI   C2B 2334   1.821  11.115   8.297  0.1786 -0.1922 -0.2126
  146loPI   C3B 2335   1.376  10.945   8.282  0.0158 -0.0162  0.1237
  146loPI   C4B 2336   1.003  10.617   8.466  0.1310 -0.1012  0.0396
  147loPI    C1 2337  16.531  13.957   9.410  0.2173 -0.0844 -0.1924
  147loPI    C2 2338  16.812  13.798   9.646  0.1713 -0.2430 -0.2432
  147loPI    C3 2339  16.473  13.937   9.806  0.2704 -0.0661 -0.1834
  147loPI   PO4 2340  16.613  13.703   9.174  0.0139 -0.1556  0.1061
  147loPI   GL1 2341  16.457  13.548   8.771  0.1737  0.0174 -0.1260
  147loPI   GL2 2342  16.307  13.840   8.793 -0.0425 -0.1381  0.2221
  147loPI   C1A 2343  16.610  13.391   8.452  0.0996  0.3229  0.2722
  147loPI   C2A 2344  16.531  13.431   8.065  0.0685  0.2710 -0.2124
  147loPI   C3A 2345  16.569  13.534   7.629  0.0893 -0.0174 -0.1854
  147loPI   C4A 2346  16.457  13.409   7.273  0.0125 -0.2627  0.1789
  147loPI   C5A 2347  16.805  13.015   7.071  0.1147 -0.0330  0.0186
  147loPI   C6A 2348  17.218  12.946   6.933 -0.1396 -0.1450  0.1512
  147loPI   C1B 2349  16.318  13.796   8.319 -0.2626 -0.1824 -0.1866
  147loPI   C2B 2350  16.172  13.974   7.938 -0.0114  0.0221  0.0511
  147loPI   C3B 2351  16.023  13.731   7.487 -0.2523  0.1991  0.1322
  147loPI   C4B 2352  15.990  13.453   7.091 -0.1647  0.3233 -0.0907
  148loPI    C1 2353   9.703  14.352  10.067  0.1858 -0.0923  0.2470
  148loPI    C2 2354   9.309  14.332  10.134  0.1219 -0.0646 -0.0987
  148loPI    C3 2355   9.523  14.635  10.284 -0.0016 -0.0372  0.0239
  148loPI   PO4 2356   9.696  14.241   9.848 -0.4130 -0.0018  0.3223
  148loPI   GL1 2357   9.473  14.246   9.439 -0.3296 -0.0827 -0.1742
  148loPI   GL2 2358   9.257  14.262   9.467  0.1714  0.4105 -0.0936
  148loPI   C1A 2359   9.433  14.246   8.939 -0.1266 -0.0803  0.4281
  148loPI   C2A 2360   9.480  14.123   8.599  0.2608 -0.1614 -0.0033
  148loPI   C3A 2361   9.634  14.061   8.125 -0.1628 -0.0209 -0.0382
  148loPI   C4A 2362   9.662  13.927   7.764  0.0908 -0.1775  0.0952
  148loPI   C5A 2363   9.688  14.286   7.570  0.0314 -0.4595  0.4031
  148loPI   C6A 2364   9.356  14.254   7.350 -0.0183 -0.1880 -0.2683
  148loPI   C1B 2365   9.074  14.553   9.179  0.0286 -0.0314 -0.2222
  148loPI   C2B 2366   9.048  14.468   8.698 -0.1208 -0.1200 -0.0615
  148loPI   C3B 2367   9.158  14.319   8.274 -0.1636  0.3479  0.0566
  148loPI   C4B 2368   9.255  14.357   7.820  0.3066  0.0509 -0.1230
  149loPI    C1 2369  13.185  12.280  10.191 -0.0871  0.0255  0.0313
  149loPI    C2 2370  13.237  11.924  10.367  0.0860 -0.0491 -0.1669
  149loPI    C3 2371  13.004  12.200  10.539  0.0615 -0.2070  0.0576
  149loPI   PO4 2372  13.154  12.146   9.856  0.1528  0.0728  0.0195
  149loPI   GL1 2373  12.821  12.069   9.531 -0.3242  0.0262 -0.2235
  149loPI   GL2 2374  13.033  12.268   9.371  0.1160 -0.2338  0.3200
  149loPI   C1A 2375  12.647  11.867   9.195  0.1269 -0.3995  0.4352
  149loPI   C2A 2376  12.487  11.921   8.862  0.0096  0.1439 -0.0702
  149loPI   C3A 2377  12.323  11.900   8.378 -0.0603  0.0991  0.2685
  149loPI   C4A 2378  12.370  11.857   7.899 -0.0806  0.0052 -0.1440
  149loPI   C5A 2379  12.414  12.089   7.557  0.1111 -0.0838 -0.1905
  149loPI   C6A 2380  12.468  12.265   7.136  0.1546  0.1545 -0.0583
  149loPI   C1B 2381  13.060  12.080   8.867 -0.1338 -0.0066 -0.1198
  149loPI   C2B 2382  13.226  12.049   8.478  0.0472  0.1058  0.1477
  149loPI   C3B 2383  13.233  11.950   8.020 -0.0421  0.1324 -0.0893
  149loPI   C4B 2384  13.250  11.848   7.592  0.3450  0.2328 -0.4414
  150loPI    C1 2385   1.243  13.368   9.566 -0.0740 -0.1259  0.0531
  150loPI    C2 2386   0.982  13.607   9.379  0.0408  0.0840  0.1586
  150loPI    C3 2387   0.910  13.486   9.753 -0.0114 -0.0375  0.1096
  150loPI   PO4 2388   1.345  13.215   9.329  0.0677 -0.0049  0.1386
  150loPI   GL1 2389   1.283  13.047   8.941  0.2558 -0.1861  0.0639
  150loPI   GL2 2390   1.478  12.818   8.881 -0.4475 -0.0206 -0.1756
  150loPI   C1A 2391   1.034  12.951   8.606 -0.0851  0.1076 -0.0329
  150loPI   C2A 2392   1.031  12.952   8.130 -0.0889 -0.0731 -0.0173
  150loPI   C3A 2393   0.966  13.133   7.746 -0.1876  0.1980  0.2237
  150loPI   C4A 2394   0.584  13.082   7.425  0.0519  0.0896 -0.2263
  150loPI   C5A 2395   0.477  13.198   7.006 -0.0597  0.1670 -0.2504
  150loPI   C6A 2396   0.105  13.368   6.873 -0.1212  0.0303  0.0326
  150loPI   C1B 2397   1.658  12.885   8.523 -0.3662 -0.0622 -0.0474
  150loPI   C2B 2398   1.900  12.785   8.213 -0.0205  0.0503 -0.2832
  150loPI   C3B 2399   1.907  12.838   7.754  0.0125  0.3769  0.1330
  150loPI   C4B 2400   1.831  12.567   7.377 -0.3424 -0.0229 -0.1048
  151loPI    C1 2401  10.145   6.709  10.313 -0.5142 -0.1721  0.0933
  151loPI    C2 2402  10.223   6.475  10.628  0.1890 -0.0985 -0.0089
  151loPI    C3 2403  10.273   6.870  10.656 -0.0030 -0.0633 -0.1386
  151loPI   PO4 2404   9.916   6.586  10.226  0.3164  0.1758 -0.2681
  151loPI   GL1 2405   9.684   6.405   9.844 -0.0782 -0.0775  0.0243
  151loPI   GL2 2406   9.611   6.703   9.812  0.4463 -0.1904  0.2446
  151loPI   C1A 2407   9.668   6.437   9.415  0.0258  0.2218 -0.0557
  151loPI   C2A 2408   9.683   6.336   8.919 -0.0616  0.1109 -0.1388
  151loPI   C3A 2409   9.773   6.472   8.546  0.1849  0.0998 -0.1406
  151loPI   C4A 2410   9.929   6.346   8.155  0.1611  0.1977  0.2654
  151loPI   C5A 2411  10.022   6.039   7.957  0.3005  0.0032 -0.2656
  151loPI   C6A 2412  10.364   5.858   7.748 -0.1424  0.0040  0.3086
  151loPI   C1B 2413   9.656   6.927   9.461  0.2670  0.0091  0.3312
  151loPI   C2B 2414   9.740   6.824   9.020 -0.0531 -0.0799  0.0197
  151loPI   C3B 2415   9.849   6.959   8.645 -0.0289  0.0368 -0.1247
  151loPI   C4B 2416  10.088   6.836   8.223 -0.0902  0.1660 -0.1222
  152loPI    C1 2417   0.522  12.431   9.751 -0.3906 -0.4199 -0.2844
  152loPI    C2 2418   0.441  12.736   9.504  0.1182 -0.0241  0.0171
  152loPI    C3 2419   0.320  12.750   9.885  0.2562 -0.1389  0.0661
  152loPI   PO4 2420   0.746  12.342   9.649  0.1375 -0.3636 -0.1866
  152loPI   GL1 2421   0.738  12.340   9.123 -0.2639  0.1729 -0.0761
  152loPI   GL2 2422   0.438  12.343   9.074  0.1548  0.2462  0.0062
  152loPI   C1A 2423   0.781  12.543   8.750 -0.0275  0.0493  0.0315
  152loPI   C2A 2424   0.609  12.781   8.461  0.0227 -0.1015  0.3383
  152loPI   C3A 2425   0.582  12.855   7.987  0.0212  0.1817  0.2202
  152loPI   C4A 2426   0.565  12.558   7.581  0.0750  0.0268 -0.3213
  152loPI   C5A 2427   0.342  12.285   7.480  0.2982 -0.0961  0.0123
  152loPI   C6A 2428   0.243  12.179   7.093 -0.3369  0.0547 -0.4347
  152loPI   C1B 2429   0.251  12.449   8.737  0.0349 -0.1111  0.4422
  152loPI   C2B 2430   0.043  12.670   8.408 -0.1090  0.0896  0.1703
  152loPI   C3B 2431   0.101  12.937   8.106  0.1497  0.0236  0.5520
  152loPI   C4B 2432   0.162  12.944   7.685 -0.1095  0.3578 -0.1967
  153loPI    C1 2433  16.166  10.844   9.513 -0.0086 -0.0634  0.0638
  153loPI    C2 2434  15.846  10.706   9.711  0.0160 -0.1588  0.0379
  153loPI    C3 2435  16.048  11.022   9.852 -0.1601 -0.0238 -0.0088
  153loPI   PO4 2436  16.017  10.842   9.221  0.0128  0.2305 -0.2374
  153loPI   GL1 2437  15.978  10.650   8.900  0.1706  0.0767  0.2991
  153loPI   GL2 2438  16.181  10.631   8.694 -0.1774 -0.3160  0.0101
  153loPI   C1A 2439  15.667  10.878   8.620  0.4070  0.0961  0.4376
  153loPI   C2A 2440  15.267  10.775   8.395  0.2952  0.0638  0.4482
  153loPI   C3A 2441  15.161  10.852   7.956  0.1043 -0.1909  0.0094
  153loPI   C4A 2442  15.114  10.838   7.486  0.5307 -0.1486  0.0093
  153loPI   C5A 2443  14.912  10.953   7.143 -0.0502  0.1350 -0.0101
  153loPI   C6A 2444  14.627  11.247   6.994  0.0361  0.3178  0.2704
  153loPI   C1B 2445  16.016  10.883   8.246 -0.0345 -0.0792 -0.0280
  153loPI   C2B 2446  16.049  10.954   7.797  0.0886 -0.2543 -0.0232
  153loPI   C3B 2447  15.945  10.950   7.429 -0.2708 -0.0540  0.0620
  153loPI   C4B 2448  15.799  11.014   6.997 -0.0391  0.2545  0.0043
  154loPI    C1 2449   9.469  16.441  10.040  0.1073  0.1388 -0.1568
  154loPI    C2 2450   9.289  16.715  10.269 -0.1983 -0.2412  0.0711
  154loPI    C3 2451   9.452  16.390  10.437  0.2943 -0.1344 -0.1810
  154loPI   PO4 2452   9.577  16.548   9.817 -0.0617  0.0600  0.3637
  154loPI   GL1 2453   9.843  16.779   9.566  0.1633 -0.1659 -0.0390
  154loPI   GL2 2454  10.009  17.011   9.381  0.4239 -0.0820 -0.0260
  154loPI   C1A 2455   9.660  16.501   9.209  0.0623 -0.0096 -0.2174
  154loPI   C2A 2456   9.590  16.470   8.802  0.0069 -0.2881  0.1909
  154loPI   C3A 2457   9.577  16.478   8.283 -0.1990  0.0864 -0.0410
  154loPI   C4A 2458   9.642  16.482   7.862  0.0637 -0.0008  0.0177
  154loPI   C5A 2459   9.725  16.677   7.451 -0.5060 -0.0854  0.3722
  154loPI   C6A 2460   9.497  16.690   7.123 -0.1428  0.0736 -0.0421
  154loPI   C1B 2461   9.694  17.119   9.146  0.1339  0.0014  0.2203
  154loPI   C2B 2462   9.587  17.286   8.774 -0.0671  0.0459 -0.0982
  154loPI   C3B 2463   9.486  17.257   8.303  0.0094  0.4340  0.0359
  154loPI   C4B 2464   9.414  17.094   7.926  0.1271  0.1753  0.0000
  155loPI    C1 2465   6.320   0.262   9.981 -0.0200 -0.0803  0.1566
  155loPI    C2 2466   6.304   0.367  10.367 -0.3147 -0.0520  0.1391
  155loPI    C3 2467   6.246  -0.014  10.260 -0.1683 -0.0714  0.1271
  155loPI   PO4 2468   6.428   0.578   9.927  0.0301  0.1217  0.0440
  155loPI   GL1 2469   6.270   0.855   9.661  0.1855  0.1864 -0.3259
  155loPI   GL2 2470   6.062   0.631   9.483 -0.2044 -0.0873 -0.1123
  155loPI   C1A 2471   6.305   0.957   9.138  0.0253  0.0992  0.0334
  155loPI   C2A 2472   6.203   0.875   8.671 -0.0139  0.3430  0.2271
  155loPI   C3A 2473   6.159   0.845   8.282  0.1307  0.0882  0.1747
  155loPI   C4A 2474   6.369   0.711   7.912  0.0374 -0.1418 -0.4149
  155loPI   C5A 2475   6.217   0.611   7.673  0.2171 -0.2282 -0.2519
  155loPI   C6A 2476   6.014   0.406   7.311  0.0504  0.1767  0.3640
  155loPI   C1B 2477   5.815   0.895   9.061 -0.2471  0.1133  0.0180
  155loPI   C2B 2478   5.741   0.800   8.580  0.0405 -0.4841  0.2597
  155loPI   C3B 2479   5.763   0.622   8.126  0.2335  0.5147 -0.1548
  155loPI   C4B 2480   5.798   0.361   7.799  0.5406 -0.2203  0.0551
  156loPI    C1 2481   0.809   7.410  10.298  0.1894 -0.0890 -0.0183
  156loPI    C2 2482   0.474   7.190  10.303  0.1489 -0.0265  0.0457
  156loPI    C3 2483   0.489   7.537  10.502  0.2077  0.0365 -0.0668
  156loPI   PO4 2484   0.823   7.460   9.947 -0.0944  0.1946  0.0196
  156loPI   GL1 2485   0.994   7.522   9.567  0.3223 -0.1581  0.1749
  156loPI   GL2 2486   1.260   7.406   9.446  0.0463 -0.1653 -0.2535
  156loPI   C1A 2487   0.781   7.563   9.131  0.0592  0.0199  0.0343
  156loPI   C2A 2488   0.655   7.280   8.786  0.0514  0.2538  0.1115
  156loPI   C3A 2489   0.754   7.235   8.283  0.0690  0.0518  0.0059
  156loPI   C4A 2490   0.965   6.957   7.971  0.1204 -0.0094  0.1113
  156loPI   C5A 2491   0.945   6.500   7.719 -0.2264  0.1140 -0.0477
  156loPI   C6A 2492   1.080   6.163   7.790  0.1749 -0.1442  0.1711
  156loPI   C1B 2493   1.210   7.497   8.988  0.0714  0.2362 -0.2095
  156loPI   C2B 2494   1.119   7.484   8.526  0.3098 -0.2202  0.1961
  156loPI   C3B 2495   1.123   7.481   8.060 -0.2328  0.2009  0.1459
  156loPI   C4B 2496   1.297   7.221   7.694  0.0959  0.2148 -0.1751
  157loPI    C1 2497  13.741  10.393   9.873  0.0940  0.4461 -0.0691
  157loPI    C2 2498  13.644  10.378  10.261 -0.0271  0.1241 -0.1096
  157loPI    C3 2499  13.951  10.604  10.141  0.2070 -0.0133  0.2156
  157loPI   PO4 2500  13.724  10.192   9.733 -0.1477 -0.1696 -0.1709
  157loPI   GL1 2501  13.897  10.156   9.345  0.0645 -0.0248  0.0753
  157loPI   GL2 2502  13.695   9.922   9.095 -0.3079 -0.1814  0.0737
  157loPI   C1A 2503  13.934  10.376   8.853  0.0120 -0.1842  0.1519
  157loPI   C2A 2504  13.669  10.437   8.541  0.0581  0.3351  0.1324
  157loPI   C3A 2505  13.506  10.227   8.086 -0.2789 -0.1396 -0.1116
  157loPI   C4A 2506  13.320  10.407   7.836  0.1787  0.0027  0.1957
  157loPI   C5A 2507  13.251  10.486   7.440  0.2331 -0.1717 -0.1558
  157loPI   C6A 2508  13.488  10.424   7.083  0.0880  0.0784  0.1131
  157loPI   C1B 2509  13.773   9.873   8.663  0.0548  0.2822  0.1064
  157loPI   C2B 2510  13.809   9.811   8.173 -0.0878  0.1412 -0.2015
  157loPI   C3B 2511  13.621   9.654   7.790 -0.0180  0.1405 -0.3949
  157loPI   C4B 2512  13.273   9.478   7.725  0.1068  0.0755 -0.0054
  158loPI    C1 2513   7.935  14.681  10.234  0.2103  0.0227 -0.1459
  158loPI    C2 2514   8.094  14.849  10.561 -0.1217 -0.1881  0.1298
  158loPI    C3 2515   8.177  14.468  10.472 -0.0442 -0.1356 -0.0251
  158loPI   PO4 2516   7.999  14.939  10.029  0.0486  0.0543 -0.1488
  158loPI   GL1 2517   8.001  14.809   9.516  0.0931 -0.1416 -0.0904
  158loPI   GL2 2518   8.043  15.181   9.574 -0.0716  0.0440 -0.0723
  158loPI   C1A 2519   7.959  14.754   9.068 -0.1675 -0.1472 -0.1429
  158loPI   C2A 2520   7.737  14.713   8.656 -0.2243 -0.1057 -0.1732
  158loPI   C3A 2521   7.736  14.662   8.162 -0.0085  0.0074  0.3116
  158loPI   C4A 2522   7.791  14.792   7.684  0.0739  0.1577  0.0261
  158loPI   C5A 2523   7.837  15.166   7.471  0.2135 -0.1466  0.1397
  158loPI   C6A 2524   7.778  15.312   7.158 -0.1428  0.1208 -0.2124
  158loPI   C1B 2525   8.200  15.555   9.227 -0.1326  0.0577 -0.0201
  158loPI   C2B 2526   8.547  15.581   9.003  0.1661 -0.3511 -0.3496
  158loPI   C3B 2527   8.431  15.517   8.557  0.0502  0.0437 -0.1694
  158loPI   C4B 2528   8.420  15.519   8.187 -0.3270  0.0327  0.1848
  159loPI    C1 2529   3.260  15.305   9.768 -0.1579  0.0813  0.1793
  159loPI    C2 2530   3.391  15.010  10.004 -0.0037  0.2801  0.3456
  159loPI    C3 2531   3.154  15.296  10.154 -0.4902  0.0226  0.0895
  159loPI   PO4 2532   3.393  15.299   9.550 -0.1718 -0.2856 -0.1114
  159loPI   GL1 2533   3.641  15.105   9.234  0.2675  0.1882  0.0061
  159loPI   GL2 2534   3.906  15.198   9.223  0.1424  0.1010 -0.2040
  159loPI   C1A 2535   3.589  15.048   8.711 -0.1451 -0.1808 -0.2117
  159loPI   C2A 2536   3.730  15.250   8.263 -0.2459 -0.0375  0.1217
  159loPI   C3A 2537   3.901  15.175   7.806  0.2148  0.1971 -0.2087
  159loPI   C4A 2538   3.882  15.442   7.324  0.0652 -0.1140 -0.1735
  159loPI   C5A 2539   4.016  15.839   7.311  0.1226  0.2707 -0.1329
  159loPI   C6A 2540   3.999  16.084   7.584 -0.2448 -0.0476 -0.0193
  159loPI   C1B 2541   3.840  15.524   8.824 -0.1002  0.2316  0.0554
  159loPI   C2B 2542   3.937  15.680   8.451  0.1117 -0.1289  0.2472
  159loPI   C3B 2543   4.248  15.385   8.260 -0.3066  0.1897 -0.2777
  159loPI   C4B 2544   4.541  15.172   7.954  0.1938  0.0623  0.3064
  160loPI    C1 2545  16.150  13.611   9.249  0.1796  0.0216 -0.1495
  160loPI    C2 2546  15.762  13.647   9.338  0.2019  0.1574 -0.1051
  160loPI    C3 2547  16.038  13.793   9.587  0.2822  0.0459 -0.1282
  160loPI   PO4 2548  16.161  13.301   9.134 -0.3493  0.0861  0.4071
  160loPI   GL1 2549  16.066  13.099   8.763 -0.0858 -0.1603  0.3175
  160loPI   GL2 2550  16.325  12.997   8.753 -0.0452  0.0445  0.2550
  160loPI   C1A 2551  16.082  13.363   8.435  0.2199  0.3267  0.2533
  160loPI   C2A 2552  16.013  13.519   8.027 -0.1230 -0.2255  0.1268
  160loPI   C3A 2553  16.130  13.293   7.605 -0.0448 -0.1317  0.1615
  160loPI   C4A 2554  15.938  12.991   7.581 -0.2558 -0.0446 -0.1124
  160loPI   C5A 2555  15.546  12.849   7.549 -0.1211 -0.0438  0.3024
  160loPI   C6A 2556  15.261  12.569   7.595  0.0120  0.2175 -0.0165
  160loPI   C1B 2557  16.331  12.987   8.277  0.0930  0.0595 -0.0899
  160loPI   C2B 2558  16.362  12.881   7.833 -0.0745 -0.0194 -0.0484
  160loPI   C3B 2559  16.405  12.910   7.452  0.0488 -0.0154  0.2043
  160loPI   C4B 2560  16.190  12.929   7.102 -0.2459  0.0093 -0.1288
  161loPI    C1 2561  10.660  10.934  10.252  0.0287  0.0397  0.0334
  161loPI    C2 2562  11.018  10.787  10.154 -0.0211 -0.1574  0.1414
  161loPI    C3 2563  10.965  10.966  10.508  0.0312  0.0956  0.0232
  161loPI   PO4 2564  10.620  10.964  10.001  0.2323 -0.2553 -0.0180
  161loPI   GL1 2565  10.927  11.013   9.689 -0.0033 -0.2224 -0.0680
  161loPI   GL2 2566  10.773  11.258   9.598 -0.2733  0.2630 -0.2154
  161loPI   C1A 2567  10.945  11.078   9.183 -0.0381  0.0030 -0.2509
  161loPI   C2A 2568  11.077  11.177   8.844  0.1022  0.2696  0.1012
  161loPI   C3A 2569  10.935  11.379   8.462 -0.0953  0.0654 -0.2474
  161loPI   C4A 2570  10.827  11.673   8.261 -0.1639  0.3583 -0.1484
  161loPI   C5A 2571  10.981  11.953   7.936 -0.3950 -0.3434  0.1669
  161loPI   C6A 2572  11.038  11.641   7.538 -0.0615  0.0673 -0.0241
  161loPI   C1B 2573  10.517  11.296   9.311  0.3019 -0.0500  0.2990
  161loPI   C2B 2574  10.598  11.508   8.882  0.1026  0.0338 -0.0516
  161loPI   C3B 2575  10.444  11.428   8.488  0.2918 -0.2386 -0.2469
  161loPI   C4B 2576  10.238  11.373   8.078  0.3307 -0.0385  0.1381
  162loPI    C1 2577  13.130  12.978   9.808  0.1526  0.0178 -0.0236
  162loPI    C2 2578  13.314  12.813  10.123  0.1393 -0.0630 -0.0579
  162loPI    C3 2579  13.014  13.072  10.179  0.2815  0.0914 -0.0014
  162loPI   PO4 2580  13.198  13.171   9.652 -0.1551 -0.1620  0.0342
  162loPI   GL1 2581  13.088  13.294   9.246  0.0553 -0.0428  0.1470
  162loPI   GL2 2582  12.856  13.328   9.301 -0.0961 -0.1377  0.1414
  162loPI   C1A 2583  13.078  13.140   8.877 -0.2598  0.1639  0.1155
  162loPI   C2A 2584  13.018  13.134   8.423  0.0843 -0.1116  0.4251
  162loPI   C3A 2585  13.069  12.966   7.993  0.2058 -0.1273  0.3199
  162loPI   C4A 2586  12.958  12.820   7.610  0.0053 -0.1307  0.2449
  162loPI   C5A 2587  12.512  12.882   7.346 -0.0590 -0.0485  0.3026
  162loPI   C6A 2588  12.698  12.953   6.891  0.2876 -0.1972  0.2405
  162loPI   C1B 2589  12.561  13.384   8.964  0.0018  0.3165  0.0922
  162loPI   C2B 2590  12.589  13.367   8.541 -0.0793 -0.2767  0.0265
  162loPI   C3B 2591  12.590  13.256   8.087 -0.2175 -0.2648  0.1917
  162loPI   C4B 2592  12.543  13.034   7.803 -0.4160  0.2669 -0.0901
  163loPI    C1 2593  11.653   5.612   9.893 -0.0329 -0.0752  0.1106
  163loPI    C2 2594  11.677   6.011   9.910  0.3032 -0.0864 -0.0242
  163loPI    C3 2595  11.603   5.800  10.242  0.0902  0.0884  0.0414
  163loPI   PO4 2596  11.897   5.566   9.830 -0.0158  0.2280 -0.0823
  163loPI   GL1 2597  12.211   5.524   9.495  0.0939  0.1600  0.0830
  163loPI   GL2 2598  12.601   5.570   9.483  0.0086 -0.1858  0.0845
  163loPI   C1A 2599  12.043   5.666   9.051 -0.0824 -0.1151 -0.1096
  163loPI   C2A 2600  12.119   5.642   8.550  0.0631  0.0009  0.0074
  163loPI   C3A 2601  12.106   5.595   8.107 -0.1498 -0.0436 -0.0587
  163loPI   C4A 2602  12.224   5.762   7.713  0.3919  0.0743 -0.0462
  163loPI   C5A 2603  12.677   5.901   7.472  0.0758  0.3541 -0.0414
  163loPI   C6A 2604  12.849   6.032   7.166 -0.0971  0.2516  0.0367
  163loPI   C1B 2605  12.541   5.516   9.023 -0.1725  0.0426 -0.1037
  163loPI   C2B 2606  12.550   5.450   8.480 -0.3272 -0.0973  0.0958
  163loPI   C3B 2607  12.622   5.561   8.094  0.2411  0.5031 -0.1514
  163loPI   C4B 2608  12.591   5.377   7.674  0.0369 -0.1174  0.1402
  164loPI    C1 2609  10.320  14.517  10.153 -0.2486  0.0529 -0.1396
  164loPI    C2 2610  10.322  14.756  10.474  0.0077 -0.1123 -0.0141
  164loPI    C3 2611  10.053  14.460  10.445 -0.0661 -0.0479  0.0102
  164loPI   PO4 2612  10.366  14.711   9.964 -0.1478  0.0806  0.2179
  164loPI   GL1 2613  10.151  14.558   9.608 -0.4140  0.0317 -0.0627
  164loPI   GL2 2614   9.884  14.603   9.528 -0.1564 -0.2017 -0.0723
  164loPI   C1A 2615  10.157  14.763   9.144  0.0711 -0.1594 -0.0602
  164loPI   C2A 2616   9.931  14.550   8.890 -0.4638  0.0320 -0.0675
  164loPI   C3A 2617   9.895  14.346   8.471 -0.1000 -0.0875 -0.0735
  164loPI   C4A 2618  10.144  14.222   8.059  0.1312 -0.1094 -0.1097
  164loPI   C5A 2619  10.498  14.370   7.914  0.0578  0.3045  0.0655
  164loPI   C6A 2620  10.619  14.272   7.482 -0.1908  0.1419  0.2325
  164loPI   C1B 2621   9.936  14.232   9.273  0.1541 -0.3376  0.1695
  164loPI   C2B 2622  10.083  14.030   8.773  0.2753  0.0929  0.4032
  164loPI   C3B 2623  10.001  13.712   8.350 -0.0166  0.1522  0.2336
  164loPI   C4B 2624   9.996  13.554   7.969  0.0264  0.1353  0.0973
  165loPI    C1 2625   2.374  15.636   9.938 -0.1075 -0.1350 -0.1002
  165loPI    C2 2626   2.001  15.777   9.967  0.0366  0.2249  0.0694
  165loPI    C3 2627   2.169  15.590  10.278 -0.1022 -0.2046 -0.1064
  165loPI   PO4 2628   2.392  15.490   9.610  0.1022  0.3702 -0.3764
  165loPI   GL1 2629   2.529  15.492   9.110  0.1198  0.0460  0.2307
  165loPI   GL2 2630   2.271  15.584   8.856  0.1040  0.2902 -0.1477
  165loPI   C1A 2631   2.670  15.428   8.701 -0.3684 -0.0380 -0.0187
  165loPI   C2A 2632   2.693  15.193   8.306 -0.2998 -0.0754 -0.0868
  165loPI   C3A 2633   2.564  15.109   7.901 -0.1320 -0.0036  0.0567
  165loPI   C4A 2634   2.314  15.019   7.698 -0.0006 -0.1634  0.1878
  165loPI   C5A 2635   2.201  15.219   7.349 -0.3090  0.1232  0.1505
  165loPI   C6A 2636   2.527  15.284   7.068 -0.0922  0.1656  0.0737
  165loPI   C1B 2637   2.430  15.680   8.373  0.2458  0.0821 -0.1584
  165loPI   C2B 2638   2.645  16.000   8.090 -0.2397  0.1369  0.0526
  165loPI   C3B 2639   2.757  15.977   7.609  0.0368 -0.1747 -0.0449
  165loPI   C4B 2640   3.000  15.680   7.290  0.2352 -0.2886 -0.1369
  166loPI    C1 2641   6.136  15.579  10.277  0.1414  0.1230  0.2078
  166loPI    C2 2642   6.331  15.275  10.104 -0.2413 -0.0381  0.0484
  166loPI    C3 2643   6.144  15.220  10.453 -0.1579  0.0664  0.1104
  166loPI   PO4 2644   6.104  15.662   9.934  0.1008  0.0108 -0.2738
  166loPI   GL1 2645   6.070  15.657   9.555  0.1889 -0.1381  0.1895
  166loPI   GL2 2646   5.991  15.966   9.496 -0.1464  0.1191 -0.3188
  166loPI   C1A 2647   6.351  15.680   9.139  0.2076  0.0775 -0.2438
  166loPI   C2A 2648   6.650  15.412   8.874 -0.1059  0.0226  0.0655
  166loPI   C3A 2649   6.552  15.273   8.410  0.0195  0.1158 -0.0793
  166loPI   C4A 2650   6.508  15.549   7.992 -0.2508  0.2955  0.0100
  166loPI   C5A 2651   6.294  15.437   7.633 -0.3351  0.2805  0.1339
  166loPI   C6A 2652   6.091  15.584   7.293  0.2954  0.1495 -0.2079
  166loPI   C1B 2653   6.018  16.113   9.087 -0.1164 -0.0225  0.0096
  166loPI   C2B 2654   6.042  16.261   8.691 -0.0618 -0.1480  0.2048
  166loPI   C3B 2655   5.872  16.087   8.286  0.0201 -0.1806 -0.0018
  166loPI   C4B 2656   5.716  16.120   7.843  0.2914 -0.1285 -0.1669
  167loPI    C1 2657   8.727  11.211   9.854  0.0327  0.0316 -0.2759
  167loPI    C2 2658   8.749  11.245  10.252  0.0259  0.0997 -0.2814
  167loPI    C3 2659   8.804  10.889  10.079 -0.0758  0.0497 -0.2120
  167loPI   PO4 2660   8.716  11.461   9.789  0.0447  0.2965 -0.3067
  167loPI   GL1 2661   9.029  11.552   9.448 -0.2763  0.2405 -0.0245
  167loPI   GL2 2662   8.759  11.625   9.350 -0.0693 -0.2592 -0.1059
  167loPI   C1A 2663   9.133  11.574   8.929  0.0499  0.3760 -0.3409
  167loPI   C2A 2664   9.177  11.438   8.446  0.1555  0.1735  0.3467
  167loPI   C3A 2665   9.486  11.255   8.196 -0.2180  0.3556  0.0471
  167loPI   C4A 2666   9.783  11.114   7.974 -0.1011 -0.1076 -0.3658
  167loPI   C5A 2667   9.962  11.200   7.689 -0.3914  0.0301 -0.1386
  167loPI   C6A 2668  10.341  11.323   7.405 -0.3272 -0.3314 -0.0044
  167loPI   C1B 2669   8.657  11.740   8.914  0.3596 -0.1274  0.2537
  167loPI   C2B 2670   8.806  11.757   8.568 -0.1803  0.2487 -0.1192
  167loPI   C3B 2671   8.833  11.586   8.140 -0.3329 -0.1281  0.1716
  167loPI   C4B 2672   9.075  11.322   7.957 -0.1472  0.0364  0.0333
  168loPI    C1 2673  12.636   2.380   9.898  0.0472  0.0486 -0.0746
  168loPI    C2 2674  12.477   2.165  10.195 -0.1993  0.0690 -0.1890
  168loPI    C3 2675  12.542   2.556  10.245  0.0096  0.0205 -0.0705
  168loPI   PO4 2676  12.488   2.351   9.719 -0.0657  0.5373 -0.0813
  168loPI   GL1 2677  12.127   2.440   9.380 -0.0914  0.0097 -0.3712
  168loPI   GL2 2678  11.920   2.178   9.349  0.0203  0.0718  0.0039
  168loPI   C1A 2679  12.267   2.221   8.998  0.1231 -0.3021 -0.0107
  168loPI   C2A 2680  12.398   2.415   8.555  0.0390  0.4236 -0.0643
  168loPI   C3A 2681  12.583   2.316   8.183 -0.0718  0.1141 -0.4417
  168loPI   C4A 2682  12.519   2.167   7.871  0.0029 -0.1186  0.2503
  168loPI   C5A 2683  12.454   2.240   7.442  0.1689  0.0836  0.1851
  168loPI   C6A 2684  12.573   2.344   7.162  0.0558  0.1945 -0.1891
  168loPI   C1B 2685  11.749   2.306   8.913 -0.2736 -0.0007 -0.2537
  168loPI   C2B 2686  11.853   2.227   8.435  0.0339  0.0653 -0.4051
  168loPI   C3B 2687  12.115   2.484   8.114  0.0156  0.1336  0.2813
  168loPI   C4B 2688  12.425   2.698   7.753  0.1774  0.2907  0.0377
  169loPI    C1 2689  19.042   6.092  10.036  0.0312 -0.1295  0.1464
  169loPI    C2 2690  18.735   5.927  10.232 -0.1634  0.1241  0.0600
  169loPI    C3 2691  19.084   5.983  10.419 -0.2284  0.0114  0.2176
  169loPI   PO4 2692  18.938   6.318   9.937  0.0117  0.0229 -0.0619
  169loPI   GL1 2693  18.944   6.456   9.546 -0.3771  0.1826 -0.1831
  169loPI   GL2 2694  18.819   6.714   9.442  0.0158  0.2126 -0.1109
  169loPI   C1A 2695  19.058   6.335   9.143  0.1841 -0.0797 -0.1421
  169loPI   C2A 2696  19.046   6.467   8.688 -0.1787 -0.2079 -0.0070
  169loPI   C3A 2697  18.900   6.494   8.259  0.2423  0.0404  0.0133
  169loPI   C4A 2698  18.674   6.482   7.860 -0.0558  0.2479 -0.1608
  169loPI   C5A 2699  18.340   6.506   7.487  0.1402 -0.0169  0.0951
  169loPI   C6A 2700  17.937   6.249   7.493  0.0051 -0.1159 -0.2066
  169loPI   C1B 2701  18.760   7.057   9.181 -0.2700  0.1314 -0.3751
  169loPI   C2B 2702  18.532   7.288   8.821  0.0284 -0.0173 -0.0940
  169loPI   C3B 2703  18.478   7.205   8.376 -0.0661 -0.0083 -0.2453
  169loPI   C4B 2704  18.625   7.550   8.217  0.2913 -0.0625  0.2284
  170loPI    C1 2705   9.648  12.544  10.145 -0.1645  0.3006  0.0595
  170loPI    C2 2706   9.980  12.555  10.367 -0.0404  0.2507 -0.1223
  170loPI    C3 2707   9.655  12.755  10.485  0.0332  0.2479  0.0892
  170loPI   PO4 2708   9.678  12.545   9.966 -0.0325 -0.1032  0.1902
  170loPI   GL1 2709   9.710  12.391   9.522  0.3554 -0.1984 -0.4403
  170loPI   GL2 2710   9.915  12.620   9.390 -0.0085 -0.1716 -0.2167
  170loPI   C1A 2711   9.770  12.225   9.121  0.0532  0.0405 -0.0367
  170loPI   C2A 2712   9.750  12.261   8.695  0.0751 -0.0263  0.0075
  170loPI   C3A 2713   9.637  12.196   8.313 -0.0020 -0.4732 -0.1904
  170loPI   C4A 2714   9.554  12.161   7.880 -0.0276 -0.1649 -0.0604
  170loPI   C5A 2715   9.658  12.200   7.347  0.2224  0.1174 -0.1727
  170loPI   C6A 2716   9.881  12.154   6.961  0.3315  0.2276  0.0447
  170loPI   C1B 2717   9.964  12.665   8.951  0.4609 -0.1048  0.1916
  170loPI   C2B 2718   9.812  12.767   8.515  0.1746 -0.0333 -0.0010
  170loPI   C3B 2719   9.661  12.702   8.171 -0.0952 -0.0837  0.0060
  170loPI   C4B 2720   9.738  12.547   7.711  0.0926 -0.1938  0.0666
  171loPI    C1 2721   1.384   2.886  10.230  0.0793 -0.1212  0.0722
  171loPI    C2 2722   1.738   2.788  10.388  0.0479  0.0904  0.2805
  171loPI    C3 2723   1.407   2.766  10.611 -0.0887 -0.2090  0.0558
  171loPI   PO4 2724   1.424   2.882   9.934  0.1491 -0.2021  0.0425
  171loPI   GL1 2725   1.657   3.070   9.727  0.0795  0.0802  0.2065
  171loPI   GL2 2726   1.671   3.247   9.421  0.1777 -0.1286 -0.2090
  171loPI   C1A 2727   1.960   2.875   9.395  0.0789 -0.0480 -0.0022
  171loPI   C2A 2728   2.220   2.872   8.963 -0.0264  0.0608  0.4393
  171loPI   C3A 2729   2.218   2.804   8.591 -0.0574  0.0303  0.0848
  171loPI   C4A 2730   2.528   2.556   8.392 -0.0812  0.2543 -0.0242
  171loPI   C5A 2731   2.724   2.520   7.946  0.2428 -0.1689 -0.2424
  171loPI   C6A 2732   2.605   2.439   7.480  0.3419  0.1865  0.3100
  171loPI   C1B 2733   1.830   3.164   9.011 -0.2528 -0.0247  0.1108
  171loPI   C2B 2734   1.880   3.220   8.648 -0.1151  0.2782  0.0622
  171loPI   C3B 2735   1.884   3.111   8.222 -0.0366 -0.0603  0.3755
  171loPI   C4B 2736   1.837   2.954   7.705 -0.1837 -0.2202 -0.0610
  172loPI    C1 2737  12.359  10.249   9.988  0.0057 -0.1010 -0.0398
  172loPI    C2 2738  12.070  10.438  10.190  0.4067  0.3549  0.1261
  172loPI    C3 2739  12.367  10.257  10.388  0.2251 -0.1429 -0.0420
  172loPI   PO4 2740  12.391  10.411   9.790  0.2062 -0.3765  0.1656
  172loPI   GL1 2741  12.229  10.466   9.447  0.4270 -0.1424  0.1628
  172loPI   GL2 2742  12.435  10.607   9.226 -0.2712  0.0244 -0.5184
  172loPI   C1A 2743  11.912  10.622   9.161  0.2685 -0.1795  0.1782
  172loPI   C2A 2744  11.687  10.728   8.747  0.1387  0.1214  0.2701
  172loPI   C3A 2745  11.663  10.623   8.229 -0.0340 -0.3311 -0.1447
  172loPI   C4A 2746  11.577  10.653   7.735  0.4095 -0.1275  0.3517
  172loPI   C5A 2747  11.311  10.469   7.485 -0.2395  0.2051 -0.1225
  172loPI   C6A 2748  11.214  10.636   7.116  0.0445  0.1576 -0.1820
  172loPI   C1B 2749  12.259  10.616   8.800 -0.3720 -0.0794 -0.1784
  172loPI   C2B 2750  12.112  10.785   8.386  0.1825  0.1018 -0.0256
  172loPI   C3B 2751  12.091  10.936   8.011  0.2180  0.1039  0.0563
  172loPI   C4B 2752  12.356  10.840   7.612 -0.1322  0.1474  0.2069
  173loPI    C1 2753  10.110   0.882   9.813 -0.2082 -0.0340 -0.1117
  173loPI    C2 2754   9.908   0.960  10.150  0.0341 -0.0333  0.0351
  173loPI    C3 2755   9.909   1.226   9.851  0.0634  0.1000  0.1524
  173loPI   PO4 2756  10.150   0.660   9.829 -0.5287 -0.0806 -0.1916
  173loPI   GL1 2757  10.301   0.428   9.407  0.1880 -0.3258 -0.1980
  173loPI   GL2 2758  10.152   0.817   9.344 -0.1753 -0.0264  0.3236
  173loPI   C1A 2759  10.399   0.404   8.965 -0.2476  0.3484 -0.0785
  173loPI   C2A 2760  10.448   0.424   8.540  0.1764  0.2146  0.1269
  173loPI   C3A 2761  10.445   0.492   8.175 -0.0156  0.0476  0.3029
  173loPI   C4A 2762  10.369   0.368   7.776  0.0020 -0.3542  0.0778
  173loPI   C5A 2763  10.595   0.259   7.359  0.0265 -0.3200 -0.1547
  173loPI   C6A 2764  10.960   0.480   7.032  0.4236 -0.4173  0.1423
  173loPI   C1B 2765  10.171   0.795   8.873  0.2911  0.0019 -0.1176
  173loPI   C2B 2766  10.017   0.763   8.421 -0.2116  0.1258 -0.2437
  173loPI   C3B 2767  10.018   0.654   7.975 -0.0175 -0.0007 -0.1308
  173loPI   C4B 2768   9.994   0.724   7.494  0.2453 -0.1114  0.2985
  174loPI    C1 2769  17.445   1.334   9.475 -0.0224  0.1181  0.1169
  174loPI    C2 2770  17.834   1.410   9.415 -0.0135  0.1195  0.1758
  174loPI    C3 2771  17.714   1.231   9.752 -0.0545  0.0378  0.1183
  174loPI   PO4 2772  17.399   1.386   9.263  0.0737 -0.2174  0.0705
  174loPI   GL1 2773  17.393   1.297   8.804 -0.0921 -0.1027  0.2482
  174loPI   GL2 2774  17.416   1.716   8.754 -0.1133 -0.0280 -0.1069
  174loPI   C1A 2775  17.213   1.346   8.399 -0.0049  0.3074 -0.1141
  174loPI   C2A 2776  17.171   1.549   7.997 -0.0126  0.0693  0.2832
  174loPI   C3A 2777  17.080   1.740   7.668  0.0282 -0.0453  0.0961
  174loPI   C4A 2778  16.983   1.963   7.332  0.0796 -0.2686 -0.1773
  174loPI   C5A 2779  17.156   1.953   6.962  0.1293  0.0439 -0.3802
  174loPI   C6A 2780  17.216   1.744   6.619  0.0262  0.3344  0.0527
  174loPI   C1B 2781  17.364   1.850   8.381 -0.3260  0.1851 -0.0115
  174loPI   C2B 2782  17.116   2.070   8.076  0.2399  0.0107  0.0843
  174loPI   C3B 2783  17.047   2.247   7.705  0.1519  0.1693 -0.0098
  174loPI   C4B 2784  16.846   2.433   7.366  0.2404 -0.1343 -0.0548
  175loPI    C1 2785   3.664   2.855  10.532 -0.0365 -0.1878 -0.1038
  175loPI    C2 2786   3.825   2.967  10.880  0.1238 -0.0206 -0.2302
  175loPI    C3 2787   3.479   2.767  10.876  0.1712 -0.1120  0.0289
  175loPI   PO4 2788   3.802   2.675  10.382 -0.1231  0.0917  0.3099
  175loPI   GL1 2789   4.011   2.637  10.015  0.0584 -0.0696 -0.0799
  175loPI   GL2 2790   3.701   2.462   9.889  0.3184 -0.1746 -0.0648
  175loPI   C1A 2791   4.068   3.008   9.782 -0.0023  0.3341 -0.0630
  175loPI   C2A 2792   4.164   3.120   9.332  0.0188 -0.0586 -0.2464
  175loPI   C3A 2793   4.239   2.888   8.936 -0.2209 -0.0454 -0.1311
  175loPI   C4A 2794   4.139   3.002   8.520 -0.2117 -0.1905  0.1118
  175loPI   C5A 2795   4.088   3.148   8.087  0.1337  0.0653  0.0808
  175loPI   C6A 2796   4.014   3.364   7.638 -0.0847  0.2263 -0.0703
  175loPI   C1B 2797   3.765   2.369   9.501 -0.1789 -0.1127 -0.1172
  175loPI   C2B 2798   3.892   2.515   9.040 -0.2422 -0.1175 -0.1604
  175loPI   C3B 2799   3.925   2.618   8.634  0.2752  0.0167 -0.4792
  175loPI   C4B 2800   3.915   2.582   8.198  0.1201  0.3044  0.3690
  176loPI    C1 2801  14.615   7.743  10.305  0.1628 -0.0023  0.2231
  176loPI    C2 2802  14.471   7.476  10.566  0.0444 -0.1623 -0.0027
  176loPI    C3 2803  14.791   7.697  10.661  0.0386 -0.2614  0.2532
  176loPI   PO4 2804  14.554   7.501  10.040  0.2453 -0.0869 -0.0835
  176loPI   GL1 2805  14.821   7.494   9.680  0.1671 -0.1913  0.0717
  176loPI   GL2 2806  14.813   7.844   9.640  0.0499 -0.0791  0.0399
  176loPI   C1A 2807  14.852   7.203   9.522  0.4504  0.2144 -0.3773
  176loPI   C2A 2808  14.804   7.176   9.026 -0.4432  0.1002  0.2167
  176loPI   C3A 2809  14.737   7.155   8.578 -0.2385 -0.1685  0.1254
  176loPI   C4A 2810  14.561   6.986   8.314 -0.0119  0.0679  0.2147
  176loPI   C5A 2811  14.469   7.178   7.841 -0.1991 -0.1605  0.2015
  176loPI   C6A 2812  14.581   7.595   7.525 -0.0355  0.2001 -0.1330
  176loPI   C1B 2813  14.981   7.798   9.277  0.0505 -0.0807  0.0635
  176loPI   C2B 2814  15.132   7.578   8.866 -0.2761 -0.2088  0.0395
  176loPI   C3B 2815  15.035   7.497   8.408  0.2966  0.1123 -0.0385
  176loPI   C4B 2816  14.923   7.282   8.036  0.0236  0.0536  0.1404
  177loPI    C1 2817   8.687   5.269  10.411 -0.2271 -0.0166  0.1114
  177loPI    C2 2818   8.738   4.873  10.437  0.2912  0.0574  0.3380
  177loPI    C3 2819   8.841   5.110  10.743  0.1559  0.3853  0.1361
  177loPI   PO4 2820   8.516   5.212  10.164  0.1923 -0.1577 -0.4283
  177loPI   GL1 2821   8.357   5.222   9.864  0.1892  0.1624  0.0928
  177loPI   GL2 2822   8.106   5.472   9.838  0.0051 -0.2161 -0.0257
  177loPI   C1A 2823   7.914   5.078   9.525  0.4746  0.0757 -0.2486
  177loPI   C2A 2824   7.819   5.338   9.090 -0.0375  0.0733  0.1120
  177loPI   C3A 2825   7.904   5.585   8.583 -0.4510  0.3384 -0.0982
  177loPI   C4A 2826   7.544   5.779   8.279 -0.1420 -0.1876  0.1055
  177loPI   C5A 2827   7.115   5.746   8.236 -0.1146 -0.1267 -0.3692
  177loPI   C6A 2828   7.116   5.351   8.148 -0.0270  0.0773 -0.1722
  177loPI   C1B 2829   8.225   5.432   9.384 -0.1375 -0.3793 -0.0717
  177loPI   C2B 2830   8.235   5.119   9.049 -0.3954  0.0872 -0.2656
  177loPI   C3B 2831   8.127   5.071   8.529  0.1001 -0.0697  0.1381
  177loPI   C4B 2832   7.897   4.845   8.145 -0.0735  0.2200 -0.0965
  178loPI    C1 2833   6.520   3.828  10.926  0.0352 -0.0299  0.4130
  178loPI    C2 2834   6.651   4.184  10.801 -0.0208 -0.0583  0.2710
  178loPI    C3 2835   6.335   4.162  11.045 -0.2162 -0.0244  0.0245
  178loPI   PO4 2836   6.524   3.672  10.787 -0.2013  0.0851 -0.0122
  178loPI   GL1 2837   6.726   3.700  10.347 -0.1377 -0.1839  0.1556
  178loPI   GL2 2838   6.971   3.950  10.315  0.1125  0.1598 -0.2185
  178loPI   C1A 2839   6.622   3.789   9.861 -0.0376  0.0860 -0.0158
  178loPI   C2A 2840   6.567   3.554   9.451  0.3168 -0.0050 -0.0702
  178loPI   C3A 2841   6.826   3.376   9.202 -0.0104  0.0842  0.3795
  178loPI   C4A 2842   7.045   3.228   8.736  0.2379  0.1294 -0.0457
  178loPI   C5A 2843   6.966   3.225   8.327  0.3575 -0.4954  0.0547
  178loPI   C6A 2844   6.725   3.268   7.964 -0.0976 -0.2484 -0.0909
  178loPI   C1B 2845   6.954   4.281   9.968  0.2330  0.1021 -0.0362
  178loPI   C2B 2846   6.707   4.262   9.545 -0.1967  0.1433 -0.1605
  178loPI   C3B 2847   6.576   4.029   9.234 -0.0800 -0.3845 -0.0748
  178loPI   C4B 2848   6.266   3.936   8.877  0.0394  0.3068  0.2425
  179loPI    C1 2849  11.063   2.763  10.043  0.2220  0.2236  0.0879
  179loPI    C2 2850  10.939   3.143  10.055 -0.1367  0.1075  0.1804
  179loPI    C3 2851  10.753   2.865  10.274  0.0431 -0.1452  0.0183
  179loPI   PO4 2852  11.172   2.814   9.803 -0.2693  0.0457 -0.0094
  179loPI   GL1 2853  11.012   2.676   9.476  0.4264  0.0588  0.0201
  179loPI   GL2 2854  11.009   2.450   9.254 -0.0312 -0.0410  0.1971
  179loPI   C1A 2855  10.984   2.902   9.084  0.2326  0.2871 -0.2115
  179loPI   C2A 2856  10.898   2.958   8.643 -0.2067  0.2683  0.1014
  179loPI   C3A 2857  10.842   3.039   8.178 -0.0600  0.2899 -0.2596
  179loPI   C4A 2858  11.098   3.152   7.893 -0.1814  0.0408  0.0834
  179loPI   C5A 2859  11.121   3.227   7.450 -0.1373 -0.1314  0.4421
  179loPI   C6A 2860  11.080   2.988   7.112  0.0819 -0.0118  0.1054
  179loPI   C1B 2861  10.829   2.484   8.814 -0.0762 -0.3883  0.1856
  179loPI   C2B 2862  10.749   2.538   8.409  0.4930  0.3331  0.1404
  179loPI   C3B 2863  10.362   2.504   8.087 -0.2700 -0.0596 -0.1427
  179loPI   C4B 2864  10.296   2.635   7.699 -0.1143 -0.1763 -0.1207
  180loPI    C1 2865   4.778  16.933   9.850  0.0161 -0.3519  0.2852
  180loPI    C2 2866   4.399  17.037   9.776  0.1468  0.1856  0.3285
  180loPI    C3 2867   4.492  16.847  10.116 -0.0789  0.0593  0.3217
  180loPI   PO4 2868   4.959  17.098   9.856  0.1291  0.4003  0.0080
  180loPI   GL1 2869   5.199  17.166   9.429  0.0234 -0.1973  0.3263
  180loPI   GL2 2870   4.803  17.432   9.428 -0.1196 -0.0968  0.0836
  180loPI   C1A 2871   5.377  17.075   9.134  0.2793 -0.0248  0.1804
  180loPI   C2A 2872   5.401  17.174   8.786 -0.2497 -0.1722  0.1141
  180loPI   C3A 2873   5.323  17.301   8.392 -0.0845  0.1149  0.0895
  180loPI   C4A 2874   5.426  17.467   7.895 -0.0535 -0.1682  0.1741
  180loPI   C5A 2875   5.220  17.680   7.561 -0.0221 -0.0037 -0.0601
  180loPI   C6A 2876   4.834  17.797   7.492 -0.0437  0.0902  0.2530
  180loPI   C1B 2877   4.763  17.820   9.070 -0.1759  0.0622  0.0446
  180loPI   C2B 2878   4.715  18.022   8.655 -0.0007 -0.0021 -0.0366
  180loPI   C3B 2879   4.807  18.086   8.267  0.2100  0.0426 -0.1666
  180loPI   C4B 2880   4.615  18.263   7.892  0.0289  0.0179 -0.2533
  181loPI    C1 2881  14.289  10.174   9.770  0.3177  0.1481 -0.1632
  181loPI    C2 2882  14.514  10.122  10.096  0.2724  0.2802 -0.1099
  181loPI    C3 2883  14.116  10.143  10.129  0.2643  0.2423 -0.1805
  181loPI   PO4 2884  14.451  10.184   9.573  0.0091  0.0167  0.0296
  181loPI   GL1 2885  14.401  10.384   9.121 -0.2440  0.3810 -0.1093
  181loPI   GL2 2886  14.557  10.668   9.040  0.2081  0.0894  0.3098
  181loPI   C1A 2887  14.381  10.411   8.612  0.1069  0.0213 -0.2060
  181loPI   C2A 2888  14.064  10.211   8.328  0.3629 -0.1611 -0.1223
  181loPI   C3A 2889  14.140  10.249   7.800  0.4526 -0.3110  0.1344
  181loPI   C4A 2890  14.012   9.973   7.471 -0.2355  0.2824  0.1418
  181loPI   C5A 2891  14.041   9.494   7.450  0.0022 -0.3787  0.0295
  181loPI   C6A 2892  14.104   9.140   7.291 -0.0369  0.0561 -0.0655
  181loPI   C1B 2893  14.688  10.935   8.604  0.2841  0.1761 -0.0398
  181loPI   C2B 2894  14.755  10.965   8.226 -0.4719 -0.3041  0.0217
  181loPI   C3B 2895  14.711  11.125   7.789 -0.0603 -0.3631  0.1436
  181loPI   C4B 2896  14.492  11.458   7.564  0.0516  0.2759 -0.2065
  182loPI    C1 2897  10.902   2.178  10.054  0.2764  0.0520  0.1391
  182loPI    C2 2898  11.114   1.855   9.949 -0.0220 -0.0771 -0.0810
  182loPI    C3 2899  10.966   1.886  10.320  0.0253 -0.1830 -0.0530
  182loPI   PO4 2900  10.816   2.237   9.795 -0.5174 -0.1133  0.0396
  182loPI   GL1 2901  10.519   2.308   9.422 -0.1138 -0.1025 -0.0530
  182loPI   GL2 2902  10.487   2.724   9.248  0.0527 -0.2556  0.0114
  182loPI   C1A 2903  10.446   1.887   9.277  0.0557 -0.2531 -0.1434
  182loPI   C2A 2904  10.312   1.919   8.774  0.1459 -0.0470 -0.0671
  182loPI   C3A 2905  10.139   1.831   8.431 -0.2953 -0.2370 -0.0159
  182loPI   C4A 2906  10.122   2.046   8.101 -0.0051 -0.0301  0.1623
  182loPI   C5A 2907  10.125   2.140   7.576 -0.0528  0.1185  0.0927
  182loPI   C6A 2908   9.953   2.130   7.172  0.0059 -0.2215 -0.0473
  182loPI   C1B 2909  10.514   2.943   8.875  0.0812  0.1501 -0.3067
  182loPI   C2B 2910  10.277   2.904   8.459 -0.0900 -0.2760  0.0942
  182loPI   C3B 2911  10.297   2.995   8.003 -0.3697 -0.1323  0.1391
  182loPI   C4B 2912  10.242   3.115   7.657 -0.1926 -0.0349  0.0919
  183loPI    C1 2913   5.078  10.091  10.105 -0.1748  0.1848 -0.2537
  183loPI    C2 2914   5.395   9.887   9.970 -0.1718 -0.0827  0.1411
  183loPI    C3 2915   5.447  10.193  10.222 -0.2102  0.0861 -0.0529
  183loPI   PO4 2916   4.968  10.135   9.882 -0.0492 -0.0507  0.1645
  183loPI   GL1 2917   5.103  10.046   9.495 -0.0843 -0.1646 -0.2475
  183loPI   GL2 2918   5.403   9.825   9.451 -0.0279  0.2123  0.0639
  183loPI   C1A 2919   4.893  10.190   9.165  0.1816 -0.1543 -0.4480
  183loPI   C2A 2920   4.716  10.209   8.805  0.4799  0.2421 -0.0533
  183loPI   C3A 2921   4.607  10.134   8.404  0.2113 -0.2405 -0.3073
  183loPI   C4A 2922   4.540   9.977   7.975  0.4297 -0.1120  0.4339
  183loPI   C5A 2923   4.519   9.976   7.473 -0.2991 -0.4697 -0.3182
  183loPI   C6A 2924   4.404  10.177   7.207 -0.0676 -0.3871  0.1960
  183loPI   C1B 2925   5.470   9.533   9.181  0.0983 -0.2293 -0.4081
  183loPI   C2B 2926   5.372   9.350   8.721 -0.0648 -0.1662  0.1315
  183loPI   C3B 2927   5.414   9.504   8.306 -0.2973  0.0249 -0.1273
  183loPI   C4B 2928   5.762   9.544   7.983  0.1118  0.2565  0.0798
  184loPI    C1 2929   0.724  17.756   9.220  0.3873  0.1080  0.0771
  184loPI    C2 2930   0.730  17.733   9.620  0.0950  0.0309  0.0790
  184loPI    C3 2931   0.716  17.399   9.400  0.0066  0.0794  0.0103
  184loPI   PO4 2932   0.970  17.832   9.120 -0.0690 -0.0020 -0.0578
  184loPI   GL1 2933   1.046  17.814   8.761 -0.1103 -0.0115 -0.1681
  184loPI   GL2 2934   0.714  17.800   8.696  0.2397  0.3556 -0.1374
  184loPI   C1A 2935   1.219  17.570   8.481 -0.1680 -0.1570  0.0982
  184loPI   C2A 2936   1.162  17.509   8.103 -0.1753  0.0075  0.1033
  184loPI   C3A 2937   1.194  17.691   7.614  0.3752 -0.0610 -0.1068
  184loPI   C4A 2938   1.294  17.736   7.167  0.0906 -0.2134 -0.4495
  184loPI   C5A 2939   1.289  17.596   6.849 -0.1771  0.0657 -0.3543
  184loPI   C6A 2940   1.627  17.723   6.656  0.3001  0.0948 -0.1659
  184loPI   C1B 2941   0.893  17.874   8.336 -0.2476 -0.1425  0.1541
  184loPI   C2B 2942   1.077  17.981   8.039 -0.1544  0.1840 -0.2905
  184loPI   C3B 2943   1.268  18.252   7.778 -0.1243 -0.1420  0.3187
  184loPI   C4B 2944   1.405  18.299   7.384 -0.0463  0.0398 -0.1267
  185loPI    C1 2945  14.742   6.505  10.295 -0.2024 -0.0400  0.3134
  185loPI    C2 2946  14.954   6.259  10.529  0.1588  0.1216  0.1643
  185loPI    C3 2947  14.952   6.653  10.602  0.2587  0.1708 -0.0898
  185loPI   PO4 2948  14.859   6.463  10.067 -0.3697 -0.2549  0.2915
  185loPI   GL1 2949  14.908   6.244   9.668  0.0227  0.3009 -0.2321
  185loPI   GL2 2950  14.922   5.907   9.613 -0.1094  0.2140  0.0118
  185loPI   C1A 2951  14.797   6.481   9.367  0.1509 -0.6558  0.2467
  185loPI   C2A 2952  15.017   6.729   9.090  0.1225  0.2217 -0.0922
  185loPI   C3A 2953  15.182   6.875   8.682 -0.0172  0.1039  0.0024
  185loPI   C4A 2954  15.050   6.813   8.243  0.0305  0.3295  0.2914
  185loPI   C5A 2955  15.191   6.800   7.845 -0.0318  0.1718  0.0226
  185loPI   C6A 2956  15.060   6.495   7.546  0.3458  0.0132 -0.5329
  185loPI   C1B 2957  15.129   6.003   9.215  0.0102 -0.3687 -0.2799
  185loPI   C2B 2958  14.972   5.939   8.851 -0.2647 -0.2531  0.1416
  185loPI   C3B 2959  14.923   5.760   8.460  0.3482  0.1664 -0.0995
  185loPI   C4B 2960  14.910   5.748   7.971  0.0470  0.1132  0.0596
  186loPI    C1 2961  18.025   3.871   9.927  0.0584 -0.1720  0.0500
  186loPI    C2 2962  18.012   4.047  10.286 -0.1078  0.1713 -0.1202
  186loPI    C3 2963  18.358   4.024  10.087  0.0064 -0.1144  0.1039
  186loPI   PO4 2964  17.867   4.033   9.792 -0.0461 -0.1702  0.3863
  186loPI   GL1 2965  17.674   4.098   9.326 -0.0075 -0.2093 -0.0201
  186loPI   GL2 2966  17.505   4.506   9.216 -0.4230 -0.1820  0.0440
  186loPI   C1A 2967  17.852   3.856   8.991  0.1364  0.1356  0.0638
  186loPI   C2A 2968  18.175   3.675   8.635 -0.2370 -0.0576  0.1083
  186loPI   C3A 2969  18.249   3.833   8.259 -0.2474 -0.1968 -0.0488
  186loPI   C4A 2970  18.084   3.745   7.883  0.0071  0.2718  0.0742
  186loPI   C5A 2971  18.075   3.704   7.403  0.0575  0.3699 -0.0873
  186loPI   C6A 2972  18.102   3.614   7.035 -0.2730  0.0170 -0.0583
  186loPI   C1B 2973  17.774   4.414   8.950 -0.2001  0.1209  0.0674
  186loPI   C2B 2974  17.951   4.186   8.488 -0.0113 -0.1526  0.0913
  186loPI   C3B 2975  17.948   4.392   8.087 -0.1451  0.0741  0.1368
  186loPI   C4B 2976  17.993   4.742   7.804 -0.2826  0.1370  0.0091
  187loPI    C1 2977   6.679  18.106  10.010 -0.1515  0.1239 -0.1504
  187loPI    C2 2978   6.838  18.430  10.182  0.0713 -0.0322 -0.0583
  187loPI    C3 2979   6.471  18.310  10.285 -0.0065  0.1808 -0.0819
  187loPI   PO4 2980   6.595  18.191   9.708 -0.1741  0.1903  0.2760
  187loPI   GL1 2981   6.277  17.990   9.517  0.1890  0.1986  0.2974
  187loPI   GL2 2982   6.121  17.756   9.397 -0.0354  0.2548 -0.1746
  187loPI   C1A 2983   6.292  18.103   8.963  0.1040  0.0911 -0.0192
  187loPI   C2A 2984   6.357  18.169   8.496 -0.1393 -0.0986  0.4130
  187loPI   C3A 2985   6.432  18.042   8.064 -0.2469 -0.1069  0.0884
  187loPI   C4A 2986   6.752  18.040   7.655 -0.1729  0.1717 -0.1584
  187loPI   C5A 2987   6.995  17.945   7.218 -0.1013  0.1579 -0.1175
  187loPI   C6A 2988   6.897  17.676   6.880  0.0363 -0.0684  0.4165
  187loPI   C1B 2989   6.056  17.653   8.989  0.1672 -0.3278 -0.1808
  187loPI   C2B 2990   6.105  17.707   8.644  0.1265 -0.3141 -0.0299
  187loPI   C3B 2991   6.264  17.612   8.268 -0.1528 -0.3386 -0.1501
  187loPI   C4B 2992   6.008  17.512   7.997 -0.4693  0.4144 -0.1650
  188loPI    C1 2993  10.352   2.125   9.857 -0.0282  0.0573  0.1857
  188loPI    C2 2994  10.432   1.987  10.224 -0.0500 -0.1144  0.1269
  188loPI    C3 2995  10.585   1.803   9.903 -0.2613 -0.1369  0.0372
  188loPI   PO4 2996  10.041   2.072   9.765  0.0376 -0.2605 -0.1412
  188loPI   GL1 2997   9.889   1.711   9.473  0.1967 -0.3483 -0.0324
  188loPI   GL2 2998   9.626   1.961   9.528  0.2285  0.0982 -0.0887
  188loPI   C1A 2999   9.977   1.767   9.069  0.1496 -0.1326  0.2640
  188loPI   C2A 3000   9.796   2.083   8.793  0.1572  0.0567 -0.2492
  188loPI   C3A 3001   9.753   2.141   8.387 -0.0299 -0.1424  0.1177
  188loPI   C4A 3002   9.688   2.217   7.952 -0.1750 -0.0971 -0.0720
  188loPI   C5A 3003   9.754   2.504   7.700 -0.0628 -0.1154  0.3708
  188loPI   C6A 3004   9.909   2.558   7.382 -0.0097 -0.0164 -0.2912
  188loPI   C1B 3005   9.479   2.085   9.196 -0.1843 -0.2431 -0.1192
  188loPI   C2B 3006   9.381   2.442   8.863  0.1656  0.0826 -0.0312
  188loPI   C3B 3007   9.360   2.502   8.360 -0.2831  0.0197  0.2062
  188loPI   C4B 3008   9.301   2.760   7.944 -0.2090  0.3902  0.1177
  189loPI    C1 3009   8.070   7.365  10.681 -0.2016 -0.1026  0.3727
  189loPI    C2 3010   8.264   7.531  10.989  0.1764  0.0216  0.0762
  189loPI    C3 3011   8.414   7.207  10.809  0.0219  0.0218 -0.0556
  189loPI   PO4 3012   8.057   7.615  10.481 -0.2176  0.2893 -0.0406
  189loPI   GL1 3013   7.677   7.596  10.306  0.3146  0.1207  0.0283
  189loPI   GL2 3014   7.576   7.809  10.486  0.0626 -0.2647 -0.0925
  189loPI   C1A 3015   7.686   7.786   9.859 -0.0639 -0.0895  0.1103
  189loPI   C2A 3016   7.580   7.835   9.451  0.2113 -0.1626  0.0713
  189loPI   C3A 3017   7.679   7.925   9.015 -0.0758  0.0923 -0.1211
  189loPI   C4A 3018   7.513   8.008   8.612  0.1200 -0.0335  0.0025
  189loPI   C5A 3019   7.542   7.960   8.082  0.2591 -0.1094 -0.0529
  189loPI   C6A 3020   7.139   7.698   7.865  0.0651  0.1444  0.0889
  189loPI   C1B 3021   7.238   7.964  10.156  0.0966  0.2697 -0.1556
  189loPI   C2B 3022   7.144   7.898   9.763  0.1302  0.0861 -0.0387
  189loPI   C3B 3023   6.756   7.732   9.711 -0.1156  0.1684 -0.2648
  189loPI   C4B 3024   6.406   7.595   9.840  0.3501  0.1280  0.0184
  190loPI    C1 3025  15.646   1.674   9.543  0.1687 -0.0827  0.1338
  190loPI    C2 3026  15.315   1.624   9.763 -0.1483  0.1239 -0.2809
  190loPI    C3 3027  15.515   1.306   9.628 -0.1644 -0.0027 -0.0138
  190loPI   PO4 3028  15.518   1.815   9.308 -0.0802  0.3862 -0.1250
  190loPI   GL1 3029  15.650   1.834   8.952 -0.1292 -0.0682  0.1898
  190loPI   GL2 3030  15.915   1.612   8.694  0.0775  0.0662 -0.1274
  190loPI   C1A 3031  15.461   1.768   8.504 -0.0011 -0.1027 -0.1627
  190loPI   C2A 3032  15.522   1.938   8.232 -0.2925  0.1313  0.1769
  190loPI   C3A 3033  15.604   2.136   7.762  0.1733 -0.1870  0.1180
  190loPI   C4A 3034  15.352   2.238   7.303 -0.0299  0.0216  0.1157
  190loPI   C5A 3035  15.428   1.964   6.918 -0.1331  0.1959  0.0664
  190loPI   C6A 3036  15.362   1.871   6.449 -0.1325 -0.1076 -0.0681
  190loPI   C1B 3037  15.887   1.611   8.356 -0.3164 -0.1475  0.2377
  190loPI   C2B 3038  15.790   1.628   7.859 -0.2276  0.0125 -0.0100
  190loPI   C3B 3039  15.392   1.659   7.690 -0.0009 -0.0875 -0.3083
  190loPI   C4B 3040  15.096   1.747   7.334  0.2335  0.1078  0.4893
  191loPI    C1 3041  10.569   5.707  10.454  0.0427  0.0945  0.0967
  191loPI    C2 3042  10.551   6.067  10.629  0.2404  0.1581 -0.0104
  191loPI    C3 3043  10.787   5.782  10.781 -0.0133  0.0293  0.1492
  191loPI   PO4 3044  10.368   5.773  10.189 -0.2823  0.0558 -0.2522
  191loPI   GL1 3045  10.095   5.951   9.954  0.0505  0.2139 -0.1021
  191loPI   GL2 3046  10.361   5.928   9.722  0.2245 -0.1521  0.0910
  191loPI   C1A 3047   9.837   5.964   9.646 -0.0042 -0.1716 -0.2848
  191loPI   C2A 3048   9.753   5.883   9.259 -0.2575 -0.1669  0.0489
  191loPI   C3A 3049   9.861   5.881   8.846  0.2123 -0.2255  0.0416
  191loPI   C4A 3050  10.010   5.976   8.470 -0.1034  0.1393 -0.1423
  191loPI   C5A 3051  10.323   5.703   8.290  0.1583  0.0971  0.3252
  191loPI   C6A 3052  10.444   5.329   8.212 -0.2455  0.3233 -0.0656
  191loPI   C1B 3053  10.317   5.864   9.310  0.0721 -0.1820 -0.3087
  191loPI   C2B 3054  10.362   5.985   8.789 -0.1133 -0.2045 -0.1558
  191loPI   C3B 3055  10.711   5.932   8.466  0.0648  0.1555 -0.1487
  191loPI   C4B 3056  10.763   6.019   8.020 -0.1331 -0.2040  0.0553
  192loPI    C1 3057   7.676  17.398  10.207 -0.2724  0.0251  0.0423
  192loPI    C2 3058   7.904  17.491  10.522 -0.2076  0.1337 -0.0356
  192loPI    C3 3059   7.640  17.191  10.547 -0.2951  0.2249  0.1634
  192loPI   PO4 3060   7.783  17.384   9.911 -0.2575  0.2523 -0.1890
  192loPI   GL1 3061   7.823  17.630   9.577 -0.2285 -0.0594  0.2418
  192loPI   GL2 3062   7.828  17.221   9.432 -0.0754 -0.1526 -0.1208
  192loPI   C1A 3063   7.859  17.651   9.101 -0.0196 -0.0652 -0.1813
  192loPI   C2A 3064   7.637  17.531   8.772  0.0067 -0.2041  0.2331
  192loPI   C3A 3065   7.679  17.514   8.317  0.3551  0.1301  0.0843
  192loPI   C4A 3066   7.734  17.442   7.874  0.0239 -0.1771  0.2629
  192loPI   C5A 3067   7.541  17.406   7.518 -0.1184  0.1032  0.0306
  192loPI   C6A 3068   7.299  17.076   7.389  0.3343 -0.1333  0.0899
  192loPI   C1B 3069   7.925  17.108   9.008  0.1771 -0.2093 -0.1101
  192loPI   C2B 3070   7.977  17.171   8.575  0.3684  0.4013  0.1518
  192loPI   C3B 3071   7.912  17.056   8.147  0.0804  0.0491  0.1175
  192loPI   C4B 3072   7.571  16.952   7.783 -0.3080 -0.0507  0.0167
  193loPI    C1 3073  11.644   8.678   9.964  0.2396  0.1673  0.0328
  193loPI    C2 3074  11.373   8.562  10.235  0.3195  0.0405  0.0593
  193loPI    C3 3075  11.521   8.934  10.246 -0.1222  0.2308 -0.1773
  193loPI   PO4 3076  11.512   8.598   9.744 -0.0301 -0.1223  0.2731
  193loPI   GL1 3077  11.309   8.483   9.363  0.0251  0.3795  0.1085
  193loPI   GL2 3078  11.557   8.313   9.353 -0.5843  0.0421  0.0512
  193loPI   C1A 3079  11.129   8.504   8.967 -0.0462  0.1669 -0.2451
  193loPI   C2A 3080  11.047   8.545   8.570 -0.2027 -0.0585  0.1502
  193loPI   C3A 3081  11.236   8.332   8.283  0.0456  0.1656  0.0205
  193loPI   C4A 3082  11.250   8.162   7.841  0.1763 -0.0526 -0.2188
  193loPI   C5A 3083  11.244   8.501   7.472 -0.2833  0.1954 -0.0544
  193loPI   C6A 3084  10.821   8.502   7.307  0.0314 -0.0546 -0.0013
  193loPI   C1B 3085  11.663   8.231   8.977 -0.1573 -0.0585 -0.2742
  193loPI   C2B 3086  11.524   8.144   8.603 -0.2728 -0.1199  0.0545
  193loPI   C3B 3087  11.467   7.874   8.258 -0.0066  0.3321  0.2539
  193loPI   C4B 3088  11.494   7.679   7.887  0.3197  0.2979 -0.0321
  194loPI    C1 3089   0.067   2.222   9.514 -0.0494 -0.1545  0.0812
  194loPI    C2 3090   0.175   2.495   9.786 -0.0499  0.0204 -0.0924
  194loPI    C3 3091   0.093   2.121   9.901  0.0036  0.0783  0.1402
  194loPI   PO4 3092   0.206   2.310   9.292  0.0203 -0.1893  0.2913
  194loPI   GL1 3093   0.166   2.265   8.874  0.1740  0.0836  0.3040
  194loPI   GL2 3094   0.329   2.354   8.584  0.0218  0.0806  0.1645
  194loPI   C1A 3095   0.331   1.877   8.638 -0.1822  0.2402 -0.0549
  194loPI   C2A 3096   0.189   1.623   8.223 -0.2476 -0.2213 -0.1773
  194loPI   C3A 3097   0.101   1.744   7.842 -0.1057  0.0548 -0.1243
  194loPI   C4A 3098   0.088   2.027   7.630 -0.2884 -0.3283 -0.0812
  194loPI   C5A 3099  -0.224   2.124   7.435  0.2718  0.2213 -0.0877
  194loPI   C6A 3100  -0.421   1.875   7.104  0.1621  0.0080 -0.1443
  194loPI   C1B 3101   0.149   2.645   8.280  0.0048  0.0733  0.1502
  194loPI   C2B 3102  -0.117   2.755   7.972  0.1902 -0.2513  0.3121
  194loPI   C3B 3103  -0.342   2.674   7.588  0.1055 -0.0846  0.1980
  194loPI   C4B 3104  -0.194   2.619   7.207 -0.0480  0.0949 -0.1828
  195loPI    C1 3105  11.905  12.372  10.019  0.1821  0.2523 -0.0106
  195loPI    C2 3106  11.720  12.583  10.304  0.0357  0.0992  0.0088
  195loPI    C3 3107  12.103  12.479  10.350  0.0148  0.0818  0.1466
  195loPI   PO4 3108  11.703  12.112   9.975  0.1723  0.1892 -0.2058
  195loPI   GL1 3109  11.318  12.081   9.710 -0.2504  0.2539  0.2288
  195loPI   GL2 3110  11.069  12.327   9.715  0.1879 -0.0499 -0.1285
  195loPI   C1A 3111  11.190  12.032   9.326  0.0227  0.3693 -0.0813
  195loPI   C2A 3112  10.803  12.096   8.948 -0.1009 -0.1645  0.1379
  195loPI   C3A 3113  10.617  12.002   8.594 -0.2335  0.2098 -0.1403
  195loPI   C4A 3114  10.601  12.298   8.216  0.1204  0.0860 -0.3310
  195loPI   C5A 3115  10.617  12.280   7.776 -0.5136  0.0071 -0.3513
  195loPI   C6A 3116  10.807  12.260   7.435  0.0923  0.0246 -0.3522
  195loPI   C1B 3117  10.944  12.435   9.362  0.1364  0.1450  0.2050
  195loPI   C2B 3118  11.153  12.677   9.104 -0.2649  0.0294 -0.0606
  195loPI   C3B 3119  11.118  12.936   8.711  0.2262 -0.0646 -0.1574
  195loPI   C4B 3120  11.311  12.891   8.212 -0.1424 -0.3365 -0.0136
  196loPI    C1 3121   8.793   6.953  10.640 -0.0606  0.1563  0.0037
  196loPI    C2 3122   9.069   7.192  10.804  0.0620 -0.0069  0.0386
  196loPI    C3 3123   8.819   6.985  11.037 -0.0050  0.0411  0.0100
  196loPI   PO4 3124   8.971   6.907  10.396 -0.2848  0.3488  0.0998
  196loPI   GL1 3125   8.813   6.526  10.193  0.0202  0.2213  0.1027
  196loPI   GL2 3126   8.494   6.723  10.347  0.0227 -0.0961 -0.1064
  196loPI   C1A 3127   8.682   6.305   9.864 -0.1838 -0.0201 -0.1682
  196loPI   C2A 3128   8.650   6.386   9.495  0.1829  0.0169  0.2805
  196loPI   C3A 3129   8.526   6.349   9.116 -0.1525  0.0590  0.2515
  196loPI   C4A 3130   8.353   6.711   8.809 -0.1333 -0.1942  0.0882
  196loPI   C5A 3131   8.375   6.876   8.373 -0.0516 -0.0997 -0.0667
  196loPI   C6A 3132   8.156   7.104   8.001  0.4938  0.1517  0.2337
  196loPI   C1B 3133   8.386   6.797   9.897 -0.2219  0.1832 -0.3544
  196loPI   C2B 3134   8.381   6.789   9.383 -0.0697 -0.0844 -0.3027
  196loPI   C3B 3135   8.751   6.829   9.118 -0.1891 -0.0484 -0.0473
  196loPI   C4B 3136   8.859   6.804   8.607  0.0512  0.1190 -0.1150
  197loPI    C1 3137  12.459  13.555   9.813  0.0418  0.0623  0.1225
  197loPI    C2 3138  12.833  13.419   9.854  0.0215 -0.0232  0.0275
  197loPI    C3 3139  12.713  13.741  10.059  0.0695 -0.1487  0.2553
  197loPI   PO4 3140  12.427  13.590   9.560 -0.1122  0.0911  0.0454
  197loPI   GL1 3141  12.232  13.640   9.239 -0.1054  0.0919  0.2395
  197loPI   GL2 3142  11.944  13.480   9.231 -0.3517 -0.0565 -0.0622
  197loPI   C1A 3143  12.227  13.644   8.769  0.1960  0.3258 -0.0873
  197loPI   C2A 3144  12.141  13.520   8.342  0.0855 -0.3858 -0.2043
  197loPI   C3A 3145  12.156  13.344   7.916 -0.0292 -0.1571 -0.1451
  197loPI   C4A 3146  12.055  13.119   7.583  0.2380 -0.1318 -0.2180
  197loPI   C5A 3147  11.770  13.037   7.354 -0.2433  0.0575  0.3574
  197loPI   C6A 3148  11.520  12.747   7.088 -0.2635 -0.1199 -0.2937
  197loPI   C1B 3149  11.739  13.503   8.916 -0.0845  0.2638 -0.2010
  197loPI   C2B 3150  11.666  13.602   8.541  0.0259  0.0456 -0.1264
  197loPI   C3B 3151  11.757  13.672   8.067  0.0461  0.1853  0.0531
  197loPI   C4B 3152  11.977  13.735   7.671  0.0790  0.1868 -0.0937
  198loPI    C1 3153   8.792   7.951   9.971  0.0010 -0.0285 -0.1816
  198loPI    C2 3154   8.953   8.312  10.028 -0.0164 -0.0197 -0.1879
  198loPI    C3 3155   9.061   8.006  10.262 -0.1719  0.0420 -0.0328
  198loPI   PO4 3156   8.479   8.061   9.993 -0.1134 -0.0398  0.2848
  198loPI   GL1 3157   8.201   7.753   9.801 -0.0934 -0.2162 -0.0223
  198loPI   GL2 3158   8.478   7.597   9.819  0.0338  0.1282 -0.1689
  198loPI   C1A 3159   8.074   7.468   9.389 -0.1933 -0.1254  0.2132
  198loPI   C2A 3160   8.027   7.522   9.098 -0.1249  0.0356 -0.0183
  198loPI   C3A 3161   7.671   7.491   8.674  0.0697  0.1497 -0.1450
  198loPI   C4A 3162   7.236   7.465   8.384 -0.1419  0.0382 -0.0497
  198loPI   C5A 3163   6.870   7.581   8.305 -0.1524  0.2110  0.0583
  198loPI   C6A 3164   6.646   7.657   8.055  0.2680  0.1151  0.0946
  198loPI   C1B 3165   8.499   7.689   9.353 -0.0820 -0.1525  0.0868
  198loPI   C2B 3166   8.642   7.671   8.992 -0.1094  0.2294  0.1922
  198loPI   C3B 3167   8.510   7.722   8.550  0.0872  0.0521 -0.3147
  198loPI   C4B 3168   8.533   8.058   8.205  0.0823 -0.1076  0.2217
  199loPI    C1 3169  18.739  15.436   9.743 -0.0009 -0.1891  0.1437
  199loPI    C2 3170  19.086  15.245   9.799  0.0309 -0.1673  0.0240
  199loPI    C3 3171  19.006  15.579  10.004  0.1954 -0.0230 -0.1430
  199loPI   PO4 3172  18.723  15.501   9.533 -0.0130 -0.1629 -0.1177
  199loPI   GL1 3173  18.628  15.861   9.245  0.1358  0.3481  0.0700
  199loPI   GL2 3174  18.441  15.813   9.071  0.0625  0.1181 -0.3403
  199loPI   C1A 3175  18.808  15.900   8.765  0.1980 -0.0161 -0.1260
  199loPI   C2A 3176  18.822  15.871   8.352  0.0560 -0.2234  0.2804
  199loPI   C3A 3177  18.873  15.702   7.823 -0.1418 -0.0378  0.0718
  199loPI   C4A 3178  18.795  15.551   7.460 -0.0704 -0.2289 -0.1835
  199loPI   C5A 3179  18.619  15.243   7.285 -0.1020  0.0007  0.2394
  199loPI   C6A 3180  18.613  14.919   7.001 -0.0613 -0.0112  0.0168
  199loPI   C1B 3181  18.289  15.754   8.657 -0.1217 -0.4283 -0.0306
  199loPI   C2B 3182  18.334  15.718   8.244  0.0203  0.1635  0.1512
  199loPI   C3B 3183  18.276  15.777   7.870 -0.0594 -0.3083 -0.1447
  199loPI   C4B 3184  18.356  15.686   7.455 -0.0863  0.2452 -0.0850
  200loPI    C1 3185   4.846   9.266   9.939 -0.1417  0.1306 -0.0233
  200loPI    C2 3186   4.869   9.654  10.033  0.2256  0.1195 -0.0536
  200loPI    C3 3187   5.024   9.379  10.279 -0.2178 -0.0279  0.0705
  200loPI   PO4 3188   4.635   9.317   9.719 -0.1827  0.2585  0.2206
  200loPI   GL1 3189   4.658   9.472   9.312  0.1509  0.0592  0.2332
  200loPI   GL2 3190   4.965   9.585   9.492  0.4339 -0.0068 -0.0353
  200loPI   C1A 3191   4.504   9.397   8.927 -0.4676  0.0743  0.0485
  200loPI   C2A 3192   4.468   9.147   8.483 -0.1774 -0.1354 -0.1005
  200loPI   C3A 3193   4.620   8.917   8.143 -0.2279  0.1570 -0.1522
  200loPI   C4A 3194   4.691   8.813   7.706  0.1678 -0.3111 -0.0585
  200loPI   C5A 3195   4.822   9.157   7.428  0.1410 -0.2040  0.2211
  200loPI   C6A 3196   5.070   9.394   7.176  0.1422  0.3270  0.4254
  200loPI   C1B 3197   5.019   9.736   9.050 -0.1152 -0.0889 -0.0215
  200loPI   C2B 3198   4.807   9.713   8.620 -0.2575 -0.2484 -0.5027
  200loPI   C3B 3199   4.875   9.516   8.211 -0.0439  0.0380  0.2259
  200loPI   C4B 3200   5.054   9.285   7.812  0.0621  0.1325  0.2908
  201loPI    C1 3201  18.736   0.427   9.639 -0.0263 -0.2229 -0.1033
  201loPI    C2 3202  18.817   0.155   9.920 -0.2468 -0.0941  0.0880
  201loPI    C3 3203  18.443   0.197   9.784 -0.1785 -0.0154 -0.0778
  201loPI   PO4 3204  18.962   0.384   9.495  0.0607 -0.0474  0.1983
  201loPI   GL1 3205  19.127   0.572   9.072 -0.2389 -0.2063 -0.2426
  201loPI   GL2 3206  18.870   0.541   8.996  0.1151  0.4078  0.2011
  201loPI   C1A 3207  19.093   0.762   8.630 -0.0032  0.1575  0.2700
  201loPI   C2A 3208  19.085   0.717   8.262  0.0885  0.0415  0.1602
  201loPI   C3A 3209  19.137   0.752   7.893  0.4053  0.2152 -0.0634
  201loPI   C4A 3210  18.834   0.642   7.537 -0.2815  0.0451  0.1789
  201loPI   C5A 3211  18.743   0.666   7.084  0.0283 -0.1208 -0.1239
  201loPI   C6A 3212  18.970   0.930   6.816  0.1458  0.1380 -0.1556
  201loPI   C1B 3213  18.638   0.662   8.716 -0.2339  0.1016 -0.0218
  201loPI   C2B 3214  18.636   0.687   8.335 -0.1832 -0.1221  0.0848
  201loPI   C3B 3215  18.532   0.851   8.016  0.3209 -0.0641 -0.1565
  201loPI   C4B 3216  18.414   0.912   7.610 -0.0933  0.1540 -0.1991
  202loPI    C1 3217   7.131   3.826  10.873 -0.0842 -0.1842 -0.0624
  202loPI    C2 3218   7.292   4.017  11.186  0.0164 -0.0209 -0.2117
  202loPI    C3 3219   6.903   3.921  11.188 -0.0232  0.1376 -0.1119
  202loPI   PO4 3220   7.342   3.879  10.619 -0.2038  0.1052  0.3328
  202loPI   GL1 3221   7.444   4.053  10.207 -0.1917  0.0313 -0.0700
  202loPI   GL2 3222   7.352   4.368  10.177  0.0715 -0.0483  0.2312
  202loPI   C1A 3223   7.149   3.861   9.900 -0.1007  0.1505  0.1905
  202loPI   C2A 3224   7.039   3.806   9.485  0.2506 -0.0986  0.2472
  202loPI   C3A 3225   7.034   3.963   9.119  0.3896 -0.3680  0.0029
  202loPI   C4A 3226   7.173   3.857   8.734 -0.1101  0.1684 -0.1208
  202loPI   C5A 3227   7.458   3.572   8.478  0.1131 -0.0845 -0.1902
  202loPI   C6A 3228   7.610   3.334   8.239  0.0709 -0.0560 -0.2010
  202loPI   C1B 3229   7.415   4.409   9.691  0.1875 -0.1730  0.2189
  202loPI   C2B 3230   7.128   4.495   9.487  0.1002 -0.2463  0.0034
  202loPI   C3B 3231   7.188   4.834   9.132  0.2142  0.4997 -0.2655
  202loPI   C4B 3232   6.991   4.892   8.753  0.0033  0.0391  0.4112
  203loPI    C1 3233  19.012   8.258   9.830  0.0282 -0.1557 -0.4182
  203loPI    C2 3234  19.387   8.394   9.856 -0.1982  0.4537 -0.1372
  203loPI    C3 3235  19.246   8.142  10.132 -0.0085  0.2399 -0.2316
  203loPI   PO4 3236  18.967   8.420   9.589 -0.0089 -0.0319  0.3258
  203loPI   GL1 3237  19.242   8.365   9.309 -0.3002 -0.1216  0.2883
  203loPI   GL2 3238  19.114   8.597   9.116 -0.1427  0.0117 -0.1912
  203loPI   C1A 3239  19.455   8.204   8.933 -0.0719 -0.2597  0.1709
  203loPI   C2A 3240  19.459   8.174   8.399 -0.0246 -0.0608  0.4710
  203loPI   C3A 3241  19.328   8.057   8.014  0.2053  0.2066 -0.0880
  203loPI   C4A 3242  19.303   8.113   7.604 -0.1222 -0.0987  0.1449
  203loPI   C5A 3243  19.037   8.337   7.277  0.2767 -0.0088  0.0146
  203loPI   C6A 3244  18.695   8.571   7.258 -0.0645 -0.0271  0.3084
  203loPI   C1B 3245  19.004   8.687   8.678 -0.1795  0.0326 -0.1327
  203loPI   C2B 3246  18.916   8.508   8.242  0.1828  0.1356 -0.3177
  203loPI   C3B 3247  19.222   8.609   7.926  0.2838 -0.2279  0.1602
  203loPI   C4B 3248  19.243   8.711   7.549  0.3636  0.2432 -0.1350
  204loPI    C1 3249   1.584   3.778  10.053  0.2953 -0.2197 -0.1107
  204loPI    C2 3250   1.457   3.661  10.414 -0.0103  0.2639 -0.0517
  204loPI    C3 3251   1.427   4.045  10.306 -0.0529  0.1040 -0.6477
  204loPI   PO4 3252   1.477   3.568   9.850  0.1336  0.3096 -0.2519
  204loPI   GL1 3253   1.361   3.618   9.378  0.0559 -0.0627 -0.5189
  204loPI   GL2 3254   1.404   3.863   9.153  0.0021 -0.1363  0.0986
  204loPI   C1A 3255   1.319   3.307   9.034 -0.2648 -0.2932  0.1785
  204loPI   C2A 3256   1.396   3.257   8.684  0.0392 -0.0337 -0.0455
  204loPI   C3A 3257   1.332   3.229   8.276  0.2790 -0.0098 -0.1597
  204loPI   C4A 3258   1.173   3.200   7.781 -0.1240  0.3265 -0.5984
  204loPI   C5A 3259   1.333   3.031   7.510 -0.0162  0.2772  0.0968
  204loPI   C6A 3260   1.681   2.946   7.178 -0.0311  0.1276 -0.3617
  204loPI   C1B 3261   1.353   3.782   8.722  0.0307  0.2995  0.0043
  204loPI   C2B 3262   1.277   3.755   8.283 -0.0797  0.0768  0.2029
  204loPI   C3B 3263   1.033   3.642   7.954 -0.2077 -0.1785  0.0382
  204loPI   C4B 3264   0.694   3.486   7.959 -0.2774 -0.0486 -0.1553
  205loPI    C1 3265  11.943   1.175   9.901 -0.0778  0.0812  0.1112
  205loPI    C2 3266  12.090   0.815   9.994  0.0245  0.0583 -0.1342
  205loPI    C3 3267  12.197   1.136  10.208 -0.1299 -0.0675  0.1359
  205loPI   PO4 3268  11.796   1.139   9.718 -0.0335 -0.0618  0.0186
  205loPI   GL1 3269  11.678   1.190   9.262  0.1154  0.0031  0.0609
  205loPI   GL2 3270  12.005   1.175   9.098  0.1362 -0.0340  0.2776
  205loPI   C1A 3271  11.500   1.404   8.900  0.1749 -0.0017 -0.1384
  205loPI   C2A 3272  11.271   1.719   8.640 -0.3359  0.1561  0.0272
  205loPI   C3A 3273  11.373   2.114   8.377  0.2064 -0.0970 -0.2915
  205loPI   C4A 3274  11.064   2.181   8.140 -0.0102 -0.0461 -0.2288
  205loPI   C5A 3275  11.020   2.107   7.719  0.0571  0.0312 -0.2291
  205loPI   C6A 3276  10.802   1.732   7.589 -0.0868  0.0376 -0.0767
  205loPI   C1B 3277  11.943   1.249   8.675  0.0881  0.3092  0.0900
  205loPI   C2B 3278  11.551   1.331   8.372  0.1267 -0.0446 -0.0417
  205loPI   C3B 3279  11.504   1.395   7.853  0.0284 -0.3049  0.0741
  205loPI   C4B 3280  11.368   1.365   7.522  0.1524 -0.2351  0.0170
  206loPI    C1 3281   5.338   8.985  10.229  0.0333  0.0758 -0.1492
  206loPI    C2 3282   4.950   8.894  10.268  0.0665  0.0029  0.0221
  206loPI    C3 3283   5.221   8.723  10.507  0.2012  0.0801 -0.0734
  206loPI   PO4 3284   5.341   8.995   9.939 -0.0670 -0.0395 -0.1526
  206loPI   GL1 3285   5.082   9.038   9.532  0.1475  0.0626 -0.1789
  206loPI   GL2 3286   5.389   8.941   9.403 -0.1544  0.1098  0.2020
  206loPI   C1A 3287   5.054   9.235   9.132 -0.1360 -0.0888  0.0341
  206loPI   C2A 3288   4.906   9.264   8.713  0.3211 -0.1332 -0.0621
  206loPI   C3A 3289   5.038   9.090   8.393  0.0403 -0.0895  0.0819
  206loPI   C4A 3290   5.093   8.761   8.089 -0.2542 -0.4701  0.3516
  206loPI   C5A 3291   5.335   8.565   7.894  0.6406  0.1558  0.0850
  206loPI   C6A 3292   5.519   8.206   7.725  0.1816 -0.0179 -0.2595
  206loPI   C1B 3293   5.201   8.839   8.900 -0.3467 -0.3311 -0.3740
  206loPI   C2B 3294   5.198   8.490   8.580  0.1602  0.0022  0.0808
  206loPI   C3B 3295   5.268   8.157   8.241 -0.0216  0.0016  0.3853
  206loPI   C4B 3296   5.098   7.843   7.948  0.0424  0.2345 -0.0316
  207loPI    C1 3297   7.680  13.528  10.035 -0.0850 -0.1796 -0.0113
  207loPI    C2 3298   8.055  13.598   9.915 -0.1375  0.0796 -0.0295
  207loPI    C3 3299   7.985  13.461  10.285 -0.0085 -0.2347 -0.1191
  207loPI   PO4 3300   7.550  13.694   9.877 -0.0539  0.0769 -0.2282
  207loPI   GL1 3301   7.445  13.856   9.519  0.1298 -0.2414  0.0352
  207loPI   GL2 3302   7.833  13.921   9.434 -0.4341  0.0700 -0.0144
  207loPI   C1A 3303   7.413  13.969   9.079 -0.1477  0.2634  0.2628
  207loPI   C2A 3304   7.724  13.957   8.745  0.0601  0.1133  0.0699
  207loPI   C3A 3305   7.646  13.811   8.336 -0.1721  0.0579 -0.1304
  207loPI   C4A 3306   7.746  13.616   7.821 -0.0385  0.2526  0.0211
  207loPI   C5A 3307   7.862  13.819   7.507  0.2065 -0.0265 -0.1970
  207loPI   C6A 3308   8.000  14.005   7.074 -0.2582  0.2487  0.0088
  207loPI   C1B 3309   8.162  13.863   9.096 -0.1385  0.1587 -0.0067
  207loPI   C2B 3310   8.406  13.720   8.788 -0.2530 -0.0681  0.0489
  207loPI   C3B 3311   8.551  13.712   8.375  0.0150  0.0313 -0.0266
  207loPI   C4B 3312   8.675  13.641   7.928 -0.0427 -0.1885  0.1852
  208loPI    C1 3313   1.516  14.844   9.536  0.0058  0.0351  0.0999
  208loPI    C2 3314   1.384  14.685   9.878  0.0829  0.1423  0.1801
  208loPI    C3 3315   1.398  15.082   9.835  0.3223  0.1320  0.1509
  208loPI   PO4 3316   1.697  14.622   9.389  0.1838 -0.1243  0.2897
  208loPI   GL1 3317   1.705  14.457   8.946 -0.1750  0.0533  0.3857
  208loPI   GL2 3318   1.936  14.261   8.792  0.0536 -0.0753 -0.0222
  208loPI   C1A 3319   1.405  14.414   8.540  0.2933 -0.2292 -0.0284
  208loPI   C2A 3320   1.335  14.332   8.075 -0.2212  0.1442 -0.1146
  208loPI   C3A 3321   1.599  14.406   7.681 -0.0726 -0.0401  0.1846
  208loPI   C4A 3322   1.719  14.283   7.288 -0.0731  0.3906 -0.0655
  208loPI   C5A 3323   2.049  14.385   7.161  0.1021 -0.1313 -0.0947
  208loPI   C6A 3324   2.337  14.454   6.897  0.0019 -0.1410 -0.3393
  208loPI   C1B 3325   1.942  14.284   8.411 -0.0681  0.2439  0.1030
  208loPI   C2B 3326   1.845  14.231   8.029  0.1657  0.1160 -0.3031
  208loPI   C3B 3327   1.931  13.992   7.699 -0.0579 -0.1643  0.0602
  208loPI   C4B 3328   1.633  13.776   7.363 -0.0559 -0.0760  0.5663
  209loPI    C1 3329  16.742   5.703  10.493 -0.0116  0.0210  0.0201
  209loPI    C2 3330  16.534   6.037  10.564  0.1215  0.0866  0.1036
  209loPI    C3 3331  16.911   6.004  10.695  0.0605 -0.1535  0.2244
  209loPI   PO4 3332  16.730   5.678  10.154 -0.0270 -0.1984 -0.1350
  209loPI   GL1 3333  16.754   5.490   9.849 -0.2340  0.2969 -0.0871
  209loPI   GL2 3334  16.423   5.361   9.706 -0.2963  0.0158 -0.3530
  209loPI   C1A 3335  16.826   5.884   9.546 -0.1632  0.0034 -0.0848
  209loPI   C2A 3336  16.642   6.013   9.190 -0.1589  0.0149  0.2727
  209loPI   C3A 3337  16.817   6.161   8.826  0.1488  0.0459 -0.0685
  209loPI   C4A 3338  17.103   6.130   8.515  0.2686 -0.1290  0.0001
  209loPI   C5A 3339  17.422   5.823   8.564  0.4018 -0.1412 -0.2237
  209loPI   C6A 3340  17.812   5.860   8.808  0.3092  0.0282 -0.1117
  209loPI   C1B 3341  16.342   5.684   9.506  0.0865 -0.2960 -0.1895
  209loPI   C2B 3342  15.961   5.561   9.259  0.0430  0.1063  0.0328
  209loPI   C3B 3343  15.854   5.433   8.838  0.4134  0.3206 -0.2461
  209loPI   C4B 3344  15.807   5.584   8.407 -0.0356 -0.0421 -0.3077
  210loPI    C1 3345  11.099   5.541  10.423 -0.0802 -0.0622 -0.1447
  210loPI    C2 3346  11.323   5.669  10.729 -0.1153  0.2683 -0.2540
  210loPI    C3 3347  11.282   5.277  10.662 -0.2135  0.1881  0.2425
  210loPI   PO4 3348  11.140   5.667  10.175 -0.2739 -0.0482  0.4967
  210loPI   GL1 3349  11.016   5.764   9.748  0.0395  0.3459  0.0893
  210loPI   GL2 3350  11.201   6.097   9.754  0.0085 -0.1021 -0.0970
  210loPI   C1A 3351  10.823   5.646   9.406 -0.4557 -0.1126 -0.2125
  210loPI   C2A 3352  10.675   5.578   9.016  0.1414 -0.0427  0.2271
  210loPI   C3A 3353  10.818   5.497   8.607  0.2470  0.0544 -0.2660
  210loPI   C4A 3354  10.965   5.336   8.278 -0.2900 -0.2210  0.1152
  210loPI   C5A 3355  11.293   5.331   7.946  0.4720  0.1086  0.0908
  210loPI   C6A 3356  11.741   5.192   8.080 -0.1558 -0.2803  0.0973
  210loPI   C1B 3357  11.280   5.880   9.396  0.0199 -0.1112  0.2707
  210loPI   C2B 3358  11.478   5.858   9.017  0.0418 -0.3020  0.0202
  210loPI   C3B 3359  11.634   5.956   8.641 -0.0086 -0.3381 -0.1436
  210loPI   C4B 3360  11.962   6.023   8.290  0.0139  0.0672  0.1540
  211loPI    C1 3361  14.276  17.199   9.353 -0.0815  0.1173  0.2607
  211loPI    C2 3362  14.147  16.887   9.568  0.0389 -0.0087  0.1527
  211loPI    C3 3363  14.432  17.127   9.714  0.0505 -0.0359  0.1746
  211loPI   PO4 3364  14.213  17.092   9.114 -0.0806  0.3310 -0.3327
  211loPI   GL1 3365  14.484  17.138   8.764  0.0452 -0.0372 -0.1297
  211loPI   GL2 3366  14.550  16.830   8.756 -0.2835  0.1282 -0.0773
  211loPI   C1A 3367  14.081  17.114   8.495  0.2917  0.1370 -0.1672
  211loPI   C2A 3368  14.096  17.004   8.132  0.1655 -0.4793  0.0297
  211loPI   C3A 3369  14.059  16.955   7.794 -0.0170 -0.0574  0.0028
  211loPI   C4A 3370  13.943  16.945   7.351  0.0223 -0.0014  0.0060
  211loPI   C5A 3371  14.101  16.926   6.951  0.0757  0.0768 -0.3989
  211loPI   C6A 3372  14.079  17.255   6.600 -0.3990 -0.1326 -0.2431
  211loPI   C1B 3373  14.446  16.669   8.391 -0.0209 -0.2999 -0.0440
  211loPI   C2B 3374  14.156  16.531   7.956 -0.0202 -0.3279 -0.1421
  211loPI   C3B 3375  14.059  16.500   7.517  0.1765  0.2056  0.0646
  211loPI   C4B 3376  13.844  16.420   7.071 -0.0106  0.0321 -0.0050
  212loPI    C1 3377  18.029   0.205   9.445 -0.0708  0.0561 -0.2100
  212loPI    C2 3378  17.867   0.472   9.695  0.0392 -0.2024  0.1471
  212loPI    C3 3379  17.684   0.122   9.631 -0.0900 -0.0603 -0.2965
  212loPI   PO4 3380  18.102   0.295   9.268 -0.0518 -0.2565  0.1243
  212loPI   GL1 3381  18.254   0.383   8.924 -0.0861 -0.0807 -0.1806
  212loPI   GL2 3382  18.125   0.677   8.943  0.0628 -0.3269 -0.2426
  212loPI   C1A 3383  18.273   0.080   8.544  0.1386 -0.1554  0.1826
  212loPI   C2A 3384  18.168  -0.055   8.097 -0.2157 -0.0661 -0.0816
  212loPI   C3A 3385  18.319  -0.061   7.607 -0.2422 -0.3197  0.2294
  212loPI   C4A 3386  18.233  -0.043   7.131  0.0236  0.2049 -0.2061
  212loPI   C5A 3387  18.141   0.054   6.694 -0.0819 -0.0916  0.0749
  212loPI   C6A 3388  18.005   0.366   6.393 -0.2353 -0.0095  0.2095
  212loPI   C1B 3389  18.128   0.600   8.519  0.2563  0.0384  0.1964
  212loPI   C2B 3390  18.250   0.417   8.145 -0.1633  0.0948 -0.2446
  212loPI   C3B 3391  18.212   0.459   7.734  0.1025  0.3666  0.0120
  212loPI   C4B 3392  18.150   0.537   7.327 -0.1116  0.2770 -0.0680
  213loPI    C1 3393   9.014   4.401  10.169 -0.0444  0.2535  0.0312
  213loPI    C2 3394   8.940   4.358  10.559  0.0816  0.1976  0.0494
  213loPI    C3 3395   8.659   4.261  10.291  0.0740  0.0238  0.1185
  213loPI   PO4 3396   9.168   4.562  10.085  0.0265  0.2467 -0.2134
  213loPI   GL1 3397   9.250   4.749   9.692 -0.1510 -0.1802  0.2025
  213loPI   GL2 3398   8.917   4.543   9.660  0.1167  0.2204 -0.0347
  213loPI   C1A 3399   9.063   5.098   9.416 -0.2042  0.2113  0.0898
  213loPI   C2A 3400   9.177   5.226   8.976 -0.0361  0.1557  0.1534
  213loPI   C3A 3401   9.195   5.217   8.580 -0.0813 -0.1451  0.0905
  213loPI   C4A 3402   9.147   5.258   8.197 -0.0047  0.0001 -0.0610
  213loPI   C5A 3403   8.865   5.005   8.040  0.1837 -0.2886 -0.3514
  213loPI   C6A 3404   8.873   4.659   7.886 -0.0133 -0.3597  0.0538
  213loPI   C1B 3405   9.112   4.533   9.188 -0.3971  0.0275 -0.3008
  213loPI   C2B 3406   9.025   4.334   8.783  0.2744  0.0118 -0.1293
  213loPI   C3B 3407   8.756   4.421   8.378  0.2479 -0.1637  0.0161
  213loPI   C4B 3408   8.661   4.227   8.048 -0.0922 -0.0487  0.0708
  214loPI    C1 3409  19.091  16.034   9.803 -0.0539  0.0734  0.0672
  214loPI    C2 3410  18.800  16.294   9.891  0.0948  0.2268  0.1123
  214loPI    C3 3411  18.929  16.037  10.169 -0.1257  0.0293  0.0361
  214loPI   PO4 3412  19.008  15.903   9.595  0.2751 -0.2553  0.3494
  214loPI   GL1 3413  19.113  15.961   9.123 -0.0908  0.1000  0.0108
  214loPI   GL2 3414  19.203  16.258   8.946  0.0330  0.1779 -0.2454
  214loPI   C1A 3415  19.287  15.687   8.815  0.0797  0.3437  0.2013
  214loPI   C2A 3416  19.212  15.528   8.499  0.0616 -0.0007 -0.1079
  214loPI   C3A 3417  19.272  15.293   8.087 -0.1105 -0.1359 -0.0656
  214loPI   C4A 3418  19.580  15.158   7.694  0.3759  0.0167  0.0786
  214loPI   C5A 3419  19.640  15.329   7.301 -0.1620  0.1425  0.4252
  214loPI   C6A 3420  19.462  15.547   6.815  0.2650  0.1629  0.0938
  214loPI   C1B 3421  19.175  16.252   8.477 -0.0958 -0.0105  0.1607
  214loPI   C2B 3422  19.005  16.231   8.075  0.1222  0.1147  0.1548
  214loPI   C3B 3423  19.173  16.095   7.604  0.0922  0.3539 -0.2154
  214loPI   C4B 3424  19.190  15.731   7.212 -0.0589 -0.1210  0.0315
  215loPI    C1 3425  13.728   7.307  10.500 -0.1812  0.2412 -0.1168
  215loPI    C2 3426  14.059   7.294  10.725 -0.1910  0.1502 -0.1073
  215loPI    C3 3427  13.823   7.616  10.735  0.0430  0.3322 -0.3225
  215loPI   PO4 3428  13.750   7.219  10.245 -0.0493 -0.1865  0.1009
  215loPI   GL1 3429  13.925   7.047   9.875 -0.0142  0.0835  0.0155
  215loPI   GL2 3430  13.915   7.390   9.783 -0.0210 -0.1578 -0.2165
  215loPI   C1A 3431  13.965   7.093   9.397 -0.0034 -0.0270 -0.0816
  215loPI   C2A 3432  14.045   6.901   8.966 -0.0225 -0.0573  0.2794
  215loPI   C3A 3433  13.723   6.895   8.625 -0.2382  0.0539  0.0941
  215loPI   C4A 3434  13.601   6.772   8.122 -0.0127 -0.1367  0.1868
  215loPI   C5A 3435  13.709   6.460   7.707  0.0480  0.0848  0.0977
  215loPI   C6A 3436  13.585   6.157   7.720  0.1782  0.1961 -0.0929
  215loPI   C1B 3437  14.075   7.606   9.350 -0.0679 -0.0136 -0.3004
  215loPI   C2B 3438  14.237   7.451   8.930 -0.0874  0.0887 -0.0204
  215loPI   C3B 3439  14.246   7.210   8.637 -0.3312 -0.1444  0.0015
  215loPI   C4B 3440  13.995   7.095   8.295 -0.2685  0.1147 -0.0259
  216loPI    C1 3441  11.920  16.339   9.790 -0.0431 -0.1536  0.0281
  216loPI    C2 3442  11.642  16.626   9.808  0.0769 -0.0318 -0.0478
  216loPI    C3 3443  11.946  16.625  10.068  0.1193 -0.0447 -0.0972
  216loPI   PO4 3444  12.026  16.357   9.490  0.1420 -0.1731 -0.0431
  216loPI   GL1 3445  11.967  16.252   8.995 -0.0731 -0.6806 -0.2555
  216loPI   GL2 3446  12.073  16.050   9.087 -0.2255  0.2268 -0.1372
  216loPI   C1A 3447  11.804  16.437   8.575  0.2204 -0.2034  0.2729
  216loPI   C2A 3448  11.863  16.492   8.155  0.0664 -0.1567 -0.2796
  216loPI   C3A 3449  12.084  16.318   7.768  0.0582 -0.0609 -0.4140
  216loPI   C4A 3450  12.142  16.209   7.292  0.0415 -0.1603  0.0580
  216loPI   C5A 3451  12.473  16.089   6.928 -0.1794 -0.0144  0.0979
  216loPI   C6A 3452  12.539  15.955   6.521  0.2785  0.3660 -0.0910
  216loPI   C1B 3453  11.969  15.884   8.664 -0.0757  0.3280  0.2635
  216loPI   C2B 3454  11.980  15.879   8.270 -0.2509 -0.0192  0.1762
  216loPI   C3B 3455  12.046  15.693   7.785 -0.0480  0.1827  0.3596
  216loPI   C4B 3456  12.238  15.533   7.292 -0.2264  0.0285 -0.1465
  217loPI    C1 3457   4.534  14.066  10.109  0.0776  0.1479  0.2489
  217loPI    C2 3458   4.173  13.910  10.180  0.0919 -0.1103 -0.2046
  217loPI    C3 3459   4.464  13.874  10.453 -0.1121 -0.2433 -0.0007
  217loPI   PO4 3460   4.539  13.990   9.778  0.0129 -0.0841  0.1764
  217loPI   GL1 3461   4.756  13.954   9.544  0.1222 -0.1811  0.4620
  217loPI   GL2 3462   5.050  13.958   9.564 -0.0790 -0.2411 -0.0471
  217loPI   C1A 3463   4.641  13.803   9.143 -0.0246  0.1343  0.0095
  217loPI   C2A 3464   4.748  13.744   8.689 -0.1062  0.2485 -0.0385
  217loPI   C3A 3465   4.932  13.783   8.278  0.0551  0.1564  0.3113
  217loPI   C4A 3466   4.970  13.807   7.864 -0.0617 -0.0600 -0.1016
  217loPI   C5A 3467   5.147  13.749   7.382 -0.0189 -0.1211  0.1898
  217loPI   C6A 3468   4.969  13.805   7.029 -0.0875 -0.1213  0.1217
  217loPI   C1B 3469   5.111  13.958   9.137 -0.0539 -0.3547 -0.0297
  217loPI   C2B 3470   5.164  14.109   8.668 -0.0003 -0.1990  0.0692
  217loPI   C3B 3471   5.487  14.103   8.209 -0.2255  0.2255  0.3037
  217loPI   C4B 3472   5.839  14.198   7.936 -0.1638  0.2165 -0.2160
  218loPI    C1 3473  14.409   1.353   9.989  0.2025  0.0750 -0.0922
  218loPI    C2 3474  14.134   1.063  10.015 -0.0070  0.2888  0.1298
  218loPI    C3 3475  14.520   0.969   9.968 -0.0952 -0.0189 -0.0059
  218loPI   PO4 3476  14.346   1.479   9.767  0.3273  0.1657  0.1572
  218loPI   GL1 3477  14.537   1.721   9.298  0.1402  0.0351  0.2131
  218loPI   GL2 3478  14.694   2.023   9.244 -0.0304  0.0614 -0.0137
  218loPI   C1A 3479  14.297   1.907   9.019  0.1795 -0.1459 -0.0271
  218loPI   C2A 3480  14.048   2.098   8.957  0.1696 -0.1020 -0.2329
  218loPI   C3A 3481  13.971   2.234   8.617 -0.3975  0.1458 -0.2708
  218loPI   C4A 3482  13.961   2.211   8.196  0.1458 -0.4599 -0.1219
  218loPI   C5A 3483  14.005   2.299   7.803 -0.0541 -0.0148 -0.1123
  218loPI   C6A 3484  14.136   2.320   7.398  0.0912 -0.3521  0.0204
  218loPI   C1B 3485  14.618   2.262   8.957 -0.0981 -0.2713  0.2865
  218loPI   C2B 3486  14.461   2.255   8.649 -0.0439 -0.2267  0.3239
  218loPI   C3B 3487  14.450   2.365   8.196  0.0263  0.2264 -0.1709
  218loPI   C4B 3488  14.583   2.407   7.791  0.1431 -0.1292 -0.0584
  219loPI    C1 3489  15.465  18.829   8.760 -0.1006 -0.1660  0.1210
  219loPI    C2 3490  15.517  19.081   9.067  0.3169  0.2128 -0.2454
  219loPI    C3 3491  15.821  19.000   8.821  0.0485 -0.2593 -0.4361
  219loPI   PO4 3492  15.432  18.615   8.884  0.3966  0.1278 -0.3593
  219loPI   GL1 3493  15.046  18.500   8.713  0.2064  0.4204 -0.1960
  219loPI   GL2 3494  15.148  18.196   8.726  0.1007  0.0831 -0.1547
  219loPI   C1A 3495  15.264  18.601   8.279  0.0409  0.5799 -0.1751
  219loPI   C2A 3496  15.528  18.705   7.965 -0.2604 -0.1328  0.2781
  219loPI   C3A 3497  15.623  18.703   7.448  0.1082 -0.1378  0.0212
  219loPI   C4A 3498  15.696  18.780   7.080 -0.0576  0.1626  0.1100
  219loPI   C5A 3499  15.567  18.566   6.722 -0.0210 -0.1675 -0.0484
  219loPI   C6A 3500  15.478  18.423   6.332 -0.2043  0.0057  0.1090
  219loPI   C1B 3501  15.197  18.076   8.309  0.1038  0.3721 -0.4785
  219loPI   C2B 3502  14.917  18.221   8.006 -0.0488 -0.1178  0.2792
  219loPI   C3B 3503  14.772  18.335   7.628 -0.0097  0.0234  0.2336
  219loPI   C4B 3504  14.371  18.364   7.421  0.0317 -0.2655  0.2184
  220loPI    C1 3505  14.693  10.805   9.654  0.2259 -0.0230 -0.0467
  220loPI    C2 3506  14.477  10.651   9.954  0.2195  0.0486 -0.0147
  220loPI    C3 3507  14.807  10.464   9.829  0.2321  0.0279  0.0492
  220loPI   PO4 3508  14.456  10.907   9.516  0.3699 -0.0710 -0.0393
  220loPI   GL1 3509  14.492  11.172   9.105 -0.2313  0.0289 -0.1802
  220loPI   GL2 3510  14.668  11.487   9.042  0.2938  0.6389 -0.1189
  220loPI   C1A 3511  14.286  11.085   8.775 -0.1151 -0.1390 -0.0104
  220loPI   C2A 3512  14.263  11.164   8.319 -0.1406 -0.0158  0.2069
  220loPI   C3A 3513  14.292  10.991   8.012  0.1389 -0.1789 -0.3142
  220loPI   C4A 3514  14.176  10.918   7.620  0.2668  0.0530 -0.0528
  220loPI   C5A 3515  14.268  11.036   7.261 -0.0431  0.1551 -0.2053
  220loPI   C6A 3516  14.061  11.084   6.871  0.1467  0.1277 -0.0580
  220loPI   C1B 3517  14.755  11.449   8.590 -0.0516 -0.0232  0.3579
  220loPI   C2B 3518  14.693  11.494   8.121  0.1426 -0.1393  0.2091
  220loPI   C3B 3519  14.663  11.817   7.770 -0.0461  0.2765  0.0931
  220loPI   C4B 3520  14.973  12.104   7.466  0.2361 -0.3806  0.0575
  221loPI    C1 3521  18.207   2.455   9.610 -0.0361 -0.1256 -0.3264
  221loPI    C2 3522  17.997   2.208   9.845  0.0593  0.0279 -0.0763
  221loPI    C3 3523  18.394   2.167   9.815  0.1035  0.2737  0.1268
  221loPI   PO4 3524  18.068   2.471   9.384 -0.2832 -0.2415 -0.2582
  221loPI   GL1 3525  18.055   2.422   8.897 -0.1633  0.0209  0.2646
  221loPI   GL2 3526  18.009   2.054   8.986 -0.3531  0.0280  0.2885
  221loPI   C1A 3527  17.980   2.410   8.383 -0.1374  0.1335 -0.1267
  221loPI   C2A 3528  18.193   2.407   7.936 -0.0697  0.2515  0.0628
  221loPI   C3A 3529  18.047   2.381   7.542  0.4478 -0.0499  0.0959
  221loPI   C4A 3530  17.801   2.635   7.191 -0.0062  0.0465  0.1792
  221loPI   C5A 3531  17.547   2.608   6.814 -0.2491 -0.0925 -0.3109
  221loPI   C6A 3532  17.121   2.450   6.862  0.1826  0.1610 -0.0114
  221loPI   C1B 3533  17.960   1.925   8.454 -0.1171  0.0767  0.1707
  221loPI   C2B 3534  17.906   2.024   8.011  0.2487  0.1900 -0.1413
  221loPI   C3B 3535  17.537   2.058   7.690  0.3003 -0.1890 -0.0769
  221loPI   C4B 3536  17.548   1.902   7.308 -0.2816  0.2897 -0.2198
  222loPI    C1 3537  18.443   1.116   9.500  0.1635  0.0029  0.1956
  222loPI    C2 3538  18.250   1.193   9.842  0.0944  0.2864  0.0954
  222loPI    C3 3539  18.643   1.259   9.815  0.1335  0.0906  0.1753
  222loPI   PO4 3540  18.365   1.199   9.320  0.2279 -0.1291 -0.2849
  222loPI   GL1 3541  18.471   1.468   8.964  0.1604 -0.0156 -0.0074
  222loPI   GL2 3542  18.118   1.533   9.011 -0.0168 -0.2737  0.1671
  222loPI   C1A 3543  18.363   1.559   8.503  0.1503 -0.3749  0.2932
  222loPI   C2A 3544  18.198   1.583   8.153  0.3075  0.1528 -0.1866
  222loPI   C3A 3545  18.306   1.362   7.785 -0.1215  0.3580 -0.2427
  222loPI   C4A 3546  18.062   1.295   7.416  0.0286  0.3747  0.0563
  222loPI   C5A 3547  17.617   1.417   7.339 -0.0969 -0.1154 -0.1341
  222loPI   C6A 3548  17.189   1.524   7.219 -0.2058  0.2449  0.0088
  222loPI   C1B 3549  17.822   1.462   8.726 -0.2422 -0.1921 -0.2136
  222loPI   C2B 3550  17.725   1.523   8.280 -0.0603 -0.0910  0.1440
  222loPI   C3B 3551  17.753   1.554   7.823 -0.0590  0.0647 -0.0469
  222loPI   C4B 3552  18.064   1.793   7.559  0.5341  0.0654 -0.2767
  223loPI    C1 3553   0.243   6.654  10.003 -0.0531  0.0640 -0.1513
  223loPI    C2 3554   0.084   6.409  10.276 -0.0896  0.0714 -0.1658
  223loPI    C3 3555   0.248   6.755  10.390 -0.2800  0.1653 -0.1735
  223loPI   PO4 3556   0.099   6.628   9.811 -0.1973 -0.1168 -0.2979
  223loPI   GL1 3557   0.193   6.619   9.384  0.0439  0.1127 -0.1991
  223loPI   GL2 3558   0.171   6.920   9.382 -0.0891  0.2604  0.1503
  223loPI   C1A 3559   0.255   6.427   8.948  0.2503  0.2178 -0.1284
  223loPI   C2A 3560   0.453   6.295   8.553 -0.0908 -0.0977  0.1673
  223loPI   C3A 3561   0.613   6.326   8.076 -0.3867 -0.0809 -0.1948
  223loPI   C4A 3562   0.408   6.011   7.767  0.1954 -0.0664  0.1708
  223loPI   C5A 3563   0.616   5.955   7.353 -0.0398  0.0725  0.1116
  223loPI   C6A 3564   0.895   5.673   7.137  0.1227 -0.4555  0.1816
  223loPI   C1B 3565  -0.050   6.830   8.959  0.6220  0.0053  0.1155
  223loPI   C2B 3566   0.124   6.674   8.452 -0.2409  0.2168 -0.1097
  223loPI   C3B 3567   0.027   6.590   8.126 -0.1421 -0.1089 -0.1970
  223loPI   C4B 3568  -0.020   6.574   7.746 -0.0675 -0.2616 -0.0238
  224loPI    C1 3569   5.370   4.531  10.639 -0.0383 -0.0309 -0.3000
  224loPI    C2 3570   4.980   4.606  10.687 -0.0015  0.0485 -0.1159
  224loPI    C3 3571   5.251   4.825  10.883  0.1330 -0.0630 -0.1760
  224loPI   PO4 3572   5.344   4.585  10.346 -0.2862 -0.1696  0.1827
  224loPI   GL1 3573   5.494   4.812  10.062 -0.1251 -0.0599  0.0956
  224loPI   GL2 3574   5.144   4.948   9.978  0.0153  0.2516 -0.2011
  224loPI   C1A 3575   5.709   4.915   9.705 -0.0183 -0.1180  0.3451
  224loPI   C2A 3576   5.706   5.129   9.342  0.4222 -0.0231  0.0923
  224loPI   C3A 3577   5.722   5.172   9.016 -0.0767  0.0188  0.3775
  224loPI   C4A 3578   5.762   5.200   8.584  0.1919  0.1403  0.0912
  224loPI   C5A 3579   5.852   5.079   8.183  0.2140 -0.0374 -0.1754
  224loPI   C6A 3580   6.107   4.814   7.891 -0.4531  0.0960 -0.0648
  224loPI   C1B 3581   5.030   4.770   9.598 -0.4951 -0.0926  0.0745
  224loPI   C2B 3582   5.204   4.919   9.160  0.0976  0.1747  0.0831
  224loPI   C3B 3583   5.291   4.771   8.738  0.1316 -0.1506 -0.0734
  224loPI   C4B 3584   5.445   4.840   8.386 -0.2148 -0.0219  0.2105
  225loPI    C1 3585  14.370   9.401   9.579  0.3764 -0.0918  0.1939
  225loPI    C2 3586  14.507   9.368   9.954  0.2991  0.2035  0.2506
  225loPI    C3 3587  14.528   9.719   9.763  0.1666  0.1016  0.0445
  225loPI   PO4 3588  14.407   9.105   9.534 -0.1435 -0.0537  0.0488
  225loPI   GL1 3589  14.297   9.018   9.180 -0.0564  0.3663  0.1155
  225loPI   GL2 3590  14.518   9.258   9.061  0.1214  0.0860  0.1679
  225loPI   C1A 3591  14.494   8.765   8.888 -0.0141 -0.1273 -0.1160
  225loPI   C2A 3592  14.656   8.736   8.420 -0.2386 -0.0177 -0.1463
  225loPI   C3A 3593  14.640   8.627   7.847 -0.3204 -0.0177 -0.0421
  225loPI   C4A 3594  14.394   8.357   7.738  0.0030  0.0215  0.1849
  225loPI   C5A 3595  14.232   8.306   7.348 -0.0685 -0.3372  0.0697
  225loPI   C6A 3596  14.184   8.139   6.972  0.1193  0.0360  0.4006
  225loPI   C1B 3597  14.531   9.187   8.614  0.1044 -0.1758 -0.0653
  225loPI   C2B 3598  14.425   9.126   8.161 -0.0383  0.1237 -0.1076
  225loPI   C3B 3599  14.458   9.165   7.710  0.0923 -0.0413  0.4338
  225loPI   C4B 3600  14.547   9.370   7.285 -0.0293  0.0255 -0.0843
  226loPI    C1 3601   0.909  18.682   9.302  0.0868  0.2458  0.0090
  226loPI    C2 3602   1.304  18.628   9.340  0.0826  0.2085  0.0002
  226loPI    C3 3603   1.122  18.920   9.544  0.0490 -0.0336  0.3255
  226loPI   PO4 3604   0.812  18.705   9.056 -0.0099 -0.1679 -0.1293
  226loPI   GL1 3605   0.833  18.366   8.676  0.2673 -0.2804 -0.0005
  226loPI   GL2 3606   1.124  18.517   8.505 -0.4605  0.1532 -0.2615
  226loPI   C1A 3607   0.698  18.671   8.374 -0.1508  0.2012 -0.0649
  226loPI   C2A 3608   0.617  18.783   7.975  0.0406 -0.1717 -0.0436
  226loPI   C3A 3609   0.497  18.668   7.614  0.0807  0.3869 -0.2402
  226loPI   C4A 3610   0.521  18.714   7.254 -0.0079  0.2382  0.2604
  226loPI   C5A 3611   0.679  19.008   7.070  0.0994  0.1614 -0.0704
  226loPI   C6A 3612   1.130  19.127   6.969  0.0182 -0.4819 -0.0580
  226loPI   C1B 3613   1.104  18.648   8.028  0.1022  0.1201 -0.2084
  226loPI   C2B 3614   0.962  18.743   7.568 -0.2340  0.0115  0.1656
  226loPI   C3B 3615   1.073  18.590   7.134 -0.3713  0.1895  0.0060
  226loPI   C4B 3616   1.142  18.737   6.661  0.1881 -0.1199 -0.2534
  227loPI    C1 3617   0.570   5.102   9.842  0.1031 -0.1680 -0.0697
  227loPI    C2 3618   0.384   5.154  10.193 -0.1108 -0.3192 -0.1586
  227loPI    C3 3619   0.747   5.312  10.133 -0.1073 -0.2246  0.1016
  227loPI   PO4 3620   0.501   5.149   9.662  0.0969  0.1314  0.0667
  227loPI   GL1 3621   0.774   5.174   9.293 -0.0799  0.1519  0.1082
  227loPI   GL2 3622   0.977   5.237   9.182  0.0390  0.2654 -0.3838
  227loPI   C1A 3623   0.417   4.971   9.038 -0.2283  0.4009 -0.3328
  227loPI   C2A 3624   0.278   4.692   8.692  0.0181 -0.3535 -0.0882
  227loPI   C3A 3625   0.113   4.681   8.222  0.2928  0.0403  0.1079
  227loPI   C4A 3626   0.099   4.445   7.768  0.4059  0.2094 -0.3453
  227loPI   C5A 3627  -0.163   4.535   7.426 -0.0665  0.1111 -0.0542
  227loPI   C6A 3628  -0.586   4.536   7.229  0.2029  0.2467 -0.1275
  227loPI   C1B 3629   0.794   5.108   8.732  0.1004  0.1485  0.0629
  227loPI   C2B 3630   0.527   5.081   8.396  0.0235  0.0307 -0.0419
  227loPI   C3B 3631   0.564   4.931   7.984  0.3039  0.0027 -0.3320
  227loPI   C4B 3632   0.608   5.164   7.544  0.0143  0.0638 -0.1649
  228loPI    C1 3633   7.289  12.010  10.184 -0.0256 -0.0662 -0.3280
  228loPI    C2 3634   7.159  11.689  10.385 -0.0484  0.0881 -0.0919
  228loPI    C3 3635   7.067  12.057  10.514  0.1139  0.1925 -0.2679
  228loPI   PO4 3636   7.227  11.840   9.862  0.4292  0.2220 -0.1810
  228loPI   GL1 3637   7.258  11.908   9.358  0.2530  0.1481 -0.0732
  228loPI   GL2 3638   6.977  11.882   9.206  0.2787 -0.0570 -0.4917
  228loPI   C1A 3639   7.401  12.107   9.004  0.0515  0.0870  0.0187
  228loPI   C2A 3640   7.311  12.155   8.537  0.3094  0.2080  0.0372
  228loPI   C3A 3641   7.228  12.405   8.154  0.1077  0.2428  0.1451
  228loPI   C4A 3642   7.185  12.510   7.739 -0.0534  0.2260 -0.1031
  228loPI   C5A 3643   6.929  12.492   7.452 -0.0502 -0.2237 -0.0490
  228loPI   C6A 3644   6.572  12.211   7.443 -0.1193 -0.0438  0.0959
  228loPI   C1B 3645   6.894  12.153   8.830  0.2495 -0.0440  0.0677
  228loPI   C2B 3646   6.699  12.495   8.533  0.0633  0.3049  0.1822
  228loPI   C3B 3647   6.447  12.747   8.232  0.1515 -0.0723  0.2355
  228loPI   C4B 3648   5.984  12.717   8.156  0.5272 -0.3619  0.2388
  229loPI    C1 3649   5.784  12.603   9.523 -0.0005 -0.0234 -0.1108
  229loPI    C2 3650   5.500  12.331   9.600  0.0836 -0.0793  0.0049
  229loPI    C3 3651   5.553  12.642   9.847  0.3453 -0.2520  0.1715
  229loPI   PO4 3652   5.910  12.401   9.336  0.0474  0.2144  0.0915
  229loPI   GL1 3653   5.829  12.387   8.929 -0.0903  0.1465 -0.1270
  229loPI   GL2 3654   6.006  12.070   8.954 -0.1582 -0.1915 -0.3061
  229loPI   C1A 3655   5.650  12.685   8.580 -0.1096 -0.0166  0.0864
  229loPI   C2A 3656   5.211  12.819   8.424 -0.2292 -0.2441  0.1717
  229loPI   C3A 3657   4.987  12.811   8.007 -0.2240 -0.3436 -0.3453
  229loPI   C4A 3658   5.079  12.836   7.481 -0.0879  0.4149 -0.2087
  229loPI   C5A 3659   5.229  12.741   7.088 -0.0883  0.0868  0.2955
  229loPI   C6A 3660   5.350  12.515   6.735  0.1606 -0.4305  0.1958
  229loPI   C1B 3661   6.009  11.868   8.526  0.3307 -0.4095  0.0353
  229loPI   C2B 3662   5.905  11.511   8.199 -0.1621 -0.1856 -0.0658
  229loPI   C3B 3663   6.128  11.089   8.048  0.4172 -0.3104  0.0965
  229loPI   C4B 3664   6.370  10.655   8.035 -0.1315  0.0347  0.1029
  230loPI    C1 3665  14.572  13.583   9.775 -0.0277  0.0673  0.3056
  230loPI    C2 3666  14.752  13.235   9.696 -0.1578  0.0828 -0.0805
  230loPI    C3 3667  14.967  13.547   9.825  0.0477  0.0172 -0.2566
  230loPI   PO4 3668  14.331  13.662   9.476 -0.1410  0.2251 -0.0306
  230loPI   GL1 3669  14.203  13.587   9.048  0.1088 -0.3050  0.0304
  230loPI   GL2 3670  14.184  13.878   8.846  0.3121  0.0071 -0.2895
  230loPI   C1A 3671  13.961  13.450   8.635 -0.1998 -0.0987 -0.3232
  230loPI   C2A 3672  13.904  13.201   8.287 -0.3322  0.0753 -0.0430
  230loPI   C3A 3673  13.817  13.033   7.863  0.0361 -0.0719 -0.1035
  230loPI   C4A 3674  13.942  13.034   7.398 -0.1595 -0.2657  0.3186
  230loPI   C5A 3675  13.672  13.279   7.081 -0.0110  0.0370 -0.5170
  230loPI   C6A 3676  13.394  13.260   6.811  0.0228 -0.0249 -0.0583
  230loPI   C1B 3677  14.500  13.883   8.564 -0.0199  0.4080  0.0749
  230loPI   C2B 3678  14.672  13.779   8.150  0.1552 -0.3205 -0.2324
  230loPI   C3B 3679  14.558  13.819   7.726 -0.2017 -0.0356  0.4519
  230loPI   C4B 3680  14.632  13.759   7.197  0.1408 -0.0095 -0.2063
  231loPI    C1 3681  13.545   9.608   9.743  0.0093  0.3038 -0.1709
  231loPI    C2 3682  13.274   9.786   9.977 -0.0292  0.2924 -0.2067
  231loPI    C3 3683  13.663   9.813  10.065 -0.0755 -0.2231  0.2087
  231loPI   PO4 3684  13.494   9.653   9.512  0.1840 -0.0905  0.0547
  231loPI   GL1 3685  13.353   9.382   9.191  0.1934 -0.1025 -0.1615
  231loPI   GL2 3686  13.226   9.628   9.103 -0.2129 -0.0963  0.3232
  231loPI   C1A 3687  13.521   9.414   8.763 -0.0708 -0.2480 -0.1310
  231loPI   C2A 3688  13.541   9.447   8.365  0.5391 -0.1194 -0.2075
  231loPI   C3A 3689  13.470   9.203   8.110 -0.0879 -0.3150  0.0559
  231loPI   C4A 3690  13.255   8.962   7.727 -0.0907  0.2392 -0.2557
  231loPI   C5A 3691  13.229   9.105   7.299  0.4043  0.1633 -0.1354
  231loPI   C6A 3692  13.292   9.113   6.863 -0.0922  0.0303 -0.1602
  231loPI   C1B 3693  13.036   9.430   8.808 -0.0481 -0.0495  0.2656
  231loPI   C2B 3694  12.850   9.471   8.415 -0.1053  0.2879  0.2210
  231loPI   C3B 3695  12.743   9.631   7.997  0.2218 -0.0128  0.3805
  231loPI   C4B 3696  12.798   9.717   7.552  0.5083  0.2089 -0.0371
  232loPI    C1 3697   9.971  17.083  10.053  0.0005 -0.0070  0.2181
  232loPI    C2 3698   9.999  16.685  10.038 -0.2123 -0.0165 -0.0004
  232loPI    C3 3699   9.755  16.858  10.303  0.1001 -0.0173  0.2955
  232loPI   PO4 3700   9.924  17.187   9.868  0.1251 -0.0063  0.5407
  232loPI   GL1 3701  10.068  17.473   9.502 -0.1175 -0.1398  0.1454
  232loPI   GL2 3702  10.297  17.344   9.514 -0.0872  0.2270  0.0053
  232loPI   C1A 3703   9.856  17.559   9.108 -0.0418  0.0832  0.0641
  232loPI   C2A 3704   9.895  17.763   8.658  0.1228  0.1239  0.1321
  232loPI   C3A 3705   9.748  17.730   8.201  0.1110  0.0394  0.3800
  232loPI   C4A 3706   9.740  17.422   7.807 -0.2090  0.2329 -0.1183
  232loPI   C5A 3707   9.671  17.215   7.467  0.1962 -0.2457 -0.1374
  232loPI   C6A 3708   9.846  17.046   7.098  0.0490  0.0159 -0.1228
  232loPI   C1B 3709  10.337  17.200   9.055  0.0899 -0.2126 -0.0930
  232loPI   C2B 3710  10.121  17.329   8.707 -0.1140  0.2116  0.2187
  232loPI   C3B 3711  10.071  17.349   8.318  0.1467  0.2069  0.0963
  232loPI   C4B 3712  10.234  17.298   7.872  0.0841  0.0572 -0.2356
  233loPI    C1 3713  12.970  10.174   9.762  0.4051 -0.5087 -0.1686
  233loPI    C2 3714  13.193  10.496   9.681  0.0321 -0.2200 -0.0757
  233loPI    C3 3715  13.226  10.314  10.036 -0.2882  0.1780  0.1680
  233loPI   PO4 3716  12.788  10.236   9.492 -0.3689  0.1403  0.2541
  233loPI   GL1 3717  12.862  10.113   9.095 -0.0699 -0.1501  0.0251
  233loPI   GL2 3718  13.122  10.152   8.895 -0.0990 -0.2567  0.2424
  233loPI   C1A 3719  12.722  10.444   8.823  0.1177  0.1187 -0.0237
  233loPI   C2A 3720  13.022  10.611   8.514 -0.0755 -0.1095  0.0476
  233loPI   C3A 3721  13.285  10.736   8.258 -0.1153 -0.5423 -0.0566
  233loPI   C4A 3722  13.095  10.861   7.899  0.4302  0.1659  0.1838
  233loPI   C5A 3723  12.792  10.585   7.771  0.1136 -0.0194 -0.5050
  233loPI   C6A 3724  12.746  10.241   7.421 -0.1332 -0.0503 -0.4377
  233loPI   C1B 3725  13.256   9.866   8.670 -0.0395 -0.1955  0.0052
  233loPI   C2B 3726  13.145   9.792   8.243 -0.0660 -0.0527 -0.0899
  233loPI   C3B 3727  13.161   9.925   7.904 -0.4778 -0.1193 -0.1372
  233loPI   C4B 3728  13.348  10.004   7.545 -0.1364  0.0587 -0.1207
  234loPI    C1 3729  10.391   3.176   9.563  0.0084 -0.1230 -0.1929
  234loPI    C2 3730  10.564   2.921   9.818  0.1843  0.0535 -0.1329
  234loPI    C3 3731  10.789   3.139   9.570  0.0217 -0.0204 -0.3488
  234loPI   PO4 3732  10.148   3.014   9.478 -0.3082 -0.1250  0.0122
  234loPI   GL1 3733  10.120   3.138   9.070  0.0750  0.0311  0.0688
  234loPI   GL2 3734  10.242   3.500   9.069  0.3167 -0.0911  0.2198
  234loPI   C1A 3735   9.924   3.179   8.778 -0.2153 -0.3637 -0.0162
  234loPI   C2A 3736   9.431   3.341   8.698 -0.1144 -0.3391 -0.0444
  234loPI   C3A 3737   9.059   3.502   8.491 -0.1998 -0.0877 -0.0211
  234loPI   C4A 3738   8.888   3.438   8.092  0.1817  0.2124  0.0551
  234loPI   C5A 3739   8.914   3.067   7.705 -0.0040  0.1602  0.1718
  234loPI   C6A 3740   8.930   2.642   7.628 -0.2887  0.0973 -0.4127
  234loPI   C1B 3741  10.278   3.626   8.776  0.1387  0.0079 -0.1621
  234loPI   C2B 3742  10.153   3.782   8.385  0.1810 -0.2346  0.2337
  234loPI   C3B 3743  10.012   3.995   8.045 -0.1546 -0.1649  0.1859
  234loPI   C4B 3744   9.546   4.079   7.924  0.0285 -0.4556 -0.3798
  235loPI    C1 3745   5.588   5.018  10.510  0.0337  0.0976  0.0225
  235loPI    C2 3746   5.828   4.705  10.442  0.2232  0.2416  0.0206
  235loPI    C3 3747   5.774   4.839  10.816 -0.1094  0.0107  0.0597
  235loPI   PO4 3748   5.664   5.239  10.387  0.0958 -0.0278  0.0142
  235loPI   GL1 3749   5.430   5.424   9.944 -0.3821  0.1736 -0.0311
  235loPI   GL2 3750   5.800   5.362   9.895 -0.0018  0.2141 -0.0851
  235loPI   C1A 3751   5.266   5.353   9.574 -0.1439 -0.0945  0.0567
  235loPI   C2A 3752   5.274   5.425   9.203 -0.0074  0.1316  0.1030
  235loPI   C3A 3753   5.231   5.299   8.812 -0.0400  0.3579  0.3026
  235loPI   C4A 3754   5.279   5.358   8.361  0.0213  0.1094 -0.0438
  235loPI   C5A 3755   5.370   5.317   7.997  0.2429 -0.1217  0.1081
  235loPI   C6A 3756   5.369   5.238   7.591  0.2144 -0.1141 -0.0126
  235loPI   C1B 3757   5.883   5.548   9.468  0.1619  0.1715 -0.2055
  235loPI   C2B 3758   5.749   5.715   9.014  0.1811 -0.0249 -0.1568
  235loPI   C3B 3759   5.738   5.687   8.648 -0.1425  0.0050  0.3729
  235loPI   C4B 3760   5.694   5.616   8.191 -0.3111 -0.1537 -0.2042
  236loPI    C1 3761  17.022  18.635   8.975 -0.0881  0.1504  0.2781
  236loPI    C2 3762  17.328  18.890   9.012  0.2441 -0.1951 -0.0075
  236loPI    C3 3763  17.142  18.751   9.338  0.1486  0.2966  0.1557
  236loPI   PO4 3764  16.878  18.755   8.793 -0.0409 -0.0659 -0.0981
  236loPI   GL1 3765  16.771  19.033   8.506  0.0547  0.0704  0.1088
  236loPI   GL2 3766  16.627  18.703   8.328  0.1042 -0.3191 -0.0059
  236loPI   C1A 3767  16.938  19.048   8.205 -0.1971  0.0690  0.1735
  236loPI   C2A 3768  16.933  19.008   7.770 -0.1636  0.0310 -0.1823
  236loPI   C3A 3769  16.820  18.959   7.344  0.1500  0.2843 -0.2100
  236loPI   C4A 3770  17.011  18.704   7.102 -0.0405 -0.5068  0.0147
  236loPI   C5A 3771  16.993  18.263   6.894  0.1579  0.1354  0.3111
  236loPI   C6A 3772  16.907  17.837   6.811  0.0159 -0.2174  0.0195
  236loPI   C1B 3773  16.688  18.600   7.920 -0.3847  0.3827 -0.0146
  236loPI   C2B 3774  16.772  18.511   7.494  0.0835 -0.1956 -0.2053
  236loPI   C3B 3775  16.591  18.272   7.213 -0.1725 -0.1811  0.2625
  236loPI   C4B 3776  16.538  17.827   7.174 -0.0170  0.3270  0.1073
  237loPI    C1 3777  19.011   2.479   9.695 -0.0412  0.1757 -0.0676
  237loPI    C2 3778  18.680   2.578   9.895  0.1006  0.0121  0.2570
  237loPI    C3 3779  18.917   2.288  10.034  0.1940 -0.1202 -0.1640
  237loPI   PO4 3780  19.078   2.720   9.579  0.0334  0.0438 -0.2184
  237loPI   GL1 3781  18.898   2.784   9.152  0.0493 -0.0884  0.5232
  237loPI   GL2 3782  18.989   3.129   9.062  0.3415  0.1624  0.2909
  237loPI   C1A 3783  19.119   2.717   8.741  0.1020 -0.3413  0.0859
  237loPI   C2A 3784  18.965   2.439   8.317 -0.1471  0.0687 -0.2245
  237loPI   C3A 3785  18.805   2.294   7.901  0.1074 -0.1461 -0.1318
  237loPI   C4A 3786  18.650   2.324   7.458 -0.1596 -0.1522 -0.0719
  237loPI   C5A 3787  18.348   2.095   7.192  0.0667 -0.0151 -0.2071
  237loPI   C6A 3788  17.984   1.928   7.043  0.0090 -0.2261 -0.0289
  237loPI   C1B 3789  19.192   3.242   8.760 -0.1432 -0.2387 -0.1625
  237loPI   C2B 3790  19.373   3.170   8.347  0.3817  0.3276  0.3343
  237loPI   C3B 3791  19.607   3.153   7.997 -0.1722 -0.2165  0.0496
  237loPI   C4B 3792  19.481   3.447   7.719 -0.0709 -0.1487  0.1087
  238loPI    C1 3793  16.731  15.612   9.375  0.1604  0.0386 -0.0852
  238loPI    C2 3794  16.497  15.304   9.475  0.0571  0.1406 -0.0101
  238loPI    C3 3795  16.662  15.530   9.760 -0.0742  0.3095 -0.0664
  238loPI   PO4 3796  16.493  15.818   9.219 -0.2070  0.1789 -0.3964
  238loPI   GL1 3797  16.446  15.851   8.771  0.2761 -0.3292  0.1543
  238loPI   GL2 3798  16.852  16.041   8.757  0.2621  0.1308  0.0371
  238loPI   C1A 3799  16.267  15.759   8.393 -0.1871  0.2788  0.3501
  238loPI   C2A 3800  16.324  15.942   8.014 -0.4578 -0.2967 -0.5023
  238loPI   C3A 3801  16.511  15.739   7.670  0.1488  0.2098 -0.1468
  238loPI   C4A 3802  16.515  15.572   7.323  0.1203 -0.1175  0.2173
  238loPI   C5A 3803  16.900  15.425   7.089  0.3875 -0.3518  0.0565
  238loPI   C6A 3804  16.925  15.091   6.910  0.1103  0.1167  0.1292
  238loPI   C1B 3805  16.804  16.017   8.289  0.1816  0.1041 -0.0511
  238loPI   C2B 3806  16.987  15.998   7.906  0.2506  0.2211  0.0947
  238loPI   C3B 3807  16.867  16.039   7.470  0.1297 -0.1417 -0.3667
  238loPI   C4B 3808  16.791  16.292   7.055 -0.2302 -0.2243 -0.1217
  239loPI    C1 3809  12.032  14.933   9.576 -0.0499 -0.0733 -0.0216
  239loPI    C2 3810  12.031  15.047   9.960  0.0368 -0.0166 -0.0377
  239loPI    C3 3811  11.687  15.026   9.756  0.0137  0.1643 -0.0188
  239loPI   PO4 3812  12.218  15.121   9.472 -0.2695  0.1082 -0.1052
  239loPI   GL1 3813  12.563  15.062   9.121  0.1863 -0.2494  0.0710
  239loPI   GL2 3814  12.267  14.901   8.948 -0.0724 -0.0985 -0.1049
  239loPI   C1A 3815  12.539  15.278   8.756 -0.1113  0.0069 -0.0891
  239loPI   C2A 3816  12.593  15.184   8.348  0.2413  0.0408 -0.1062
  239loPI   C3A 3817  12.636  15.126   7.922 -0.3298  0.0756  0.1039
  239loPI   C4A 3818  12.535  15.004   7.504 -0.0004  0.0765  0.0740
  239loPI   C5A 3819  12.101  14.925   7.366  0.0742 -0.0082 -0.1907
  239loPI   C6A 3820  11.770  15.273   7.343 -0.0675  0.2674  0.3212
  239loPI   C1B 3821  12.262  14.842   8.506  0.2295  0.4361 -0.0820
  239loPI   C2B 3822  12.340  14.786   8.068 -0.3762 -0.0095 -0.0976
  239loPI   C3B 3823  12.205  14.659   7.759  0.1551 -0.2511  0.2049
  239loPI   C4B 3824  12.268  14.420   7.347 -0.3684  0.0998  0.1284
  240loPI    C1 3825   8.995  14.779   9.629  0.0761 -0.0601  0.3243
  240loPI    C2 3826   9.033  14.738  10.026  0.2841 -0.0894  0.3023
  240loPI    C3 3827   9.345  14.663   9.786  0.1021 -0.2677  0.1176
  240loPI   PO4 3828   8.909  15.013   9.557 -0.0049  0.0400 -0.0087
  240loPI   GL1 3829   8.717  15.031   9.180  0.0234 -0.3301  0.1267
  240loPI   GL2 3830   8.379  15.027   9.207 -0.2186 -0.0605 -0.0838
  240loPI   C1A 3831   8.705  15.051   8.759 -0.0231 -0.1687 -0.2099
  240loPI   C2A 3832   8.770  15.185   8.386  0.2506  0.1067  0.2138
  240loPI   C3A 3833   8.626  15.113   8.002 -0.0196  0.0966  0.1010
  240loPI   C4A 3834   8.733  15.034   7.462  0.0542  0.0238 -0.3683
  240loPI   C5A 3835   9.021  15.157   7.313 -0.2687 -0.1878 -0.1686
  240loPI   C6A 3836   9.399  15.013   7.164 -0.0436  0.1946 -0.0500
  240loPI   C1B 3837   8.209  15.147   8.873  0.1480 -0.0705  0.5260
  240loPI   C2B 3838   8.088  15.161   8.398 -0.0183  0.0482 -0.2450
  240loPI   C3B 3839   8.087  15.100   7.959 -0.0692  0.2129 -0.4222
  240loPI   C4B 3840   8.319  15.319   7.645  0.0184  0.2150  0.1380
  241loPI    C1 3841   3.434   4.828  10.167  0.0383  0.2459 -0.0974
  241loPI    C2 3842   3.408   4.573  10.474 -0.0045 -0.1270 -0.4026
  241loPI    C3 3843   3.164   4.890  10.456  0.3121  0.1683  0.1806
  241loPI   PO4 3844   3.695   4.845  10.136 -0.0293 -0.3518 -0.1485
  241loPI   GL1 3845   3.774   4.648   9.698  0.0467 -0.1098 -0.2269
  241loPI   GL2 3846   3.601   4.467   9.774 -0.0631  0.2283  0.0502
  241loPI   C1A 3847   4.022   4.503   9.403 -0.1439 -0.0963 -0.2050
  241loPI   C2A 3848   3.930   4.406   9.019  0.1432 -0.4978 -0.1039
  241loPI   C3A 3849   3.964   4.362   8.555 -0.1284  0.0539  0.1422
  241loPI   C4A 3850   3.988   4.564   8.245 -0.0847 -0.2163  0.1513
  241loPI   C5A 3851   3.687   4.647   8.019 -0.1297 -0.0133  0.0210
  241loPI   C6A 3852   3.526   4.897   7.748  0.1007  0.0338  0.2298
  241loPI   C1B 3853   3.531   4.347   9.326 -0.4526 -0.0637  0.1485
  241loPI   C2B 3854   3.673   3.995   8.911 -0.2095 -0.0557  0.1307
  241loPI   C3B 3855   3.771   3.917   8.540 -0.1279  0.2945  0.1592
  241loPI   C4B 3856   3.826   3.568   8.132 -0.3221  0.1462 -0.1020
  242loPI    C1 3857   8.790   7.539  10.639 -0.1095 -0.0236  0.0538
  242loPI    C2 3858   8.548   7.669  10.348 -0.0713 -0.0243  0.0216
  242loPI    C3 3859   8.521   7.825  10.716 -0.0748  0.0234  0.0013
  242loPI   PO4 3860   8.964   7.447  10.422 -0.4941 -0.1176  0.0889
  242loPI   GL1 3861   8.929   7.434   9.949 -0.2015 -0.1208 -0.0104
  242loPI   GL2 3862   8.768   7.205  10.056 -0.0289  0.1129 -0.0173
  242loPI   C1A 3863   8.888   7.669   9.580 -0.1877  0.3442 -0.1396
  242loPI   C2A 3864   8.873   8.114   9.358 -0.2518 -0.0849  0.0188
  242loPI   C3A 3865   8.846   8.159   8.934 -0.1942 -0.2866  0.1760
  242loPI   C4A 3866   8.863   8.199   8.522 -0.2114  0.3815  0.1153
  242loPI   C5A 3867   8.882   8.388   8.132  0.1432  0.4196 -0.2442
  242loPI   C6A 3868   9.253   8.412   7.839 -0.0598 -0.0027 -0.0008
  242loPI   C1B 3869   8.699   7.233   9.595  0.0883  0.1254 -0.3224
  242loPI   C2B 3870   8.435   7.200   9.165  0.1212 -0.1990  0.4089
  242loPI   C3B 3871   8.268   7.289   8.715  0.1508  0.3227 -0.1044
  242loPI   C4B 3872   8.111   7.429   8.410 -0.2135  0.0370  0.1447
  243loPI    C1 3873   3.944   9.811  10.211 -0.2009 -0.1170 -0.1083
  243loPI    C2 3874   3.743  10.147  10.289 -0.1215 -0.0456 -0.2072
  243loPI    C3 3875   3.892   9.929  10.589 -0.1531  0.0197 -0.1436
  243loPI   PO4 3876   4.114   9.912   9.942  0.0280  0.0471 -0.0246
  243loPI   GL1 3877   4.089   9.932   9.482  0.0626 -0.2155  0.2975
  243loPI   GL2 3878   3.744   9.784   9.416  0.1658  0.3365 -0.0485
  243loPI   C1A 3879   4.260   9.895   9.078 -0.1284  0.5992  0.0077
  243loPI   C2A 3880   4.277   9.757   8.699 -0.1897  0.0330 -0.3727
  243loPI   C3A 3881   4.365   9.575   8.343 -0.1336 -0.2507 -0.2111
  243loPI   C4A 3882   4.487   9.435   7.956 -0.1175 -0.2669  0.4123
  243loPI   C5A 3883   4.775   9.631   7.589 -0.3062 -0.1646  0.1541
  243loPI   C6A 3884   4.974   9.934   7.277  0.4438  0.0219  0.2424
  243loPI   C1B 3885   3.845   9.682   8.932 -0.0835 -0.0668  0.1152
  243loPI   C2B 3886   3.660   9.582   8.559  0.4413 -0.2667 -0.1496
  243loPI   C3B 3887   3.605   9.843   8.149 -0.3205 -0.0934  0.0269
  243loPI   C4B 3888   3.600   9.783   7.741  0.0489  0.0194  0.0150
  244loPI    C1 3889   3.378   1.672  10.777  0.1522 -0.1401 -0.1577
  244loPI    C2 3890   3.168   1.558  10.456 -0.0218  0.0941 -0.1297
  244loPI    C3 3891   3.204   1.312  10.768 -0.1129 -0.0136 -0.2036
  244loPI   PO4 3892   3.604   1.837  10.661  0.0632 -0.1558  0.0138
  244loPI   GL1 3893   3.528   1.949  10.271  0.0511  0.0910 -0.1101
  244loPI   GL2 3894   3.329   2.084  10.099 -0.1467  0.2460  0.2218
  244loPI   C1A 3895   3.722   1.875   9.840 -0.2116  0.0601  0.4709
  244loPI   C2A 3896   3.915   1.934   9.363  0.3746 -0.1177  0.1931
  244loPI   C3A 3897   3.918   2.019   8.927  0.2133  0.3375  0.1176
  244loPI   C4A 3898   4.038   2.185   8.608 -0.0159 -0.0327 -0.1439
  244loPI   C5A 3899   4.141   1.980   8.169 -0.1421 -0.0705  0.0308
  244loPI   C6A 3900   4.220   1.704   7.813 -0.1157  0.0100 -0.1162
  244loPI   C1B 3901   3.392   2.089   9.522  0.2460 -0.1785 -0.0301
  244loPI   C2B 3902   3.432   2.016   9.048  0.5635  0.0754  0.3305
  244loPI   C3B 3903   3.232   1.712   8.698 -0.3420 -0.1752 -0.2479
  244loPI   C4B 3904   3.355   1.705   8.284  0.2847 -0.0560  0.0990
  245loPI    C1 3905  10.305  18.233  10.304 -0.0796 -0.0329 -0.0336
  245loPI    C2 3906   9.997  18.452  10.172 -0.1614 -0.0622  0.1057
  245loPI    C3 3907  10.119  18.487  10.551 -0.1503 -0.2303  0.1184
  245loPI   PO4 3908  10.257  17.994  10.080  0.0970  0.1376 -0.1179
  245loPI   GL1 3909  10.356  17.838   9.649  0.1351  0.2967 -0.0416
  245loPI   GL2 3910  10.464  18.165   9.557  0.1338 -0.1031  0.1608
  245loPI   C1A 3911  10.259  17.777   9.170  0.1548 -0.1323  0.0323
  245loPI   C2A 3912  10.467  17.688   8.737 -0.0167  0.0241 -0.0763
  245loPI   C3A 3913  10.324  17.795   8.331  0.1071 -0.3189  0.2910
  245loPI   C4A 3914  10.126  17.944   7.907 -0.0848  0.1582  0.0511
  245loPI   C5A 3915  10.102  18.139   7.501 -0.0336  0.1005 -0.1398
  245loPI   C6A 3916   9.726  18.356   7.175 -0.0467 -0.1011  0.1813
  245loPI   C1B 3917  10.291  18.252   9.135 -0.0643  0.1143 -0.1123
  245loPI   C2B 3918  10.266  18.165   8.714 -0.0057 -0.0203  0.0342
  245loPI   C3B 3919  10.036  18.208   8.386 -0.1843  0.0483 -0.0748
  245loPI   C4B 3920   9.932  18.454   8.038 -0.2248 -0.0065 -0.1849
  246loPI    C1 3921  12.792   7.114  10.559  0.0144 -0.1087  0.0947
  246loPI    C2 3922  12.416   7.180  10.679 -0.0564 -0.3709  0.0225
  246loPI    C3 3923  12.716   7.193  10.943 -0.0991 -0.0392  0.0583
  246loPI   PO4 3924  12.785   7.269  10.259 -0.0097  0.3036  0.0135
  246loPI   GL1 3925  13.112   7.419   9.900 -0.0495 -0.0106  0.1311
  246loPI   GL2 3926  13.377   7.771   9.919  0.3834  0.1831  0.0446
  246loPI   C1A 3927  13.380   7.247   9.553  0.2270 -0.3496  0.1480
  246loPI   C2A 3928  13.408   7.006   9.072  0.0429  0.2882 -0.3530
  246loPI   C3A 3929  13.273   6.952   8.591  0.2487 -0.1316  0.0458
  246loPI   C4A 3930  13.114   6.937   8.241 -0.3498 -0.0347 -0.0981
  246loPI   C5A 3931  13.324   7.096   7.866  0.1864 -0.3132  0.0465
  246loPI   C6A 3932  13.670   7.385   7.567  0.1323 -0.3152 -0.1380
  246loPI   C1B 3933  13.551   7.682   9.461  0.2640  0.0242  0.0797
  246loPI   C2B 3934  13.643   7.416   9.095  0.0204  0.1467 -0.1635
  246loPI   C3B 3935  13.773   7.590   8.799 -0.0750 -0.1368  0.3099
  246loPI   C4B 3936  13.950   7.612   8.437 -0.1084  0.0460  0.1015
  247loPI    C1 3937  12.175   3.276   9.743  0.0547 -0.1714  0.0319
  247loPI    C2 3938  12.504   3.493   9.808 -0.1005 -0.0469  0.4339
  247loPI    C3 3939  12.370   3.244  10.091 -0.1548 -0.3653  0.1344
  247loPI   PO4 3940  12.216   3.209   9.474 -0.1985 -0.2221  0.0747
  247loPI   GL1 3941  12.385   3.226   9.130 -0.0587 -0.0222  0.5371
  247loPI   GL2 3942  12.315   3.551   9.066 -0.2432  0.3268 -0.0294
  247loPI   C1A 3943  12.424   3.290   8.654 -0.0468 -0.0013 -0.2413
  247loPI   C2A 3944  12.453   3.282   8.298 -0.0031  0.1005 -0.1180
  247loPI   C3A 3945  12.592   3.571   7.972 -0.1984  0.1581 -0.0586
  247loPI   C4A 3946  12.589   3.891   7.699 -0.1200 -0.0545  0.0922
  247loPI   C5A 3947  12.221   3.921   7.485  0.0696  0.2427  0.2372
  247loPI   C6A 3948  11.973   4.066   7.201 -0.2637  0.2411 -0.0678
  247loPI   C1B 3949  12.647   3.740   8.762  0.0317 -0.0416  0.1903
  247loPI   C2B 3950  12.638   3.961   8.365 -0.0404  0.0929 -0.1155
  247loPI   C3B 3951  12.763   4.208   8.061 -0.2357 -0.0092  0.1443
  247loPI   C4B 3952  13.060   4.406   7.784 -0.1700 -0.0650  0.0427
  248loPI    C1 3953   5.203   1.140  10.286 -0.1117  0.0078 -0.1364
  248loPI    C2 3954   5.237   0.858  10.567 -0.0737 -0.0517 -0.2006
  248loPI    C3 3955   4.919   1.100  10.565 -0.2179 -0.2396 -0.2773
  248loPI   PO4 3956   5.453   1.062  10.033 -0.2504  0.1918 -0.2717
  248loPI   GL1 3957   5.630   1.361   9.708  0.0474  0.1398 -0.0727
  248loPI   GL2 3958   5.491   1.595   9.636 -0.0338  0.0142 -0.1197
  248loPI   C1A 3959   5.710   1.461   9.205 -0.0635 -0.2804 -0.1947
  248loPI   C2A 3960   5.819   1.288   8.743  0.0221 -0.2344  0.0923
  248loPI   C3A 3961   5.921   1.255   8.314 -0.2147 -0.0844 -0.1216
  248loPI   C4A 3962   5.943   1.046   7.889  0.0115 -0.3460 -0.2279
  248loPI   C5A 3963   6.009   0.986   7.429  0.0735  0.1961 -0.0779
  248loPI   C6A 3964   5.823   0.824   7.162 -0.2446 -0.2505  0.1711
  248loPI   C1B 3965   5.338   1.702   9.257  0.2666 -0.2706 -0.1171
  248loPI   C2B 3966   5.426   1.782   8.923  0.1133  0.0777 -0.0097
  248loPI   C3B 3967   5.512   1.617   8.462 -0.1489  0.1751 -0.0015
  248loPI   C4B 3968   5.585   1.456   7.989  0.2991 -0.1131  0.0200
  249loPI    C1 3969   3.045  11.102   9.524 -0.0253  0.1282  0.0347
  249loPI    C2 3970   2.970  10.888   9.853  0.0687  0.0703  0.0191
  249loPI    C3 3971   2.800  11.247   9.804 -0.1445 -0.0301  0.0137
  249loPI   PO4 3972   3.261  10.899   9.454 -0.0729  0.0509 -0.2250
  249loPI   GL1 3973   3.315  10.844   9.057  0.2885  0.3438 -0.0165
  249loPI   GL2 3974   2.986  10.872   9.039  0.0546 -0.3992  0.1903
  249loPI   C1A 3975   3.312  10.458   8.856  0.0133  0.1544 -0.2448
  249loPI   C2A 3976   3.294  10.403   8.305 -0.0205 -0.0755  0.1109
  249loPI   C3A 3977   3.415  10.377   7.830 -0.1760 -0.1231 -0.0694
  249loPI   C4A 3978   3.428  10.180   7.489 -0.0743  0.0614  0.4089
  249loPI   C5A 3979   3.271   9.967   7.207  0.2252 -0.4607 -0.1749
  249loPI   C6A 3980   2.863   9.745   7.070  0.1052 -0.0813  0.3156
  249loPI   C1B 3981   2.877  10.785   8.696 -0.1404  0.0409  0.0520
  249loPI   C2B 3982   3.024  10.860   8.207 -0.3339  0.3387 -0.0055
  249loPI   C3B 3983   3.009  10.963   7.716  0.1923 -0.2192  0.1533
  249loPI   C4B 3984   3.044  11.264   7.353 -0.1323 -0.3114  0.0873
  250loPI    C1 3985  12.376   1.487   9.889 -0.1371  0.0789 -0.0911
  250loPI    C2 3986  12.699   1.473  10.125 -0.2612 -0.3476  0.0628
  250loPI    C3 3987  12.372   1.669  10.245 -0.1409 -0.1095  0.0067
  250loPI   PO4 3988  12.485   1.399   9.685  0.0024  0.0807  0.4611
  250loPI   GL1 3989  12.342   1.451   9.306 -0.5385  0.1462  0.0126
  250loPI   GL2 3990  12.368   1.833   9.397  0.1235  0.0469 -0.3747
  250loPI   C1A 3991  12.162   1.665   8.967  0.1633  0.2527 -0.0567
  250loPI   C2A 3992  12.204   1.883   8.612 -0.0432 -0.0916  0.1490
  250loPI   C3A 3993  12.169   1.961   8.194 -0.0205 -0.0400  0.0383
  250loPI   C4A 3994  12.009   2.074   7.794  0.1609 -0.0998 -0.0631
  250loPI   C5A 3995  11.936   2.171   7.368  0.0043  0.1017 -0.0672
  250loPI   C6A 3996  11.734   2.028   6.974 -0.1424 -0.0488  0.0468
  250loPI   C1B 3997  12.604   1.761   8.946  0.1278 -0.4279 -0.2369
  250loPI   C2B 3998  12.719   1.787   8.616 -0.0075 -0.2489 -0.0155
  250loPI   C3B 3999  12.660   1.799   8.142  0.1752  0.0747  0.0507
  250loPI   C4B 4000  12.726   1.780   7.703  0.1720 -0.0889  0.3442
  251loPI    C1 4001   8.401  13.272  10.086 -0.0055  0.2582  0.0882
  251loPI    C2 4002   8.584  13.626  10.118  0.1892  0.1445  0.2630
  251loPI    C3 4003   8.456  13.437  10.446  0.0865  0.0518  0.1704
  251loPI   PO4 4004   8.503  13.198   9.825 -0.0212  0.1672  0.1947
  251loPI   GL1 4005   8.673  13.142   9.398 -0.1513 -0.2107 -0.3260
  251loPI   GL2 4006   8.723  12.830   9.521  0.1137 -0.1971 -0.0188
  251loPI   C1A 4007   9.119  13.126   9.133 -0.1513 -0.2859  0.0241
  251loPI   C2A 4008   9.307  13.073   8.641 -0.0069  0.1093 -0.1359
  251loPI   C3A 4009   9.249  12.983   8.204 -0.3995  0.2536 -0.3026
  251loPI   C4A 4010   9.431  12.948   7.725  0.2164 -0.2152 -0.0083
  251loPI   C5A 4011   9.273  12.815   7.390 -0.0294  0.0678  0.1909
  251loPI   C6A 4012   8.995  12.767   7.042  0.2268 -0.0256 -0.2391
  251loPI   C1B 4013   8.428  12.702   9.137  0.0993  0.0876 -0.2570
  251loPI   C2B 4014   8.195  12.748   8.750 -0.0747  0.1124  0.0052
  251loPI   C3B 4015   8.270  12.792   8.344  0.0422 -0.0903  0.1782
  251loPI   C4B 4016   8.409  12.553   7.978 -0.3563 -0.1620 -0.4023
  252loPI    C1 4017   8.348   0.721   9.956 -0.3319 -0.0354 -0.3856
  252loPI    C2 4018   8.260   0.517  10.289  0.3221  0.0833 -0.1254
  252loPI    C3 4019   8.048   0.842  10.191 -0.0196 -0.0824  0.0491
  252loPI   PO4 4020   8.312   0.515   9.740 -0.2351  0.3339  0.2631
  252loPI   GL1 4021   8.312   0.576   9.298 -0.0490  0.1776 -0.5708
  252loPI   GL2 4022   8.312   0.915   9.310 -0.2338  0.4419  0.3597
  252loPI   C1A 4023   8.160   0.558   8.848 -0.0869  0.0622  0.1496
  252loPI   C2A 4024   8.114   0.950   8.632 -0.1172 -0.1273 -0.0093
  252loPI   C3A 4025   8.072   1.234   8.260  0.2366  0.0844  0.0650
  252loPI   C4A 4026   8.280   1.283   7.903 -0.3578 -0.1774 -0.3263
  252loPI   C5A 4027   8.675   1.065   7.645 -0.1995  0.0145  0.1574
  252loPI   C6A 4028   8.694   0.618   7.456  0.0985  0.2719  0.0939
  252loPI   C1B 4029   8.591   1.013   8.933  0.0073 -0.1002 -0.2447
  252loPI   C2B 4030   8.543   0.676   8.608  0.2050 -0.0067 -0.0288
  252loPI   C3B 4031   8.245   0.637   8.188 -0.0935 -0.1716  0.0020
  252loPI   C4B 4032   8.348   0.683   7.811  0.0252  0.2425  0.2708
  253loPI    C1 4033  16.243  18.942   9.073  0.1964 -0.1586  0.0517
  253loPI    C2 4034  16.244  18.640   9.336 -0.1707 -0.0181  0.2208
  253loPI    C3 4035  15.941  18.902   9.332 -0.0612  0.1102 -0.1989
  253loPI   PO4 4036  16.348  18.824   8.821 -0.1727  0.2739  0.0336
  253loPI   GL1 4037  16.167  18.587   8.489  0.1731 -0.3079 -0.0730
  253loPI   GL2 4038  15.942  18.778   8.352  0.1144 -0.0213 -0.0411
  253loPI   C1A 4039  16.103  18.570   7.961 -0.1109  0.0610 -0.2095
  253loPI   C2A 4040  16.186  18.509   7.503 -0.1300 -0.0335  0.2441
  253loPI   C3A 4041  16.363  18.777   7.199  0.2064  0.1212 -0.1881
  253loPI   C4A 4042  16.581  18.809   6.844  0.0306 -0.2484 -0.2479
  253loPI   C5A 4043  16.664  19.122   6.609  0.2665  0.2444  0.1348
  253loPI   C6A 4044  16.646  19.494   6.356  0.1327  0.0075  0.3087
  253loPI   C1B 4045  15.872  19.032   8.055  0.1848 -0.1014 -0.2223
  253loPI   C2B 4046  15.974  19.008   7.700 -0.2448 -0.0626  0.1215
  253loPI   C3B 4047  16.007  19.076   7.324 -0.5717 -0.0976  0.0270
  253loPI   C4B 4048  16.027  19.097   6.822 -0.0294  0.1408 -0.2214
  254loPI    C1 4049   3.623  13.268   9.947 -0.1798  0.0847  0.4108
  254loPI    C2 4050   3.566  13.559   9.678 -0.5162 -0.1620  0.2073
  254loPI    C3 4051   3.816  13.616   9.985  0.0038  0.0690 -0.2414
  254loPI   PO4 4052   3.542  12.991   9.772  0.2279  0.2347 -0.1033
  254loPI   GL1 4053   3.668  12.994   9.361 -0.0901 -0.1080 -0.0358
  254loPI   GL2 4054   3.379  13.170   9.173 -0.2947 -0.1815  0.1201
  254loPI   C1A 4055   3.805  12.917   8.941  0.1372  0.0388 -0.0177
  254loPI   C2A 4056   3.800  12.848   8.449  0.2111 -0.2312  0.1478
  254loPI   C3A 4057   3.722  12.862   7.936 -0.0857  0.3059 -0.1568
  254loPI   C4A 4058   3.890  13.111   7.555  0.0089  0.4217  0.0828
  254loPI   C5A 4059   3.585  13.225   7.216  0.0956  0.0634 -0.1089
  254loPI   C6A 4060   3.376  13.248   6.858  0.1559 -0.1175 -0.0310
  254loPI   C1B 4061   3.397  13.024   8.684 -0.3707  0.0380  0.0848
  254loPI   C2B 4062   3.364  12.972   8.220 -0.2621 -0.1939  0.1008
  254loPI   C3B 4063   3.110  13.110   7.985  0.0118 -0.0525  0.0929
  254loPI   C4B 4064   2.834  13.272   7.772 -0.0665 -0.2830  0.0601
  255loPI    C1 4065   5.508  10.972   9.917  0.0351 -0.0426  0.0079
  255loPI    C2 4066   5.619  10.606  10.031  0.1715 -0.0520 -0.1515
  255loPI    C3 4067   5.765  10.927  10.220  0.0329 -0.0794  0.0044
  255loPI   PO4 4068   5.531  10.914   9.600  0.2182 -0.2248  0.1985
  255loPI   GL1 4069   5.753  11.029   9.320 -0.2555  0.1939 -0.0821
  255loPI   GL2 4070   5.768  11.474   9.330  0.1374 -0.0721  0.1964
  255loPI   C1A 4071   5.790  11.080   8.836 -0.0095 -0.0175 -0.0171
  255loPI   C2A 4072   5.691  10.921   8.337 -0.2026  0.0474 -0.3150
  255loPI   C3A 4073   5.652  10.751   7.926 -0.1281  0.0569 -0.1032
  255loPI   C4A 4074   5.613  10.721   7.554 -0.3287  0.2482  0.1655
  255loPI   C5A 4075   5.301  10.779   7.226 -0.0156 -0.1295  0.2160
  255loPI   C6A 4076   5.129  11.070   7.079  0.0513  0.1012 -0.2357
  255loPI   C1B 4077   5.740  11.578   8.896  0.2867  0.0666  0.2022
  255loPI   C2B 4078   5.540  11.382   8.490 -0.0936  0.1180 -0.0537
  255loPI   C3B 4079   5.470  11.252   7.991  0.0882  0.1355  0.1807
  255loPI   C4B 4080   5.238  11.091   7.592 -0.0761 -0.1792 -0.2388
  256loPI    C1 4081  16.409   9.539  10.075  0.2798 -0.1896 -0.1974
  256loPI    C2 4082  16.608   9.849  10.231  0.1353 -0.1518 -0.0856
  256loPI    C3 4083  16.560   9.515  10.445  0.0970 -0.1686 -0.1205
  256loPI   PO4 4084  16.501   9.471   9.797 -0.1059 -0.1803 -0.1270
  256loPI   GL1 4085  16.327   9.372   9.388  0.0950 -0.5717  0.1413
  256loPI   GL2 4086  16.430   9.515   9.082 -0.1547 -0.1383 -0.0059
  256loPI   C1A 4087  15.939   9.236   9.194 -0.1930  0.0680  0.0874
  256loPI   C2A 4088  15.925   9.186   8.699  0.2294  0.0392 -0.1951
  256loPI   C3A 4089  15.819   9.185   8.299  0.3342  0.2328 -0.0648
  256loPI   C4A 4090  15.430   9.235   8.047  0.2542 -0.3180 -0.0868
  256loPI   C5A 4091  15.273   9.378   7.644  0.1587  0.3067  0.3254
  256loPI   C6A 4092  15.062   9.441   7.292  0.0327 -0.1174 -0.2579
  256loPI   C1B 4093  16.372   9.491   8.660 -0.0978 -0.2105 -0.3614
  256loPI   C2B 4094  16.203   9.563   8.268  0.2491 -0.0656 -0.0427
  256loPI   C3B 4095  15.972   9.462   7.907 -0.2154  0.1103 -0.1734
  256loPI   C4B 4096  15.790   9.584   7.496  0.0433  0.2764  0.0840
  257loPI    C1 4097  13.885   9.308  10.181 -0.2004  0.1086  0.0087
  257loPI    C2 4098  14.142   9.615  10.190  0.2876 -0.2918  0.1933
  257loPI    C3 4099  14.049   9.422  10.527 -0.1955 -0.2115  0.1142
  257loPI   PO4 4100  13.975   9.268   9.836 -0.0191  0.1539  0.0839
  257loPI   GL1 4101  13.873   9.236   9.387  0.2173 -0.0350  0.0969
  257loPI   GL2 4102  13.846   9.482   9.262 -0.4426  0.1880  0.2315
  257loPI   C1A 4103  13.827   9.035   9.001  0.1957  0.0434  0.0040
  257loPI   C2A 4104  14.055   8.945   8.719 -0.0221  0.4637  0.1147
  257loPI   C3A 4105  13.861   8.937   8.321  0.0637  0.1951 -0.1166
  257loPI   C4A 4106  13.648   8.782   8.006 -0.2827  0.1008 -0.0766
  257loPI   C5A 4107  13.645   8.660   7.609 -0.0024 -0.1491  0.6474
  257loPI   C6A 4108  13.723   8.804   7.150 -0.0555 -0.2616 -0.0171
  257loPI   C1B 4109  14.067   9.464   8.896 -0.0839 -0.2024 -0.0180
  257loPI   C2B 4110  14.038   9.420   8.431 -0.0712  0.1092 -0.0199
  257loPI   C3B 4111  14.025   9.322   7.993 -0.1079 -0.0467  0.1922
  257loPI   C4B 4112  13.715   9.147   7.640  0.0291 -0.3599  0.2272
  258loPI    C1 4113   4.123  13.240   9.971  0.0123 -0.0276  0.1315
  258loPI    C2 4114   3.949  12.953  10.188  0.0484 -0.0443  0.1385
  258loPI    C3 4115   4.091  13.282  10.367 -0.2806  0.1266  0.0943
  258loPI   PO4 4116   4.064  13.258   9.734 -0.0768 -0.1663 -0.0884
  258loPI   GL1 4117   3.979  13.336   9.293  0.0435  0.2010 -0.0320
  258loPI   GL2 4118   4.288  13.223   9.239  0.1207  0.1040 -0.1388
  258loPI   C1A 4119   3.752  13.407   8.975  0.0691  0.0783 -0.0646
  258loPI   C2A 4120   3.811  13.364   8.491  0.2150  0.1395  0.0181
  258loPI   C3A 4121   3.653  13.425   8.016 -0.0227  0.1177 -0.3772
  258loPI   C4A 4122   3.453  13.445   7.658 -0.0581  0.0996 -0.0656
  258loPI   C5A 4123   3.090  13.497   7.395  0.0077  0.1272 -0.0094
  258loPI   C6A 4124   2.739  13.750   7.327 -0.0536  0.0802 -0.1631
  258loPI   C1B 4125   4.260  13.541   8.925  0.1433 -0.0187  0.1744
  258loPI   C2B 4126   4.288  13.818   8.637 -0.3946  0.1217  0.0932
  258loPI   C3B 4127   4.517  14.035   8.254 -0.1763  0.2563 -0.1753
  258loPI   C4B 4128   4.453  13.833   7.891  0.0525  0.0982 -0.2285
  259loPI    C1 4129   7.794  11.833  10.049  0.0070  0.1321 -0.2856
  259loPI    C2 4130   7.687  12.027   9.716 -0.0093  0.3720 -0.1431
  259loPI    C3 4131   7.728  12.227  10.060 -0.1903  0.0933  0.0451
  259loPI   PO4 4132   8.044  11.742  10.038  0.1217 -0.2200 -0.1535
  259loPI   GL1 4133   8.127  11.748   9.642  0.1800 -0.0596 -0.3190
  259loPI   GL2 4134   7.960  11.484   9.496  0.0355 -0.3247 -0.1029
  259loPI   C1A 4135   8.241  11.748   9.217 -0.2748 -0.3678 -0.0322
  259loPI   C2A 4136   8.232  11.627   8.637 -0.1375 -0.2655  0.0043
  259loPI   C3A 4137   8.314  11.578   8.207  0.0797 -0.0518 -0.4415
  259loPI   C4A 4138   7.985  11.525   7.960  0.0290  0.4497  0.3783
  259loPI   C5A 4139   8.034  11.177   7.642 -0.2977 -0.0618 -0.0389
  259loPI   C6A 4140   8.011  11.058   7.213 -0.0402  0.1776  0.0559
  259loPI   C1B 4141   7.759  11.788   9.258  0.4567  0.0481 -0.2695
  259loPI   C2B 4142   7.888  11.950   8.837  0.4931 -0.2111 -0.0002
  259loPI   C3B 4143   7.787  11.953   8.469  0.3310  0.2590  0.1641
  259loPI   C4B 4144   7.969  12.004   8.026  0.1133 -0.2588  0.2626
  260loPI    C1 4145   7.093   5.466  10.489  0.1175  0.0884  0.0805
  260loPI    C2 4146   6.931   5.358  10.838  0.0069 -0.1113 -0.0304
  260loPI    C3 4147   6.697   5.414  10.518  0.1167 -0.0106 -0.0936
  260loPI   PO4 4148   7.250   5.341  10.463 -0.1900  0.0439  0.0802
  260loPI   GL1 4149   7.311   5.272   9.957  0.2578  0.0386  0.1487
  260loPI   GL2 4150   7.690   5.338  10.094  0.1708 -0.0142  0.2578
  260loPI   C1A 4151   7.363   5.272   9.465  0.0735 -0.0667 -0.0415
  260loPI   C2A 4152   7.339   5.352   9.059  0.3033 -0.2272  0.0606
  260loPI   C3A 4153   7.434   5.370   8.577 -0.3396 -0.1773  0.3351
  260loPI   C4A 4154   7.635   5.241   8.308 -0.2604 -0.0891  0.0490
  260loPI   C5A 4155   7.506   5.064   7.975 -0.2427 -0.2094  0.1296
  260loPI   C6A 4156   7.552   4.827   7.566  0.0933  0.1506 -0.0889
  260loPI   C1B 4157   7.690   5.585   9.747  0.0396  0.2422 -0.0527
  260loPI   C2B 4158   7.597   5.702   9.325  0.0132 -0.4401 -0.3018
  260loPI   C3B 4159   7.577   5.771   8.941 -0.3537 -0.2703 -0.1238
  260loPI   C4B 4160   7.270   5.890   8.699  0.0872 -0.1484  0.4330
  261loPI    C1 4161   0.431  13.246   9.499 -0.1205  0.0586  0.0094
  261loPI    C2 4162   0.452  13.622   9.364 -0.0298 -0.0392 -0.2556
  261loPI    C3 4163   0.104  13.477   9.499 -0.0036  0.2269  0.1157
  261loPI   PO4 4164   0.767  13.148   9.466 -0.1149  0.0446  0.0188
  261loPI   GL1 4165   0.841  13.275   9.016  0.0815 -0.1077 -0.1567
  261loPI   GL2 4166   0.572  13.002   9.063 -0.1801 -0.2853  0.1922
  261loPI   C1A 4167   0.682  13.330   8.614  0.0226 -0.2029  0.5947
  261loPI   C2A 4168   0.640  13.331   8.161 -0.0666 -0.2035  0.1909
  261loPI   C3A 4169   0.738  13.534   7.747  0.0380 -0.3217  0.0438
  261loPI   C4A 4170   0.828  13.493   7.290 -0.2248  0.2069  0.2444
  261loPI   C5A 4171   0.908  13.503   6.858  0.1064 -0.1681 -0.0521
  261loPI   C6A 4172   0.647  13.795   6.659 -0.1779 -0.0226  0.0567
  261loPI   C1B 4173   0.272  13.053   8.646 -0.0725  0.0248 -0.1990
  261loPI   C2B 4174   0.174  13.400   8.389 -0.1869 -0.0568  0.4017
  261loPI   C3B 4175   0.186  13.442   7.883  0.1175  0.2248 -0.1570
  261loPI   C4B 4176   0.256  13.468   7.463  0.2996 -0.0830 -0.0656
  262loPI    C1 4177  12.491  14.169   9.562  0.0556  0.2227 -0.0802
  262loPI    C2 4178  12.133  14.295   9.686 -0.0639 -0.0035 -0.1880
  262loPI    C3 4179  12.330  14.018   9.896  0.1300  0.2478 -0.0328
  262loPI   PO4 4180  12.466  14.140   9.316  0.1951  0.2905  0.0755
  262loPI   GL1 4181  12.601  13.837   8.980 -0.4154 -0.0205 -0.1757
  262loPI   GL2 4182  12.804  14.051   8.928 -0.2389  0.0449 -0.0500
  262loPI   C1A 4183  12.505  13.910   8.522  0.0420 -0.2584  0.1077
  262loPI   C2A 4184  12.464  13.798   8.109  0.4366 -0.5075 -0.1590
  262loPI   C3A 4185  12.512  13.603   7.664 -0.0356  0.2470  0.1521
  262loPI   C4A 4186  12.499  13.404   7.203 -0.3767 -0.0781 -0.3280
  262loPI   C5A 4187  12.906  13.396   7.009  0.0695 -0.2888  0.0661
  262loPI   C6A 4188  13.289  13.497   7.226  0.0328 -0.1618 -0.2223
  262loPI   C1B 4189  12.849  14.277   8.579  0.1534  0.1261 -0.2282
  262loPI   C2B 4190  12.801  14.149   8.183 -0.1670  0.0626 -0.1815
  262loPI   C3B 4191  12.857  13.941   7.792  0.3216 -0.0469 -0.3890
  262loPI   C4B 4192  12.858  13.798   7.365  0.1152  0.1300  0.2235
  263loPI    C1 4193   8.993  18.316  10.135  0.0910  0.1992 -0.0904
  263loPI    C2 4194   9.065  18.454  10.504  0.2664  0.2021 -0.1248
  263loPI    C3 4195   9.231  18.111  10.383 -0.2323 -0.0892 -0.0110
  263loPI   PO4 4196   8.994  18.452   9.936 -0.0685 -0.1207 -0.0626
  263loPI   GL1 4197   8.757  18.528   9.561  0.2452 -0.3494 -0.2391
  263loPI   GL2 4198   8.710  18.273   9.229  0.3926  0.2151  0.0373
  263loPI   C1A 4199   8.978  18.680   9.154  0.2840  0.1820  0.2403
  263loPI   C2A 4200   8.996  18.644   8.602  0.1669  0.2536 -0.3421
  263loPI   C3A 4201   9.083  18.459   8.299 -0.0882 -0.0576 -0.3369
  263loPI   C4A 4202   9.211  18.499   7.949 -0.1069 -0.1204 -0.0109
  263loPI   C5A 4203   9.221  18.476   7.453  0.0779  0.0350 -0.2113
  263loPI   C6A 4204   9.246  18.120   7.160 -0.0279 -0.1334 -0.0979
  263loPI   C1B 4205   8.816  18.093   8.796  0.0734 -0.1411  0.2566
  263loPI   C2B 4206   8.831  18.037   8.362 -0.0148 -0.0311 -0.0997
  263loPI   C3B 4207   8.813  18.205   7.957  0.0513  0.3606  0.0694
  263loPI   C4B 4208   8.729  18.349   7.510 -0.0723  0.2461 -0.0862
  264loPI    C1 4209   4.362  10.392   9.978 -0.3294 -0.0046 -0.0468
  264loPI    C2 4210   4.532  10.080  10.162 -0.2372  0.0402 -0.0551
  264loPI    C3 4211   4.268  10.308  10.358  0.1542  0.3234  0.1561
  264loPI   PO4 4212   4.274  10.307   9.686 -0.1580 -0.2227 -0.4424
  264loPI   GL1 4213   4.165  10.568   9.308  0.1451  0.2105 -0.5882
  264loPI   GL2 4214   4.406  10.343   9.215  0.2543  0.0215 -0.2871
  264loPI   C1A 4215   4.189  10.806   8.916  0.2775  0.1545 -0.2807
  264loPI   C2A 4216   4.239  10.951   8.447  0.0276  0.1194 -0.1230
  264loPI   C3A 4217   4.119  10.962   7.963  0.0562 -0.2093  0.0886
  264loPI   C4A 4218   3.861  10.781   7.704  0.1575  0.1961  0.0352
  264loPI   C5A 4219   3.468  10.827   7.524 -0.0190 -0.0844 -0.0950
  264loPI   C6A 4220   3.236  10.762   7.109  0.4345 -0.2901 -0.0390
  264loPI   C1B 4221   4.688  10.663   9.122 -0.0144 -0.1896 -0.2133
  264loPI   C2B 4222   4.712  10.824   8.690  0.0463 -0.0499  0.0822
  264loPI   C3B 4223   4.689  10.917   8.234 -0.1557 -0.2499 -0.2227
  264loPI   C4B 4224   4.834  11.184   7.879 -0.2834  0.0252 -0.0049
  265loPI    C1 4225  18.970   9.955   9.478  0.0421 -0.2681 -0.1229
  265loPI    C2 4226  18.601  10.077   9.573  0.1540 -0.1063  0.1144
  265loPI    C3 4227  18.901  10.341   9.560  0.1970 -0.1702 -0.4363
  265loPI   PO4 4228  18.886   9.809   9.276 -0.0968 -0.2567  0.2390
  265loPI   GL1 4229  18.810  10.274   9.055  0.0384 -0.0445 -0.0961
  265loPI   GL2 4230  18.457  10.182   9.029  0.3052  0.0085  0.0681
  265loPI   C1A 4231  19.143  10.214   8.745  0.1705  0.0870 -0.1466
  265loPI   C2A 4232  19.366  10.132   8.405  0.0733  0.1003  0.0310
  265loPI   C3A 4233  19.192  10.111   8.062 -0.1548 -0.0067  0.0222
  265loPI   C4A 4234  18.989  10.107   7.653  0.1298 -0.0045 -0.0336
  265loPI   C5A 4235  18.947   9.866   7.271 -0.1364 -0.0321 -0.1853
  265loPI   C6A 4236  18.579   9.779   7.055 -0.0496 -0.0672 -0.2186
  265loPI   C1B 4237  18.659  10.033   8.581  0.3801  0.2085  0.0920
  265loPI   C2B 4238  18.651   9.635   8.282  0.1222 -0.2534  0.0558
  265loPI   C3B 4239  18.456   9.532   7.982  0.0804 -0.2185 -0.1991
  265loPI   C4B 4240  18.581   9.677   7.567 -0.4320  0.0363 -0.2149
  266loPI    C1 4241   8.011   1.831  10.083 -0.0844 -0.1395  0.2209
  266loPI    C2 4242   7.724   1.868   9.807  0.0663 -0.2218  0.0511
  266loPI    C3 4243   7.627   1.835  10.193 -0.1427 -0.0169  0.0180
  266loPI   PO4 4244   8.216   1.974   9.945 -0.1545 -0.2123 -0.1609
  266loPI   GL1 4245   8.355   1.773   9.594 -0.1994  0.3402 -0.0341
  266loPI   GL2 4246   8.463   1.387   9.394 -0.1921 -0.4118  0.0343
  266loPI   C1A 4247   8.239   1.795   9.141 -0.2656  0.1375  0.4260
  266loPI   C2A 4248   8.430   1.969   8.714  0.0369 -0.2185  0.1684
  266loPI   C3A 4249   8.643   1.907   8.392 -0.1792  0.1517  0.1111
  266loPI   C4A 4250   8.747   2.029   7.923 -0.0877 -0.0702 -0.0844
  266loPI   C5A 4251   8.717   2.156   7.504 -0.0623 -0.2898  0.2919
  266loPI   C6A 4252   8.986   2.257   7.148  0.0336 -0.1518 -0.1402
  266loPI   C1B 4253   8.193   1.297   9.032  0.1269 -0.2400 -0.3004
  266loPI   C2B 4254   8.124   1.531   8.638 -0.0335 -0.2451  0.1610
  266loPI   C3B 4255   8.253   1.758   8.213  0.1143 -0.0173 -0.1688
  266loPI   C4B 4256   8.242   2.021   7.836 -0.0082  0.1181 -0.0253
  267loPI    C1 4257  15.700   6.802  10.084 -0.2497  0.0341  0.1847
  267loPI    C2 4258  16.029   6.652   9.914 -0.2790  0.1204  0.0506
  267loPI    C3 4259  15.887   6.489  10.250 -0.3163 -0.1599 -0.0974
  267loPI   PO4 4260  15.727   7.057  10.056 -0.2542 -0.1433 -0.0356
  267loPI   GL1 4261  15.726   7.048   9.595  0.2112  0.0019 -0.1683
  267loPI   GL2 4262  16.034   7.077   9.515 -0.3553  0.2366  0.0148
  267loPI   C1A 4263  15.813   6.619   9.461 -0.1948 -0.0942  0.1044
  267loPI   C2A 4264  15.878   6.474   9.073  0.0602 -0.2879  0.4205
  267loPI   C3A 4265  15.798   6.282   8.673  0.1637 -0.2612 -0.2732
  267loPI   C4A 4266  15.744   6.054   8.282 -0.1533 -0.0450 -0.0527
  267loPI   C5A 4267  15.661   5.814   7.892  0.0815  0.1776  0.2041
  267loPI   C6A 4268  15.974   5.822   7.487 -0.0044  0.1261 -0.0031
  267loPI   C1B 4269  16.123   6.915   8.996 -0.3193 -0.0271 -0.4831
  267loPI   C2B 4270  16.210   6.601   8.687  0.0201 -0.1076  0.1861
  267loPI   C3B 4271  16.232   6.472   8.202  0.1481  0.1401  0.0716
  267loPI   C4B 4272  16.048   6.193   7.885 -0.1286 -0.3098 -0.5443
  268loPI    C1 4273   2.197   8.577   9.764  0.0407  0.1188 -0.1256
  268loPI    C2 4274   1.992   8.800  10.026 -0.0141 -0.0070 -0.0604
  268loPI    C3 4275   2.388   8.756  10.066  0.0510  0.3474 -0.2645
  268loPI   PO4 4276   2.189   8.567   9.551  0.0184  0.3318  0.0639
  268loPI   GL1 4277   2.161   8.641   9.110 -0.0594  0.2874 -0.2980
  268loPI   GL2 4278   2.346   8.840   8.994 -0.0104 -0.3754  0.1668
  268loPI   C1A 4279   2.211   8.356   8.789 -0.1208  0.0230 -0.1312
  268loPI   C2A 4280   2.289   8.300   8.308 -0.0789  0.1252 -0.4021
  268loPI   C3A 4281   2.421   7.943   8.002 -0.1652 -0.2574 -0.2946
  268loPI   C4A 4282   2.905   7.727   7.994 -0.2649  0.0340 -0.2564
  268loPI   C5A 4283   3.240   7.849   7.717 -0.2742 -0.0867  0.0790
  268loPI   C6A 4284   3.736   7.766   7.558  0.0045 -0.0211  0.2938
  268loPI   C1B 4285   2.318   9.040   8.576 -0.2005 -0.0548  0.3301
  268loPI   C2B 4286   2.551   9.078   8.150 -0.1141  0.1899 -0.1528
  268loPI   C3B 4287   2.614   9.153   7.747 -0.3748  0.0101  0.1557
  268loPI   C4B 4288   2.706   9.432   7.384  0.5850 -0.0241  0.2397
  269loPI    C1 4289  16.700  16.274   9.250  0.0788 -0.2586 -0.0221
  269loPI    C2 4290  16.584  16.477   9.574  0.0897 -0.0340 -0.1567
  269loPI    C3 4291  16.773  16.127   9.615 -0.1559 -0.1435  0.0730
  269loPI   PO4 4292  16.710  16.461   9.078  0.0733  0.2760  0.0204
  269loPI   GL1 4293  16.798  16.546   8.683  0.0651  0.0178 -0.1352
  269loPI   GL2 4294  17.022  16.519   8.605 -0.2396  0.0363 -0.1924
  269loPI   C1A 4295  16.743  16.750   8.287  0.2094 -0.2756  0.2002
  269loPI   C2A 4296  16.686  16.851   7.867  0.0915 -0.2165 -0.1961
  269loPI   C3A 4297  16.692  16.583   7.482 -0.2198 -0.1392 -0.0967
  269loPI   C4A 4298  16.606  16.789   7.087 -0.0449 -0.0754  0.1151
  269loPI   C5A 4299  16.908  16.776   6.707 -0.3731 -0.0844  0.0515
  269loPI   C6A 4300  17.172  16.367   6.755  0.1095  0.0160 -0.1783
  269loPI   C1B 4301  17.080  16.421   8.211  0.0074  0.2118  0.3158
  269loPI   C2B 4302  17.112  16.471   7.700  0.1453  0.2077 -0.1256
  269loPI   C3B 4303  17.155  16.583   7.281  0.2309  0.1177  0.1327
  269loPI   C4B 4304  17.446  16.777   7.080  0.1396  0.0520 -0.2016
  270loPI    C1 4305   1.364   9.560   9.765 -0.1451  0.0254 -0.0824
  270loPI    C2 4306   1.223   9.657  10.126 -0.1207 -0.1740 -0.0184
  270loPI    C3 4307   1.259   9.272  10.022  0.2939 -0.1267 -0.0661
  270loPI   PO4 4308   1.320   9.651   9.522  0.2237 -0.2810  0.2873
  270loPI   GL1 4309   1.568   9.678   9.162 -0.1788  0.1340  0.0199
  270loPI   GL2 4310   1.264   9.681   9.021 -0.6156 -0.0559 -0.0119
  270loPI   C1A 4311   1.650   9.946   8.757  0.1968 -0.0305 -0.0454
  270loPI   C2A 4312   1.738   9.722   8.361  0.1105  0.2282 -0.1916
  270loPI   C3A 4313   2.007   9.799   7.994  0.1257 -0.0775 -0.1695
  270loPI   C4A 4314   2.011   9.883   7.602  0.0655  0.1360 -0.0347
  270loPI   C5A 4315   1.968  10.092   7.326  0.1165  0.0085 -0.1671
  270loPI   C6A 4316   1.702  10.344   7.039 -0.1366  0.0575 -0.0887
  270loPI   C1B 4317   1.216   9.738   8.593 -0.1335 -0.4007 -0.2093
  270loPI   C2B 4318   1.268   9.682   8.146  0.2853 -0.3917 -0.0432
  270loPI   C3B 4319   1.512   9.932   7.794  0.0780 -0.1233 -0.3210
  270loPI   C4B 4320   1.430   9.892   7.320 -0.3863  0.1925 -0.3916
  271loPI    C1 4321   2.661  14.543   9.501 -0.1141  0.1231  0.0431
  271loPI    C2 4322   2.859  14.222   9.634 -0.1438  0.0666 -0.0480
  271loPI    C3 4323   2.464  14.202   9.572 -0.1088  0.0512 -0.2736
  271loPI   PO4 4324   2.737  14.593   9.288 -0.0649  0.1704 -0.1057
  271loPI   GL1 4325   2.619  14.432   8.898 -0.0382  0.0824  0.3915
  271loPI   GL2 4326   2.360  14.542   8.622  0.1451  0.0302 -0.0201
  271loPI   C1A 4327   2.789  14.520   8.469  0.2637  0.1412  0.2303
  271loPI   C2A 4328   2.847  14.490   8.010 -0.0091  0.0794 -0.0980
  271loPI   C3A 4329   2.630  14.498   7.650 -0.1889  0.0654  0.0264
  271loPI   C4A 4330   2.528  14.750   7.270  0.1966  0.0987 -0.0388
  271loPI   C5A 4331   2.163  14.879   7.036 -0.1522  0.2503 -0.1791
  271loPI   C6A 4332   2.167  14.718   6.554 -0.1729  0.1708 -0.0110
  271loPI   C1B 4333   2.282  14.731   8.163 -0.1941 -0.0469  0.0475
  271loPI   C2B 4334   2.109  14.561   7.755 -0.0206  0.1134  0.1243
  271loPI   C3B 4335   1.873  14.835   7.448 -0.0693  0.1886 -0.0572
  271loPI   C4B 4336   1.742  15.216   7.144 -0.1543  0.1075  0.0473
  272loPI    C1 4337   0.278   3.540  10.218 -0.3550  0.0370  0.0008
  272loPI    C2 4338   0.056   3.210  10.178 -0.0299 -0.1953  0.0746
  272loPI    C3 4339   0.324   3.237  10.474 -0.0767  0.1505  0.0898
  272loPI   PO4 4340   0.307   3.579   9.994  0.0862  0.2434 -0.0465
  272loPI   GL1 4341   0.090   3.891   9.696  0.2620 -0.2756 -0.1976
  272loPI   GL2 4342   0.438   3.786   9.538  0.0176  0.0109  0.0098
  272loPI   C1A 4343   0.051   3.912   9.195  0.1027  0.1609 -0.1158
  272loPI   C2A 4344  -0.168   3.721   8.924  0.0581 -0.0627  0.0815
  272loPI   C3A 4345  -0.223   3.657   8.450  0.2362  0.4231  0.0092
  272loPI   C4A 4346  -0.225   3.398   8.015  0.2010 -0.0091 -0.0265
  272loPI   C5A 4347  -0.448   3.310   7.629 -0.1413  0.1917 -0.2344
  272loPI   C6A 4348  -0.489   3.084   7.284 -0.2293 -0.1396 -0.5481
  272loPI   C1B 4349   0.545   4.028   9.084 -0.1734  0.0416 -0.0168
  272loPI   C2B 4350   0.498   4.179   8.708 -0.1005  0.0797  0.1266
  272loPI   C3B 4351   0.509   4.374   8.251  0.0786 -0.0115 -0.0260
  272loPI   C4B 4352   0.607   4.478   7.767 -0.3302 -0.1407 -0.2271
  273loPI    C1 4353  15.939  17.010   9.229 -0.1350  0.1084  0.0054
  273loPI    C2 4354  15.903  17.343   9.448  0.2139  0.1029  0.0766
  273loPI    C3 4355  15.926  16.987   9.628  0.1892  0.0706  0.0162
  273loPI   PO4 4356  16.141  17.095   9.034 -0.2275 -0.0500 -0.1695
  273loPI   GL1 4357  16.394  16.842   8.733 -0.1148 -0.0004  0.2260
  273loPI   GL2 4358  16.313  16.395   8.751  0.1723  0.0786  0.0740
  273loPI   C1A 4359  16.267  16.782   8.286  0.0386 -0.1512  0.1498
  273loPI   C2A 4360  16.189  16.659   7.881 -0.1980 -0.1064 -0.1045
  273loPI   C3A 4361  16.283  16.858   7.472 -0.0625  0.0363 -0.2449
  273loPI   C4A 4362  16.138  16.907   7.024  0.4567 -0.0458  0.0865
  273loPI   C5A 4363  16.011  16.553   6.710 -0.0630 -0.1430 -0.0198
  273loPI   C6A 4364  16.004  16.102   6.793 -0.1056  0.0737  0.0555
  273loPI   C1B 4365  16.427  16.311   8.407 -0.0367 -0.2527  0.1727
  273loPI   C2B 4366  16.566  16.377   7.960  0.2090  0.1045 -0.1060
  273loPI   C3B 4367  16.312  16.240   7.544 -0.1570 -0.2798 -0.0548
  273loPI   C4B 4368  16.288  16.405   7.149 -0.0508  0.1947  0.1338
  274loPI    C1 4369   6.174   5.022  10.598 -0.0179  0.2659 -0.0508
  274loPI    C2 4370   6.246   5.374  10.773 -0.0206  0.1373  0.2140
  274loPI    C3 4371   6.158   5.054  10.997  0.0946 -0.0590 -0.0171
  274loPI   PO4 4372   6.409   5.045  10.338  0.1667 -0.1482  0.4665
  274loPI   GL1 4373   6.387   4.653  10.139 -0.0686 -0.0577 -0.1631
  274loPI   GL2 4374   6.068   4.852  10.057  0.0847  0.1115  0.0493
  274loPI   C1A 4375   6.482   4.709   9.794  0.2051  0.4844  0.1496
  274loPI   C2A 4376   6.687   4.699   9.308 -0.2001  0.0578  0.1005
  274loPI   C3A 4377   6.887   4.410   9.040  0.0098 -0.1098 -0.0151
  274loPI   C4A 4378   6.706   4.116   8.720  0.0767  0.0309 -0.0200
  274loPI   C5A 4379   6.442   4.179   8.386  0.1371 -0.0326  0.2878
  274loPI   C6A 4380   6.041   4.161   8.473  0.0996  0.1137  0.1043
  274loPI   C1B 4381   6.021   4.510   9.634 -0.2509 -0.0151  0.1595
  274loPI   C2B 4382   6.211   4.421   9.389 -0.2903  0.1644  0.4305
  274loPI   C3B 4383   6.257   4.362   8.994 -0.2670  0.0137  0.1002
  274loPI   C4B 4384   6.567   4.624   8.677  0.0519 -0.0197 -0.3643
  275loPI    C1 4385   7.059   2.314  10.493 -0.1356  0.0271  0.0205
  275loPI    C2 4386   7.146   2.678  10.636 -0.0092  0.0218 -0.0409
  275loPI    C3 4387   7.377   2.366  10.730 -0.1168 -0.0432  0.0108
  275loPI   PO4 4388   6.930   2.515  10.191 -0.1286  0.0030  0.2343
  275loPI   GL1 4389   6.766   2.432   9.696  0.2855  0.3527 -0.1242
  275loPI   GL2 4390   6.461   2.446   9.837 -0.1695  0.0049  0.0956
  275loPI   C1A 4391   6.598   2.506   9.333  0.2521  0.1007  0.4387
  275loPI   C2A 4392   6.564   2.469   8.859  0.2771  0.1490 -0.1822
  275loPI   C3A 4393   6.630   2.440   8.388  0.2485  0.1318 -0.2313
  275loPI   C4A 4394   6.589   2.782   8.001 -0.4665  0.2106  0.1278
  275loPI   C5A 4395   6.378   3.021   7.708 -0.0065  0.0238 -0.1791
  275loPI   C6A 4396   6.238   3.392   7.853 -0.3179 -0.2876 -0.0668
  275loPI   C1B 4397   6.286   2.206   9.526  0.0317  0.3470 -0.0086
  275loPI   C2B 4398   6.326   2.053   9.030  0.0440 -0.2323  0.0514
  275loPI   C3B 4399   6.231   2.117   8.554  0.0891  0.1470  0.1427
  275loPI   C4B 4400   6.195   2.305   8.064 -0.1487 -0.0704  0.1975
  276loPI    C1 4401  17.595   2.710   9.493 -0.1663 -0.1985  0.0226
  276loPI    C2 4402  17.917   2.835   9.694 -0.0769 -0.1950 -0.1214
  276loPI    C3 4403  17.647   2.602   9.875 -0.0653 -0.0831  0.0422
  276loPI   PO4 4404  17.586   2.574   9.239  0.4357 -0.0396  0.3207
  276loPI   GL1 4405  17.301   2.687   8.809 -0.1491 -0.0060 -0.4628
  276loPI   GL2 4406  17.658   2.773   8.770 -0.1286  0.1013  0.2714
  276loPI   C1A 4407  17.212   2.858   8.489  0.1004 -0.0654  0.1405
  276loPI   C2A 4408  17.424   2.978   8.080 -0.0010 -0.1114 -0.0502
  276loPI   C3A 4409  17.529   3.059   7.603  0.0657  0.2069 -0.0547
  276loPI   C4A 4410  17.510   3.054   7.099  0.0226  0.0215 -0.1753
  276loPI   C5A 4411  17.855   3.016   6.884  0.1132  0.3225  0.2228
  276loPI   C6A 4412  18.242   2.875   6.622 -0.4301  0.0930 -0.0033
  276loPI   C1B 4413  17.793   2.896   8.353  0.0531  0.0941 -0.0851
  276loPI   C2B 4414  18.038   2.848   8.100 -0.0079 -0.1353 -0.3380
  276loPI   C3B 4415  17.995   2.886   7.732  0.1334  0.0525  0.1263
  276loPI   C4B 4416  17.993   3.153   7.347 -0.4264 -0.5487 -0.2191
  277loPI    C1 4417   4.548  18.721  10.148 -0.1074  0.0027  0.2176
  277loPI    C2 4418   4.910  18.854  10.255 -0.1658  0.2368  0.1314
  277loPI    C3 4419   4.586  19.078  10.325 -0.2778  0.0951  0.0721
  277loPI   PO4 4420   4.566  18.679   9.940  0.0276  0.0908  0.2314
  277loPI   GL1 4421   4.635  18.693   9.600 -0.2169 -0.1567 -0.3644
  277loPI   GL2 4422   4.836  18.755   9.512  0.1339  0.1419  0.1508
  277loPI   C1A 4423   4.353  18.597   9.193 -0.2408  0.0305 -0.2323
  277loPI   C2A 4424   4.507  18.708   8.730  0.1311 -0.1301  0.0055
  277loPI   C3A 4425   4.344  18.942   8.309  0.2045  0.0235  0.2681
  277loPI   C4A 4426   4.463  19.130   7.940  0.1629  0.1356 -0.5038
  277loPI   C5A 4427   4.473  19.468   7.612  0.4443  0.1967  0.0938
  277loPI   C6A 4428   4.330  19.826   7.593  0.0457  0.0323  0.0997
  277loPI   C1B 4429   4.742  18.939   9.122 -0.0462 -0.0787  0.0606
  277loPI   C2B 4430   4.799  19.306   9.064  0.0379  0.4515  0.1240
  277loPI   C3B 4431   4.860  19.631   8.805 -0.0574  0.2773  0.0249
  277loPI   C4B 4432   4.805  19.893   8.420 -0.2358  0.1327  0.0053
  278loPI    C1 4433   0.662   2.238   9.762  0.0950  0.1725  0.0935
  278loPI    C2 4434   0.471   1.920   9.614  0.0237  0.2388  0.0419
  278loPI    C3 4435   0.565   1.934  10.002 -0.1044  0.2192  0.0742
  278loPI   PO4 4436   0.828   2.243   9.629  0.1919 -0.1227 -0.2316
  278loPI   GL1 4437   0.837   1.978   9.275  0.0011  0.3673 -0.0574
  278loPI   GL2 4438   0.691   2.290   9.113  0.0394 -0.0926  0.0293
  278loPI   C1A 4439   1.164   1.870   9.048 -0.0596  0.2100 -0.1054
  278loPI   C2A 4440   1.279   1.878   8.708  0.1368 -0.0519  0.2077
  278loPI   C3A 4441   1.330   1.889   8.300 -0.3263  0.0078 -0.0844
  278loPI   C4A 4442   1.413   1.849   7.837 -0.1684  0.0055  0.2830
  278loPI   C5A 4443   1.287   1.906   7.364  0.1960 -0.0128  0.1859
  278loPI   C6A 4444   1.009   2.158   7.045 -0.0565 -0.1090  0.1217
  278loPI   C1B 4445   0.778   2.036   8.708  0.2367  0.1313 -0.2854
  278loPI   C2B 4446   0.751   2.005   8.287 -0.0723 -0.0391  0.1262
  278loPI   C3B 4447   0.552   2.172   7.856  0.1900  0.3331  0.0772
  278loPI   C4B 4448   0.784   2.328   7.564  0.1709 -0.0079 -0.1333
  279loPI    C1 4449  16.188   2.566   9.558  0.1084 -0.1428 -0.2134
  279loPI    C2 4450  16.418   2.243   9.610  0.0096 -0.1641  0.1119
  279loPI    C3 4451  16.361   2.498   9.912 -0.2617 -0.0711 -0.0142
  279loPI   PO4 4452  16.244   2.602   9.284 -0.0077 -0.3041  0.0763
  279loPI   GL1 4453  16.294   2.790   8.884  0.1576 -0.3915 -0.0822
  279loPI   GL2 4454  16.615   2.647   8.776 -0.2741 -0.0422 -0.0987
  279loPI   C1A 4455  16.315   3.030   8.530 -0.0960  0.2097 -0.0889
  279loPI   C2A 4456  16.267   3.205   8.062 -0.3941  0.2377  0.3140
  279loPI   C3A 4457  16.240   3.420   7.571  0.2587  0.1176  0.1383
  279loPI   C4A 4458  16.197   3.392   7.077  0.0096  0.2922 -0.1880
  279loPI   C5A 4459  16.057   3.281   6.713 -0.0957  0.1039  0.2449
  279loPI   C6A 4460  16.067   3.128   6.302 -0.1327 -0.0315 -0.3186
  279loPI   C1B 4461  16.752   2.746   8.447 -0.1023 -0.2615  0.0779
  279loPI   C2B 4462  17.055   2.559   8.136  0.1206 -0.1677  0.0278
  279loPI   C3B 4463  17.124   2.717   7.691  0.1138  0.4596  0.1479
  279loPI   C4B 4464  17.093   2.920   7.270  0.0939 -0.1594 -0.0794
  280loPI    C1 4465  14.154   4.941  10.330  0.0376  0.0307  0.0793
  280loPI    C2 4466  14.228   4.566  10.448 -0.0698  0.0294  0.1434
  280loPI    C3 4467  14.170   4.854  10.720 -0.1004  0.0698  0.0943
  280loPI   PO4 4468  14.223   4.892  10.057  0.0828  0.3071 -0.2027
  280loPI   GL1 4469  14.625   5.068   9.877  0.0613 -0.2365 -0.1020
  280loPI   GL2 4470  14.565   4.918   9.729  0.4105  0.1784  0.0461
  280loPI   C1A 4471  14.859   5.308   9.525 -0.2439  0.4221  0.0972
  280loPI   C2A 4472  14.968   5.492   9.115  0.1996 -0.0611 -0.0630
  280loPI   C3A 4473  14.780   5.315   8.660 -0.2307 -0.0952  0.0143
  280loPI   C4A 4474  14.721   5.353   8.263 -0.1430  0.0221  0.2177
  280loPI   C5A 4475  14.533   5.439   7.868  0.0013  0.2964 -0.1646
  280loPI   C6A 4476  14.318   5.809   7.635 -0.1235  0.3154  0.1260
  280loPI   C1B 4477  14.822   4.675   9.460  0.2384 -0.4507 -0.1029
  280loPI   C2B 4478  14.820   4.459   8.985  0.2019  0.0761 -0.1463
  280loPI   C3B 4479  15.004   4.397   8.497 -0.3845  0.1948  0.1214
  280loPI   C4B 4480  15.392   4.174   8.217  0.0048  0.1784  0.0233
  281loPI    C1 4481   9.150  12.439   9.934 -0.2602 -0.1734  0.0712
  281loPI    C2 4482   8.985  12.803   9.939 -0.3199 -0.1980 -0.0567
  281loPI    C3 4483   9.172  12.663  10.264 -0.0552  0.0570 -0.0952
  281loPI   PO4 4484   9.189  12.469   9.673  0.0629  0.1331  0.0594
  281loPI   GL1 4485   9.133  12.538   9.276  0.1656 -0.0040  0.0836
  281loPI   GL2 4486   8.925  12.634   9.058  0.2566  0.0084  0.2302
  281loPI   C1A 4487   9.394  12.603   8.898 -0.2119  0.1899  0.4390
  281loPI   C2A 4488   9.260  12.549   8.450 -0.1107  0.0447  0.4026
  281loPI   C3A 4489   9.253  12.571   7.955  0.3630 -0.1371 -0.2158
  281loPI   C4A 4490   9.214  12.361   7.535  0.0544  0.2694 -0.1840
  281loPI   C5A 4491   9.203  11.991   7.201  0.4050 -0.0640 -0.2365
  281loPI   C6A 4492   9.235  11.616   7.288 -0.3697 -0.0854 -0.0386
  281loPI   C1B 4493   8.765  12.858   8.749  0.0992 -0.0734  0.1182
  281loPI   C2B 4494   8.795  12.828   8.209 -0.1414 -0.0122  0.1881
  281loPI   C3B 4495   8.862  12.781   7.770  0.1803 -0.2594  0.3579
  281loPI   C4B 4496   8.667  12.761   7.512  0.0633  0.2125  0.0396
  282loPI    C1 4497  13.284  14.096   9.609 -0.2023 -0.1611 -0.0528
  282loPI    C2 4498  13.190  13.795   9.855  0.2267 -0.1502  0.1328
  282loPI    C3 4499  12.930  14.094   9.796 -0.0482 -0.3629  0.2429
  282loPI   PO4 4500  13.337  13.953   9.414  0.3582  0.1650 -0.1626
  282loPI   GL1 4501  13.630  14.071   9.020  0.0800 -0.0356  0.4604
  282loPI   GL2 4502  13.335  14.195   8.854  0.2743 -0.3161  0.0289
  282loPI   C1A 4503  13.708  13.884   8.665  0.1456  0.3122 -0.1721
  282loPI   C2A 4504  13.765  13.828   8.296 -0.1993  0.2085  0.1337
  282loPI   C3A 4505  13.720  13.673   7.868  0.2446 -0.0699  0.0139
  282loPI   C4A 4506  13.712  13.768   7.381  0.1696  0.1095  0.0690
  282loPI   C5A 4507  13.720  13.926   6.901 -0.2620 -0.3612  0.2575
  282loPI   C6A 4508  13.844  13.631   6.582 -0.0194  0.0907  0.1323
  282loPI   C1B 4509  13.264  13.978   8.486 -0.1972 -0.1805  0.3944
  282loPI   C2B 4510  13.326  13.987   8.069  0.0946  0.1219  0.1058
  282loPI   C3B 4511  13.294  13.874   7.642 -0.3963  0.0765 -0.1496
  282loPI   C4B 4512  13.285  14.045   7.231 -0.1120 -0.3263  0.2327
  283loPI    C1 4513  18.938  13.551   9.600  0.0372  0.0880  0.2887
  283loPI    C2 4514  18.612  13.457   9.812 -0.0068  0.0663  0.2124
  283loPI    C3 4515  18.846  13.167   9.666 -0.1526  0.0728 -0.0388
  283loPI   PO4 4516  18.923  13.731   9.451 -0.4216 -0.0897 -0.2138
  283loPI   GL1 4517  18.825  13.708   9.101 -0.1025 -0.1090 -0.0168
  283loPI   GL2 4518  18.629  13.841   8.893  0.2482  0.5307 -0.1623
  283loPI   C1A 4519  18.917  13.463   8.767 -0.0545  0.0223 -0.1263
  283loPI   C2A 4520  19.002  13.449   8.344  0.1916 -0.1067 -0.1278
  283loPI   C3A 4521  18.944  13.348   7.919 -0.0060  0.1866  0.2667
  283loPI   C4A 4522  19.079  13.285   7.575 -0.0897 -0.4325 -0.0385
  283loPI   C5A 4523  19.272  13.064   7.274 -0.0382  0.1064 -0.2006
  283loPI   C6A 4524  19.013  12.984   6.888 -0.1581  0.0815 -0.0213
  283loPI   C1B 4525  18.582  13.791   8.407 -0.2459  0.1949  0.1422
  283loPI   C2B 4526  18.659  13.801   7.943 -0.0290  0.1390 -0.1670
  283loPI   C3B 4527  18.598  13.597   7.570 -0.0440  0.0231  0.2253
  283loPI   C4B 4528  18.698  13.243   7.290 -0.0158 -0.0600  0.2322
  284loPI    C1 4529   9.286   3.477   9.581  0.2271  0.2318  0.2459
  284loPI    C2 4530   8.966   3.463   9.820 -0.0000 -0.0651 -0.0649
  284loPI    C3 4531   9.240   3.172   9.835 -0.0429 -0.1128 -0.2032
  284loPI   PO4 4532   9.336   3.803   9.625  0.1938  0.0051  0.3689
  284loPI   GL1 4533   9.327   4.133   9.355 -0.1935  0.0293  0.0727
  284loPI   GL2 4534   9.002   4.043   9.341  0.1792 -0.2810 -0.1810
  284loPI   C1A 4535   9.433   4.116   8.941  0.0153  0.2432  0.1175
  284loPI   C2A 4536   9.293   3.960   8.554  0.3721 -0.2871  0.0129
  284loPI   C3A 4537   9.281   3.766   8.176 -0.0874 -0.0022 -0.0401
  284loPI   C4A 4538   9.017   3.824   7.843 -0.1739  0.1299 -0.3126
  284loPI   C5A 4539   8.828   4.158   7.582  0.0467  0.1412  0.0280
  284loPI   C6A 4540   8.798   4.604   7.414 -0.3237  0.0758 -0.3998
  284loPI   C1B 4541   8.634   4.004   9.148  0.0642  0.3397 -0.0396
  284loPI   C2B 4542   8.539   4.280   8.821  0.2170 -0.0427  0.2732
  284loPI   C3B 4543   8.333   4.667   8.891 -0.2418  0.2210  0.0041
  284loPI   C4B 4544   8.054   4.690   9.152 -0.0397 -0.0399 -0.1582
  285loPI    C1 4545  10.744  13.713   9.502  0.0321 -0.0479 -0.1065
  285loPI    C2 4546  10.691  13.463   9.809 -0.1857  0.1535  0.0239
  285loPI    C3 4547  10.971  13.385   9.534 -0.1497 -0.1527  0.1426
  285loPI   PO4 4548  10.626  13.916   9.578  0.3102 -0.1199  0.1283
  285loPI   GL1 4549  10.473  14.239   9.234  0.2425  0.0715  0.1201
  285loPI   GL2 4550  10.407  13.944   9.139 -0.0172  0.2809  0.0985
  285loPI   C1A 4551  10.438  14.439   8.898  0.0314 -0.2150 -0.1941
  285loPI   C2A 4552  10.395  14.445   8.472  0.2306 -0.0223  0.1345
  285loPI   C3A 4553  10.418  14.027   8.371 -0.0580  0.0713 -0.1248
  285loPI   C4A 4554  10.424  13.811   7.988  0.1135 -0.0380  0.1590
  285loPI   C5A 4555  10.105  13.904   7.613  0.1823  0.0411 -0.1911
  285loPI   C6A 4556  10.170  14.283   7.282  0.0912  0.1155  0.1704
  285loPI   C1B 4557  10.640  13.734   8.869  0.0619 -0.0602 -0.0344
  285loPI   C2B 4558  10.780  13.702   8.459  0.0048 -0.1406  0.0172
  285loPI   C3B 4559  10.844  13.511   8.026 -0.1815  0.0469  0.0989
  285loPI   C4B 4560  10.969  13.429   7.569 -0.0106 -0.0253  0.1020
  286loPI    C1 4561  15.139  15.897   9.300 -0.0645  0.0512 -0.3811
  286loPI    C2 4562  15.275  16.274   9.314 -0.0628  0.0459 -0.2375
  286loPI    C3 4563  14.899  16.192   9.423 -0.0542  0.0017 -0.2408
  286loPI   PO4 4564  15.238  15.817   9.130  0.2718 -0.2682  0.0360
  286loPI   GL1 4565  15.522  15.910   8.867 -0.0965  0.0376  0.1929
  286loPI   GL2 4566  15.669  16.149   8.956 -0.1431  0.0607  0.0159
  286loPI   C1A 4567  15.281  15.700   8.530 -0.2668  0.1426 -0.2256
  286loPI   C2A 4568  15.126  15.838   8.120 -0.2263  0.3090 -0.0974
  286loPI   C3A 4569  14.891  15.923   7.722  0.2192 -0.1457 -0.0141
  286loPI   C4A 4570  14.955  15.774   7.271  0.1831 -0.1754 -0.4271
  286loPI   C5A 4571  15.041  15.763   6.845  0.2338  0.0968 -0.2264
  286loPI   C6A 4572  14.824  16.116   6.484  0.1235  0.1805  0.1832
  286loPI   C1B 4573  15.957  16.105   8.588 -0.1546  0.0801  0.0173
  286loPI   C2B 4574  15.934  16.269   8.174  0.5587  0.0033  0.0726
  286loPI   C3B 4575  15.737  16.503   7.818 -0.0396 -0.0354  0.2459
  286loPI   C4B 4576  15.412  16.521   7.401 -0.1865  0.1164 -0.0340
  287loPI    C1 4577  15.981   0.152   9.187 -0.2483  0.0466 -0.1237
  287loPI    C2 4578  16.027   0.387   9.508 -0.2461  0.2302 -0.2572
  287loPI    C3 4579  15.757   0.092   9.514 -0.0057  0.0102  0.0386
  287loPI   PO4 4580  16.063   0.165   8.884 -0.0306  0.0866 -0.0307
  287loPI   GL1 4581  15.922   0.456   8.615  0.3649 -0.0152 -0.0420
  287loPI   GL2 4582  15.666   0.650   8.602 -0.0694  0.1112  0.1154
  287loPI   C1A 4583  16.016   0.650   8.230  0.3409 -0.2198  0.3783
  287loPI   C2A 4584  15.930   0.729   7.834  0.0391  0.3557 -0.1999
  287loPI   C3A 4585  16.073   0.706   7.444 -0.1431 -0.2396  0.3164
  287loPI   C4A 4586  16.068   0.619   6.884  0.2440 -0.0985 -0.2804
  287loPI   C5A 4587  16.157   0.279   6.650  0.0891 -0.1374 -0.1961
  287loPI   C6A 4588  16.168  -0.007   6.276  0.2217  0.1502 -0.0610
  287loPI   C1B 4589  15.462   0.822   8.248 -0.0525 -0.1464 -0.2189
  287loPI   C2B 4590  15.430   1.111   7.831 -0.0569 -0.1173 -0.2965
  287loPI   C3B 4591  15.415   1.274   7.378  0.0478  0.2357 -0.2395
  287loPI   C4B 4592  15.677   1.595   7.264  0.2224  0.1033  0.1784
  288loPI    C1 4593  18.180   9.138   9.857  0.2243 -0.0051  0.0510
  288loPI    C2 4594  18.409   9.374  10.085  0.2862 -0.0121 -0.0037
  288loPI    C3 4595  18.073   9.218  10.235  0.1493  0.2578 -0.0237
  288loPI   PO4 4596  18.366   9.088   9.620  0.3052  0.3185  0.1052
  288loPI   GL1 4597  18.642   9.237   9.197  0.1483  0.3412 -0.3851
  288loPI   GL2 4598  18.361   9.298   9.052 -0.0327 -0.2514  0.2059
  288loPI   C1A 4599  18.686   9.052   8.789 -0.1178 -0.0022 -0.4556
  288loPI   C2A 4600  18.603   9.066   8.317  0.0997 -0.1692  0.1516
  288loPI   C3A 4601  18.220   9.054   8.013 -0.1257  0.0658  0.1834
  288loPI   C4A 4602  18.100   8.866   7.589  0.2844 -0.1189 -0.1370
  288loPI   C5A 4603  17.859   9.103   7.222 -0.1501 -0.2658 -0.0609
  288loPI   C6A 4604  17.649   9.144   6.865 -0.0061 -0.1222 -0.0508
  288loPI   C1B 4605  18.279   9.407   8.569  0.1665  0.1239  0.0740
  288loPI   C2B 4606  18.202   9.718   8.373 -0.0335 -0.1562 -0.1583
  288loPI   C3B 4607  17.939   9.961   8.128 -0.1220 -0.1889 -0.0531
  288loPI   C4B 4608  17.715  10.017   7.853  0.3756  0.0009 -0.2362
  289loPI    C1 4609   7.607   9.537  10.100 -0.0533  0.0248  0.0807
  289loPI    C2 4610   7.820   9.800   9.887  0.0971  0.1348  0.3617
  289loPI    C3 4611   7.806   9.830  10.286 -0.1709 -0.0756  0.3711
  289loPI   PO4 4612   7.759   9.311   9.967 -0.3544 -0.0352  0.0886
  289loPI   GL1 4613   7.951   9.291   9.661  0.0591 -0.2844 -0.0153
  289loPI   GL2 4614   7.848   9.499   9.479 -0.1934  0.0036 -0.1945
  289loPI   C1A 4615   8.005   9.061   9.287 -0.0985  0.1618 -0.3560
  289loPI   C2A 4616   7.930   8.950   8.817 -0.2367 -0.3136 -0.1728
  289loPI   C3A 4617   7.678   8.950   8.409  0.4575 -0.1505  0.1387
  289loPI   C4A 4618   7.491   8.923   7.981 -0.1814 -0.1840  0.1989
  289loPI   C5A 4619   7.137   8.831   7.716 -0.4250  0.0450 -0.0326
  289loPI   C6A 4620   7.021   9.019   7.269  0.0531  0.0021  0.1159
  289loPI   C1B 4621   7.547   9.643   9.022  0.0692  0.1216  0.0482
  289loPI   C2B 4622   7.441   9.994   8.914 -0.0114  0.1909  0.1055
  289loPI   C3B 4623   7.425  10.188   8.582 -0.0925 -0.1005 -0.0927
  289loPI   C4B 4624   7.365  10.450   8.309  0.5203  0.1355  0.1812
  290loPI    C1 4625   6.734  14.155   9.824 -0.1418 -0.1733 -0.2689
  290loPI    C2 4626   6.623  14.226  10.202  0.3051  0.1817 -0.1961
  290loPI    C3 4627   6.827  13.893  10.112 -0.1257 -0.0898 -0.1980
  290loPI   PO4 4628   6.517  14.248   9.709 -0.1552 -0.0116 -0.1153
  290loPI   GL1 4629   6.474  14.170   9.295  0.2020  0.3936  0.0411
  290loPI   GL2 4630   6.234  13.864   9.321 -0.0527 -0.2553 -0.2831
  290loPI   C1A 4631   6.410  13.987   8.901 -0.1457  0.2363  0.0446
  290loPI   C2A 4632   6.268  13.877   8.606  0.0948  0.0629  0.0165
  290loPI   C3A 4633   6.213  14.090   8.201  0.0383 -0.1279 -0.2185
  290loPI   C4A 4634   6.400  14.280   7.876 -0.1050 -0.0306 -0.2094
  290loPI   C5A 4635   6.326  14.673   7.598  0.2007 -0.2186 -0.1084
  290loPI   C6A 4636   6.076  15.062   7.446 -0.1632  0.0784 -0.0056
  290loPI   C1B 4637   6.010  13.580   8.909  0.0392  0.2242  0.1787
  290loPI   C2B 4638   5.985  13.491   8.434  0.2028 -0.3386  0.1119
  290loPI   C3B 4639   5.996  13.659   8.105  0.3117 -0.4415 -0.0056
  290loPI   C4B 4640   6.352  13.770   7.853 -0.0453  0.1096  0.3726
  291loPI    C1 4641   3.606   5.298  10.708 -0.0585  0.0949 -0.0951
  291loPI    C2 4642   3.761   5.649  10.821  0.0540 -0.0267  0.1352
  291loPI    C3 4643   3.519   5.449  11.068 -0.2152  0.0078 -0.0957
  291loPI   PO4 4644   3.776   5.241  10.435  0.0911  0.2449  0.0093
  291loPI   GL1 4645   3.771   5.336   9.990  0.0776  0.3813 -0.2290
  291loPI   GL2 4646   3.533   5.601   9.831  0.4501  0.0364 -0.1939
  291loPI   C1A 4647   3.786   5.173   9.623 -0.2349  0.0146  0.2354
  291loPI   C2A 4648   3.947   4.950   9.270  0.0148 -0.1234  0.0451
  291loPI   C3A 4649   4.317   4.773   9.067 -0.0508 -0.1920  0.0964
  291loPI   C4A 4650   4.453   4.446   8.783 -0.0580  0.1211  0.2424
  291loPI   C5A 4651   4.557   4.374   8.357 -0.0879 -0.0553  0.0260
  291loPI   C6A 4652   4.459   4.667   8.019 -0.1459  0.1205  0.0870
  291loPI   C1B 4653   3.838   5.648   9.515  0.1133  0.2395 -0.1218
  291loPI   C2B 4654   3.860   5.649   9.135  0.0347 -0.0798  0.1777
  291loPI   C3B 4655   3.751   5.460   8.647  0.0443 -0.4157 -0.0683
  291loPI   C4B 4656   3.687   5.737   8.186 -0.1739 -0.2674 -0.1666
  292loPI    C1 4657  17.422  13.290   9.524 -0.2465 -0.0989 -0.1241
  292loPI    C2 4658  17.322  13.649   9.670  0.3370  0.0504 -0.0669
  292loPI    C3 4659  17.290  13.323   9.900  0.2180  0.1276  0.0272
  292loPI   PO4 4660  17.366  13.344   9.230 -0.3297  0.3101 -0.0227
  292loPI   GL1 4661  17.094  13.026   9.079 -0.1469  0.0100  0.1205
  292loPI   GL2 4662  16.911  13.333   8.903  0.0819  0.1940 -0.2171
  292loPI   C1A 4663  16.852  12.890   8.775  0.1527  0.1339 -0.1401
  292loPI   C2A 4664  16.830  12.755   8.301 -0.1617 -0.1422 -0.0151
  292loPI   C3A 4665  16.778  12.642   7.871  0.0852  0.0666  0.2011
  292loPI   C4A 4666  16.853  12.671   7.374 -0.0979  0.1082  0.1080
  292loPI   C5A 4667  16.605  12.627   6.967  0.2469 -0.1779  0.0947
  292loPI   C6A 4668  16.458  12.729   6.708 -0.0316  0.2448  0.1602
  292loPI   C1B 4669  17.184  13.583   8.587 -0.1272  0.0039  0.0919
  292loPI   C2B 4670  17.478  13.716   8.350  0.2336 -0.2344 -0.0953
  292loPI   C3B 4671  17.574  13.617   7.964  0.0053 -0.1316 -0.1076
  292loPI   C4B 4672  17.816  13.501   7.682  0.3454 -0.3254  0.1700
  293loPI    C1 4673  18.774  14.541   9.386  0.1039 -0.1032 -0.0508
  293loPI    C2 4674  18.930  14.644   9.739  0.3332 -0.1300 -0.1429
  293loPI    C3 4675  18.899  14.258   9.639 -0.1809 -0.1448  0.0470
  293loPI   PO4 4676  18.580  14.757   9.284  0.0643 -0.4507  0.2274
  293loPI   GL1 4677  18.610  14.858   8.915 -0.1982  0.1552  0.0944
  293loPI   GL2 4678  18.929  14.683   8.902  0.3865 -0.0510 -0.3366
  293loPI   C1A 4679  18.412  14.743   8.433  0.0009  0.3101 -0.0868
  293loPI   C2A 4680  18.572  14.717   7.996 -0.1983 -0.2072  0.1820
  293loPI   C3A 4681  18.954  15.052   7.702  0.1865 -0.2089 -0.3181
  293loPI   C4A 4682  19.112  15.111   7.310  0.1010  0.1858  0.1539
  293loPI   C5A 4683  19.428  15.043   6.986  0.0251  0.0096 -0.2990
  293loPI   C6A 4684  19.731  14.751   6.786 -0.1637  0.0251 -0.4719
  293loPI   C1B 4685  18.896  14.644   8.473  0.2385 -0.2905  0.0296
  293loPI   C2B 4686  19.050  14.737   8.114 -0.1834 -0.1030  0.2405
  293loPI   C3B 4687  19.322  14.745   7.775  0.0339 -0.1296 -0.1736
  293loPI   C4B 4688  19.560  14.747   7.331  0.1431 -0.0394  0.0488
  294loPI    C1 4689  18.904   3.551  10.041 -0.4022 -0.0317 -0.1577
  294loPI    C2 4690  18.895   3.951  10.041 -0.1741 -0.0246  0.0311
  294loPI    C3 4691  18.780   3.748  10.366 -0.0623 -0.1052  0.0209
  294loPI   PO4 4692  19.079   3.532   9.879 -0.1393 -0.2427  0.0825
  294loPI   GL1 4693  18.962   3.663   9.530 -0.1357  0.0412  0.0309
  294loPI   GL2 4694  18.777   3.994   9.546  0.0507 -0.1820 -0.3086
  294loPI   C1A 4695  18.738   3.564   9.242  0.0448 -0.1559 -0.1964
  294loPI   C2A 4696  18.660   3.558   8.735 -0.1703  0.2702  0.0531
  294loPI   C3A 4697  18.640   3.464   8.225  0.2614  0.3809  0.1011
  294loPI   C4A 4698  18.476   3.320   7.905  0.0605  0.0203  0.1552
  294loPI   C5A 4699  18.320   3.325   7.653  0.0517 -0.0514  0.0313
  294loPI   C6A 4700  18.545   3.554   7.359  0.0393 -0.1543 -0.0266
  294loPI   C1B 4701  18.734   4.051   9.107 -0.1763 -0.1288  0.1136
  294loPI   C2B 4702  18.615   4.021   8.747 -0.1699 -0.0570  0.0839
  294loPI   C3B 4703  18.738   3.959   8.268 -0.1152 -0.1693  0.1211
  294loPI   C4B 4704  18.617   3.753   7.780 -0.2959 -0.0246  0.0906
  295loPI    C1 4705   1.835  16.132   9.571 -0.1216 -0.1310 -0.0348
  295loPI    C2 4706   1.876  16.429   9.836 -0.0175 -0.0515 -0.1386
  295loPI    C3 4707   1.644  16.115   9.922  0.0260 -0.0329  0.0515
  295loPI   PO4 4708   1.857  16.226   9.401 -0.2351  0.1171 -0.3395
  295loPI   GL1 4709   2.075  16.108   9.059  0.0610 -0.2315 -0.1492
  295loPI   GL2 4710   2.224  16.472   9.182  0.1708 -0.3255  0.1714
  295loPI   C1A 4711   2.160  16.028   8.570  0.2631  0.0636  0.1492
  295loPI   C2A 4712   2.137  16.177   8.174  0.1540 -0.1103 -0.2754
  295loPI   C3A 4713   2.266  16.096   7.771 -0.2952 -0.6304 -0.4489
  295loPI   C4A 4714   2.333  16.236   7.346  0.0672 -0.1872 -0.2291
  295loPI   C5A 4715   2.191  16.812   7.228 -0.1426 -0.1377  0.1632
  295loPI   C6A 4716   2.254  17.164   6.877  0.0272  0.0437 -0.1028
  295loPI   C1B 4717   2.235  16.505   8.796  0.1591  0.4033  0.3190
  295loPI   C2B 4718   2.182  16.642   8.422  0.0762 -0.2637 -0.2842
  295loPI   C3B 4719   2.142  16.624   7.965 -0.3802 -0.2710 -0.2146
  295loPI   C4B 4720   2.278  16.659   7.676 -0.0631 -0.0824 -0.1468
  296loPI    C1 4721   3.979  18.506  10.150 -0.0055  0.0696  0.0791
  296loPI    C2 4722   4.237  18.395  10.434 -0.1572  0.0325  0.2037
  296loPI    C3 4723   3.862  18.493  10.532 -0.1850  0.1067  0.0263
  296loPI   PO4 4724   4.055  18.654   9.986 -0.0688  0.1097 -0.0400
  296loPI   GL1 4725   4.129  18.808   9.674 -0.2878  0.2806 -0.1096
  296loPI   GL2 4726   4.059  18.477   9.548 -0.0968  0.0160 -0.1279
  296loPI   C1A 4727   4.277  19.138   9.299  0.0759  0.3440 -0.0528
  296loPI   C2A 4728   4.286  19.139   8.877  0.0331 -0.1155  0.1975
  296loPI   C3A 4729   4.656  19.161   8.605 -0.0694  0.2158  0.1218
  296loPI   C4A 4730   4.735  19.413   8.192 -0.1785  0.1987  0.1288
  296loPI   C5A 4731   4.739  19.728   7.958 -0.3046  0.0882  0.0498
  296loPI   C6A 4732   4.496  20.097   7.987 -0.1501  0.2714 -0.0377
  296loPI   C1B 4733   3.893  18.792   9.178 -0.0877 -0.1738 -0.0290
  296loPI   C2B 4734   4.017  18.782   8.712  0.3630  0.2351  0.0950
  296loPI   C3B 4735   3.932  18.584   8.304  0.2538 -0.1002  0.5142
  296loPI   C4B 4736   4.242  18.662   7.923  0.0582  0.2007 -0.0959
  297loPI    C1 4737   9.346  12.107  10.260 -0.1344  0.1807 -0.1097
  297loPI    C2 4738   9.125  12.001  10.576  0.2286 -0.1052  0.0569
  297loPI    C3 4739   9.448  12.230  10.626  0.2711 -0.1265 -0.1122
  297loPI   PO4 4740   9.337  11.764  10.124  0.0739 -0.1920 -0.0990
  297loPI   GL1 4741   9.475  11.607   9.667  0.2485 -0.0378  0.0909
  297loPI   GL2 4742   9.591  11.241   9.665 -0.0579 -0.2070  0.0500
  297loPI   C1A 4743   9.332  11.874   9.295 -0.0353 -0.1670 -0.1870
  297loPI   C2A 4744   9.314  12.068   8.911 -0.0176 -0.1043  0.0076
  297loPI   C3A 4745   9.194  11.983   8.479 -0.1363  0.1045 -0.3053
  297loPI   C4A 4746   9.284  11.750   8.027 -0.0093 -0.0608  0.0472
  297loPI   C5A 4747   9.554  11.780   7.615  0.0457 -0.3129  0.0648
  297loPI   C6A 4748   9.927  11.639   7.351  0.0028 -0.3494  0.1286
  297loPI   C1B 4749   9.894  11.325   9.226  0.0584  0.2985 -0.1973
  297loPI   C2B 4750  10.116  11.166   8.948 -0.2457  0.0329 -0.1830
  297loPI   C3B 4751  10.222  10.996   8.651 -0.1834  0.0502 -0.2089
  297loPI   C4B 4752  10.283  10.915   8.217  0.3756  0.0340 -0.0517
  298loPI    C1 4753   7.944  18.263   9.950 -0.1565 -0.3388 -0.0046
  298loPI    C2 4754   7.553  18.307  10.020 -0.0838  0.0968  0.1598
  298loPI    C3 4755   7.800  18.619  10.061  0.2798 -0.1672  0.0327
  298loPI   PO4 4756   7.863  18.103   9.675 -0.0937 -0.1224 -0.0016
  298loPI   GL1 4757   7.930  18.170   9.341 -0.0218  0.0985  0.0991
  298loPI   GL2 4758   8.075  18.303   9.189 -0.0598 -0.2773  0.1723
  298loPI   C1A 4759   7.725  18.074   8.863 -0.1138  0.0351 -0.2731
  298loPI   C2A 4760   7.773  17.979   8.449 -0.0005 -0.1189 -0.0720
  298loPI   C3A 4761   7.830  17.928   8.005  0.0440  0.1708 -0.1444
  298loPI   C4A 4762   7.486  17.966   7.639  0.0289 -0.1040 -0.3651
  298loPI   C5A 4763   7.414  18.270   7.297  0.1297  0.4382 -0.2267
  298loPI   C6A 4764   7.435  18.595   7.178 -0.1920  0.3424 -0.0621
  298loPI   C1B 4765   8.039  18.436   8.883  0.1511  0.1140  0.1910
  298loPI   C2B 4766   8.084  18.410   8.382  0.0863 -0.3809  0.5193
  298loPI   C3B 4767   8.076  18.361   7.991  0.0105  0.0032 -0.0815
  298loPI   C4B 4768   8.282  18.326   7.630 -0.0953  0.2339  0.1786
  299loPI    C1 4769  13.310  11.161   9.902  0.0976  0.0937  0.2138
  299loPI    C2 4770  13.127  10.844  10.065  0.0673  0.1144  0.2205
  299loPI    C3 4771  13.509  10.923  10.154  0.1276 -0.0189  0.0850
  299loPI   PO4 4772  13.131  11.121   9.577  0.1593  0.0867 -0.1761
  299loPI   GL1 4773  13.213  11.279   9.127  0.1162 -0.0986  0.2423
  299loPI   GL2 4774  13.210  10.937   8.976 -0.2297 -0.1493 -0.1022
  299loPI   C1A 4775  12.943  11.568   8.975  0.2194  0.2477 -0.0234
  299loPI   C2A 4776  12.905  11.695   8.601 -0.2142  0.1451 -0.1630
  299loPI   C3A 4777  12.861  11.643   8.123 -0.0347  0.1137  0.1100
  299loPI   C4A 4778  12.802  11.600   7.729  0.3954 -0.0193  0.2297
  299loPI   C5A 4779  12.718  11.627   7.418 -0.0229  0.1526 -0.0121
  299loPI   C6A 4780  12.634  11.788   7.020  0.0831  0.0763 -0.5345
  299loPI   C1B 4781  13.152  11.214   8.648  0.1012  0.3348  0.1313
  299loPI   C2B 4782  12.880  11.173   8.298  0.1230  0.0452  0.0102
  299loPI   C3B 4783  12.648  11.077   8.022 -0.0002 -0.0280  0.0297
  299loPI   C4B 4784  12.884  11.142   7.554 -0.0281  0.0382 -0.3049
  300loPI    C1 4785  15.118  16.589   9.653  0.0680 -0.1254  0.2438
  300loPI    C2 4786  15.443  16.791   9.772  0.1026 -0.1181  0.1372
  300loPI    C3 4787  15.146  16.719  10.031  0.0579  0.1324  0.1580
  300loPI   PO4 4788  15.103  16.697   9.366  0.1064 -0.3110  0.4528
  300loPI   GL1 4789  14.885  16.507   8.991 -0.1995 -0.2370  0.0917
  300loPI   GL2 4790  15.020  16.231   8.924  0.0625  0.1424  0.0551
  300loPI   C1A 4791  15.066  16.727   8.672  0.1791  0.2303  0.0191
  300loPI   C2A 4792  14.968  16.783   8.197  0.1364 -0.1844  0.3536
  300loPI   C3A 4793  14.616  16.851   7.873  0.1867 -0.3136 -0.3263
  300loPI   C4A 4794  14.414  16.825   7.431 -0.1133  0.0410  0.0869
  300loPI   C5A 4795  14.344  16.477   7.116  0.0900 -0.2485  0.2280
  300loPI   C6A 4796  14.449  16.409   6.707 -0.1798  0.0177  0.0875
  300loPI   C1B 4797  14.948  16.206   8.399 -0.1310  0.0128 -0.0492
  300loPI   C2B 4798  15.114  16.315   7.975  0.0062 -0.2547  0.1130
  300loPI   C3B 4799  14.960  16.647   7.612  0.0608  0.2903 -0.0423
  300loPI   C4B 4800  14.838  16.736   7.203  0.1539  0.2355  0.1507
  301loPI    C1 4801  15.357   0.901   9.299 -0.0485  0.0291  0.2136
  301loPI    C2 4802  15.546   0.562   9.394 -0.0609  0.0822  0.4338
  301loPI    C3 4803  15.361   0.774   9.678 -0.1633  0.2070  0.2760
  301loPI   PO4 4804  15.549   0.893   9.024 -0.1977 -0.1078 -0.3463
  301loPI   GL1 4805  15.378   1.029   8.754  0.0466 -0.0971  0.2108
  301loPI   GL2 4806  15.162   1.233   8.863 -0.3267  0.1334  0.4560
  301loPI   C1A 4807  15.430   1.273   8.441 -0.0240  0.1027 -0.1031
  301loPI   C2A 4808  15.209   1.501   8.097 -0.0953  0.0699  0.2160
  301loPI   C3A 4809  14.948   1.692   7.849 -0.0556 -0.1653  0.1862
  301loPI   C4A 4810  14.706   1.969   7.551  0.2391  0.0424  0.0979
  301loPI   C5A 4811  14.862   2.178   7.174 -0.2719 -0.3332 -0.1878
  301loPI   C6A 4812  14.789   2.465   6.882  0.0685  0.1125  0.1494
  301loPI   C1B 4813  15.030   1.503   8.572 -0.1282  0.0803  0.4025
  301loPI   C2B 4814  15.026   1.880   8.319  0.0768  0.1838 -0.2597
  301loPI   C3B 4815  14.974   2.195   8.088 -0.1526 -0.0398  0.1059
  301loPI   C4B 4816  15.137   2.306   7.774  0.3161  0.3388  0.2611
  302loPI    C1 4817   7.028  10.871   9.862  0.0327 -0.0905 -0.2018
  302loPI    C2 4818   7.154  10.640  10.163  0.0329  0.1122 -0.0440
  302loPI    C3 4819   6.880  10.923  10.230  0.0697  0.1916 -0.2246
  302loPI   PO4 4820   7.039  10.695   9.608 -0.1665 -0.1744  0.1583
  302loPI   GL1 4821   6.679  10.492   9.434  0.0337  0.0930  0.0353
  302loPI   GL2 4822   6.632  10.134   9.328  0.0671 -0.2516  0.2098
  302loPI   C1A 4823   6.610  10.512   9.012  0.0432 -0.1092 -0.1326
  302loPI   C2A 4824   6.505  10.433   8.580  0.0812  0.1927 -0.1015
  302loPI   C3A 4825   6.403  10.178   8.201  0.2424  0.0539  0.2221
  302loPI   C4A 4826   6.459  10.203   7.788 -0.0041 -0.2501 -0.1988
  302loPI   C5A 4827   6.224  10.416   7.400  0.1547  0.1388  0.0688
  302loPI   C6A 4828   6.116  10.603   7.093 -0.1094  0.0286 -0.0902
  302loPI   C1B 4829   6.954  10.161   8.952 -0.1222 -0.0717 -0.0860
  302loPI   C2B 4830   6.893  10.138   8.480  0.2612  0.2224  0.1185
  302loPI   C3B 4831   6.952  10.134   8.093 -0.3004  0.0705  0.2607
  302loPI   C4B 4832   6.896  10.066   7.617  0.0664  0.1135  0.1163
  303loPI    C1 4833  17.997   5.144  10.259  0.0794 -0.0237 -0.0044
  303loPI    C2 4834  17.884   4.814  10.456  0.0207  0.0300  0.0522
  303loPI    C3 4835  17.898   5.166  10.646  0.0048  0.0748 -0.0289
  303loPI   PO4 4836  18.068   4.954   9.996 -0.0859  0.1852  0.1006
  303loPI   GL1 4837  18.003   4.954   9.549 -0.0930  0.1164 -0.0636
  303loPI   GL2 4838  18.297   5.173   9.544  0.3424  0.2645 -0.0150
  303loPI   C1A 4839  17.762   4.979   9.213 -0.2399 -0.2354  0.1123
  303loPI   C2A 4840  17.584   4.967   8.793  0.1880  0.1225  0.0997
  303loPI   C3A 4841  17.451   4.908   8.304 -0.1513 -0.1304 -0.1533
  303loPI   C4A 4842  17.500   4.798   7.829  0.4697 -0.0474  0.0644
  303loPI   C5A 4843  17.691   4.587   7.384 -0.0549 -0.1025  0.1749
  303loPI   C6A 4844  17.753   4.538   6.950  0.1409 -0.2809  0.0824
  303loPI   C1B 4845  18.323   5.041   9.121  0.0580 -0.2421 -0.2009
  303loPI   C2B 4846  18.125   4.843   8.880  0.1673 -0.1481 -0.1411
  303loPI   C3B 4847  17.942   4.745   8.541  0.0618  0.2018  0.1828
  303loPI   C4B 4848  17.945   5.013   8.227  0.1009  0.0889  0.0750
  304loPI    C1 4849  16.474   4.636  10.042 -0.2035 -0.0790 -0.0726
  304loPI    C2 4850  16.513   4.801  10.404  0.2427  0.2113 -0.2448
  304loPI    C3 4851  16.690   4.451  10.324 -0.1037 -0.0025 -0.0983
  304loPI   PO4 4852  16.608   4.861   9.885 -0.0526  0.0559 -0.1415
  304loPI   GL1 4853  16.664   4.757   9.531  0.2512 -0.3255 -0.0232
  304loPI   GL2 4854  16.928   5.070   9.543 -0.1581 -0.0610  0.2350
  304loPI   C1A 4855  16.720   4.944   9.024  0.1421  0.0617 -0.0383
  304loPI   C2A 4856  16.828   5.146   8.655  0.1517  0.2212  0.0687
  304loPI   C3A 4857  16.719   5.247   8.157 -0.3183 -0.2246  0.1889
  304loPI   C4A 4858  16.553   5.248   7.739  0.0333  0.2504 -0.0541
  304loPI   C5A 4859  16.389   5.465   7.556  0.3904 -0.1248  0.2754
  304loPI   C6A 4860  16.107   5.379   7.218 -0.2895  0.0996  0.1726
  304loPI   C1B 4861  16.729   5.368   9.246  0.0812  0.1654  0.0904
  304loPI   C2B 4862  16.435   5.599   9.041  0.2255 -0.1267 -0.3217
  304loPI   C3B 4863  16.298   5.538   8.652 -0.0548  0.0680  0.3232
  304loPI   C4B 4864  16.244   5.780   8.233 -0.3076 -0.1544 -0.2716
  305loPI    C1 4865   6.318  17.075   9.678 -0.0649 -0.2277 -0.0159
  305loPI    C2 4866   6.312  17.271  10.027 -0.1656 -0.0652 -0.1078
  305loPI    C3 4867   6.053  17.368   9.738  0.0582 -0.0517 -0.3076
  305loPI   PO4 4868   6.581  17.089   9.619 -0.2485  0.0354  0.0037
  305loPI   GL1 4869   6.976  16.997   9.262  0.1558 -0.2861  0.0651
  305loPI   GL2 4870   6.962  16.608   9.363 -0.2514  0.0655  0.3701
  305loPI   C1A 4871   6.992  17.305   8.935  0.1322  0.1351  0.1383
  305loPI   C2A 4872   7.112  17.400   8.486  0.1068 -0.1847 -0.0105
  305loPI   C3A 4873   7.295  17.140   8.189 -0.1517 -0.2514  0.0583
  305loPI   C4A 4874   7.188  16.739   8.114 -0.0516 -0.0245  0.4060
  305loPI   C5A 4875   7.098  16.569   7.720 -0.0040  0.1382 -0.0850
  305loPI   C6A 4876   7.080  16.569   7.286 -0.1803 -0.3691  0.2063
  305loPI   C1B 4877   7.089  16.244   9.199  0.1274 -0.0076 -0.3187
  305loPI   C2B 4878   7.243  16.287   8.809 -0.1512  0.1264  0.3060
  305loPI   C3B 4879   7.314  16.300   8.361  0.0354 -0.0734  0.0256
  305loPI   C4B 4880   7.207  16.173   7.979 -0.2953  0.2316  0.1632
  306loPI    C1 4881  12.116   0.269  10.130  0.0563  0.0991  0.1363
  306loPI    C2 4882  12.023  -0.101  10.251 -0.1006  0.0228 -0.2055
  306loPI    C3 4883  12.399   0.031  10.285 -0.0788 -0.1027  0.0777
  306loPI   PO4 4884  11.945   0.354   9.895  0.2139  0.1155 -0.3450
  306loPI   GL1 4885  11.754   0.506   9.545  0.1878 -0.4179  0.1102
  306loPI   GL2 4886  11.835   0.746   9.292  0.0447  0.0629  0.1088
  306loPI   C1A 4887  11.945   0.356   9.076  0.2172  0.0816  0.1372
  306loPI   C2A 4888  11.957   0.322   8.673 -0.1228  0.0733  0.2139
  306loPI   C3A 4889  11.872   0.430   8.212  0.1709  0.2081 -0.1654
  306loPI   C4A 4890  11.926   0.450   7.841 -0.1346  0.2912  0.1629
  306loPI   C5A 4891  11.725   0.375   7.469 -0.4262  0.3860  0.0227
  306loPI   C6A 4892  11.268   0.303   7.414 -0.0399  0.0326  0.0979
  306loPI   C1B 4893  11.717   0.820   8.883 -0.2320 -0.3103 -0.2363
  306loPI   C2B 4894  11.673   0.809   8.477  0.1218  0.0861 -0.1291
  306loPI   C3B 4895  11.650   0.916   8.065  0.0021  0.1382  0.1054
  306loPI   C4B 4896  11.559   0.835   7.562 -0.1611 -0.4906  0.2587
  307loPI    C1 4897   0.759   6.703  10.046 -0.2025  0.1070 -0.1289
  307loPI    C2 4898   0.962   6.921  10.313 -0.0162  0.0687 -0.2371
  307loPI    C3 4899   0.684   6.661  10.436  0.2091 -0.0954 -0.0658
  307loPI   PO4 4900   0.800   6.571   9.858  0.0385  0.0880  0.1675
  307loPI   GL1 4901   0.715   6.761   9.383 -0.1982  0.0744  0.0362
  307loPI   GL2 4902   0.616   7.147   9.334 -0.1162 -0.0960  0.1388
  307loPI   C1A 4903   0.735   6.531   8.977 -0.4463  0.1090  0.1352
  307loPI   C2A 4904   0.958   6.403   8.594  0.0946  0.1310  0.1237
  307loPI   C3A 4905   1.301   6.560   8.408 -0.4849 -0.2808 -0.0769
  307loPI   C4A 4906   1.457   6.596   8.107 -0.3394 -0.0615 -0.1228
  307loPI   C5A 4907   1.393   6.715   7.738 -0.2455 -0.3578 -0.0830
  307loPI   C6A 4908   1.375   6.530   7.314 -0.0335 -0.1121  0.0483
  307loPI   C1B 4909   0.418   6.873   8.957 -0.5131  0.0334 -0.1110
  307loPI   C2B 4910   0.549   6.846   8.586  0.0856 -0.4076  0.2416
  307loPI   C3B 4911   0.662   6.714   8.314 -0.1374  0.1426  0.0395
  307loPI   C4B 4912   0.488   6.852   7.983  0.0254  0.0457 -0.0521
  308loPI    C1 4913  16.041  15.297   9.300  0.2317 -0.0976  0.1113
  308loPI    C2 4914  15.981  15.682   9.213  0.2075 -0.1551 -0.1331
  308loPI    C3 4915  16.133  15.579   9.568 -0.1869  0.0535  0.1037
  308loPI   PO4 4916  15.878  15.185   9.192  0.2478  0.2412  0.2846
  308loPI   GL1 4917  15.708  15.025   8.789  0.2267  0.0073 -0.1317
  308loPI   GL2 4918  16.027  14.988   8.713  0.3094  0.0066 -0.1062
  308loPI   C1A 4919  15.445  15.159   8.435 -0.1366 -0.0203 -0.0558
  308loPI   C2A 4920  15.472  15.496   8.133 -0.0941  0.0626 -0.1817
  308loPI   C3A 4921  15.886  15.751   8.002 -0.0315  0.0949 -0.0918
  308loPI   C4A 4922  15.978  15.947   7.695  0.0804 -0.2820  0.2625
  308loPI   C5A 4923  15.822  16.193   7.364 -0.1841  0.0705  0.0631
  308loPI   C6A 4924  15.588  16.409   6.926 -0.1642  0.2263 -0.1791
  308loPI   C1B 4925  16.012  15.233   8.341  0.0115 -0.1105 -0.0681
  308loPI   C2B 4926  15.804  15.172   8.006  0.1077 -0.1582 -0.1959
  308loPI   C3B 4927  15.351  15.071   7.918  0.0578 -0.4507 -0.0094
  308loPI   C4B 4928  15.122  14.744   7.869 -0.2123  0.2844 -0.2075
  309loPI    C1 4929  18.034   9.508   9.538 -0.1458 -0.0603  0.1671
  309loPI    C2 4930  17.798   9.803   9.669 -0.0301  0.2129 -0.2236
  309loPI    C3 4931  18.151   9.736   9.845 -0.1645  0.1437  0.0243
  309loPI   PO4 4932  17.955   9.521   9.272  0.1862  0.1867 -0.2422
  309loPI   GL1 4933  17.861   9.260   8.947  0.2566 -0.1340  0.1101
  309loPI   GL2 4934  17.706   9.035   8.887 -0.1404  0.0981  0.4676
  309loPI   C1A 4935  17.806   9.545   8.669  0.0713  0.0665  0.1041
  309loPI   C2A 4936  17.725   9.542   8.171 -0.0030  0.0053  0.1226
  309loPI   C3A 4937  17.961   9.410   7.754 -0.1834 -0.1627  0.3726
  309loPI   C4A 4938  18.146   9.511   7.349 -0.2040  0.0099 -0.0977
  309loPI   C5A 4939  17.937   9.659   6.966 -0.0512 -0.0820  0.0394
  309loPI   C6A 4940  17.507   9.636   6.877  0.4158 -0.2581  0.1204
  309loPI   C1B 4941  17.368   9.113   8.668 -0.0357 -0.0577  0.0547
  309loPI   C2B 4942  17.291   8.982   8.225 -0.1072 -0.2627  0.1533
  309loPI   C3B 4943  17.104   9.074   7.778  0.2677 -0.0638  0.3182
  309loPI   C4B 4944  17.203   9.060   7.281 -0.1008 -0.0532 -0.3766
  310loPI    C1 4945   5.084   6.085  10.491  0.1390  0.1120 -0.0309
  310loPI    C2 4946   4.884   6.122  10.835  0.0710 -0.0722 -0.0496
  310loPI    C3 4947   4.919   5.763  10.662  0.1709  0.0071 -0.1955
  310loPI   PO4 4948   4.948   6.266  10.313  0.4467 -0.2415  0.0238
  310loPI   GL1 4949   4.853   6.184   9.941  0.0641  0.0208  0.0962
  310loPI   GL2 4950   4.950   6.437   9.800 -0.3554  0.1361  0.2412
  310loPI   C1A 4951   4.695   6.158   9.505  0.0849  0.1558 -0.3852
  310loPI   C2A 4952   4.798   6.080   8.963  0.3423 -0.4910 -0.4601
  310loPI   C3A 4953   4.813   5.890   8.533 -0.0851  0.0980 -0.0561
  310loPI   C4A 4954   4.557   5.949   8.079  0.0442 -0.1163 -0.1860
  310loPI   C5A 4955   4.242   5.965   7.782 -0.0429 -0.0844  0.1731
  310loPI   C6A 4956   3.977   5.811   7.380  0.1689 -0.2255 -0.0688
  310loPI   C1B 4957   5.132   6.336   9.416 -0.0273 -0.2604 -0.2912
  310loPI   C2B 4958   5.179   6.503   8.912  0.4986  0.0505 -0.1101
  310loPI   C3B 4959   5.183   6.301   8.465 -0.0809 -0.1042 -0.0260
  310loPI   C4B 4960   5.176   6.261   8.053 -0.0922  0.1281  0.2843
  311loPI    C1 4961  16.919   3.757  10.000  0.0942  0.1715  0.0493
  311loPI    C2 4962  16.990   4.014  10.298  0.0481  0.0787  0.1410
  311loPI    C3 4963  17.198   3.674  10.274  0.1109  0.1249  0.0182
  311loPI   PO4 4964  16.743   3.806   9.936 -0.6121  0.1056  0.1115
  311loPI   GL1 4965  16.606   3.968   9.492  0.3038  0.0340  0.2625
  311loPI   GL2 4966  16.788   4.230   9.314  0.0762 -0.0202  0.1505
  311loPI   C1A 4967  16.433   3.963   8.940 -0.0319  0.2274  0.0655
  311loPI   C2A 4968  16.564   4.052   8.503 -0.0185  0.0410  0.0296
  311loPI   C3A 4969  16.612   4.332   8.203 -0.2631  0.0112  0.0036
  311loPI   C4A 4970  16.526   4.529   7.754  0.0272  0.0717  0.0309
  311loPI   C5A 4971  16.707   4.809   7.465  0.1926 -0.4770  0.5050
  311loPI   C6A 4972  16.479   4.951   7.129 -0.0382  0.1710  0.1484
  311loPI   C1B 4973  16.841   4.285   8.892 -0.0300  0.2640  0.2201
  311loPI   C2B 4974  17.039   4.167   8.566  0.0539  0.0864  0.3372
  311loPI   C3B 4975  17.370   3.927   8.353  0.2207 -0.2864  0.0493
  311loPI   C4B 4976  17.741   3.897   8.179  0.0501  0.1609 -0.3197
  312loPI    C1 4977   7.740  11.329   9.993  0.0124 -0.0367  0.0618
  312loPI    C2 4978   7.845  11.107  10.308 -0.1095 -0.1071  0.0532
  312loPI    C3 4979   7.756  11.494  10.357  0.1353 -0.0504  0.0631
  312loPI   PO4 4980   7.543  11.136   9.888  0.4941  0.2360  0.2038
  312loPI   GL1 4981   7.490  11.014   9.438  0.4741  0.3519  0.0562
  312loPI   GL2 4982   7.203  10.937   9.147 -0.0931  0.2339  0.3661
  312loPI   C1A 4983   7.652  11.340   9.156  0.4243 -0.0639  0.1245
  312loPI   C2A 4984   7.927  11.326   8.927  0.0069  0.1178 -0.1756
  312loPI   C3A 4985   8.001  11.222   8.459 -0.3041  0.2007  0.0942
  312loPI   C4A 4986   8.212  11.116   8.108  0.2379 -0.3151  0.2816
  312loPI   C5A 4987   8.499  11.332   7.816  0.2034  0.1393 -0.0568
  312loPI   C6A 4988   8.844  11.421   7.521 -0.1448  0.2886  0.1234
  312loPI   C1B 4989   7.321  11.149   8.791 -0.0488 -0.2572 -0.1815
  312loPI   C2B 4990   7.231  10.981   8.374  0.3683  0.3294 -0.0224
  312loPI   C3B 4991   7.303  10.834   7.962 -0.2746 -0.2742 -0.2457
  312loPI   C4B 4992   7.106  11.022   7.670  0.2281 -0.2998  0.2705
  313loPI    C1 4993  12.519  12.482  10.026  0.2010 -0.5173 -0.0334
  313loPI    C2 4994  12.863  12.534   9.828  0.1086 -0.0263 -0.0768
  313loPI    C3 4995  12.844  12.611  10.220  0.0353  0.0021 -0.0859
  313loPI   PO4 4996  12.411  12.251   9.754  0.0256 -0.1715 -0.3893
  313loPI   GL1 4997  12.509  12.369   9.285 -0.2962 -0.2251 -0.2881
  313loPI   GL2 4998  12.671  12.375   8.940  0.0705 -0.0804 -0.1569
  313loPI   C1A 4999  12.197  12.435   8.848 -0.0421 -0.0617  0.2871
  313loPI   C2A 5000  12.238  12.430   8.376  0.3748 -0.1787  0.2175
  313loPI   C3A 5001  12.229  12.316   8.022 -0.0007 -0.0386  0.1089
  313loPI   C4A 5002  11.873  12.065   7.810 -0.3287 -0.1833 -0.0650
  313loPI   C5A 5003  11.928  11.659   7.647  0.2397  0.0732  0.0013
  313loPI   C6A 5004  11.803  11.503   7.327  0.3679  0.1703  0.3572
  313loPI   C1B 5005  12.710  12.277   8.503 -0.3765 -0.1187 -0.1473
  313loPI   C2B 5006  12.706  12.082   8.136  0.2332 -0.2038  0.2681
  313loPI   C3B 5007  12.867  12.126   7.755  0.1406  0.0452 -0.0746
  313loPI   C4B 5008  12.920  12.125   7.309 -0.0750  0.1729 -0.1934
  314loPI    C1 5009   6.843  15.337  10.133 -0.3495  0.1010 -0.1082
  314loPI    C2 5010   6.667  15.289  10.489 -0.3298  0.1158 -0.0965
  314loPI    C3 5011   7.025  15.465  10.465 -0.0486 -0.4296 -0.0580
  314loPI   PO4 5012   6.799  15.164   9.983 -0.1090  0.1812  0.0011
  314loPI   GL1 5013   6.719  15.032   9.576 -0.1748  0.0322 -0.1349
  314loPI   GL2 5014   7.096  15.088   9.581 -0.0220  0.0529  0.0875
  314loPI   C1A 5015   6.875  15.018   9.131  0.3177  0.2241  0.0976
  314loPI   C2A 5016   6.857  15.009   8.667  0.1845  0.2878 -0.3534
  314loPI   C3A 5017   6.723  14.821   8.441 -0.0499 -0.1760 -0.1998
  314loPI   C4A 5018   6.779  14.577   8.104  0.0087 -0.1429  0.1881
  314loPI   C5A 5019   6.823  14.297   7.642  0.0587 -0.1705 -0.1811
  314loPI   C6A 5020   6.555  14.133   7.270  0.1411  0.0865  0.0373
  314loPI   C1B 5021   7.370  15.009   9.238  0.0603 -0.3099  0.2299
  314loPI   C2B 5022   7.307  14.833   8.780 -0.1234 -0.1266  0.3302
  314loPI   C3B 5023   7.273  14.762   8.408 -0.0613 -0.0060  0.1624
  314loPI   C4B 5024   7.239  14.681   7.968 -0.0007  0.1208  0.0864
  315loPI    C1 5025   0.090   9.673   9.881  0.2654 -0.0897  0.0924
  315loPI    C2 5026  -0.024   9.292   9.925  0.0400 -0.0212  0.1085
  315loPI    C3 5027  -0.284   9.589   9.995  0.2682  0.1417  0.2790
  315loPI   PO4 5028   0.225   9.784   9.578 -0.0819  0.1399 -0.4418
  315loPI   GL1 5029   0.307   9.766   9.234  0.3187 -0.1837  0.1755
  315loPI   GL2 5030   0.021   9.685   9.004  0.3590 -0.0588  0.3737
  315loPI   C1A 5031   0.331   9.801   8.650  0.3022  0.1453  0.2505
  315loPI   C2A 5032   0.293   9.751   8.125 -0.1245 -0.2793  0.2322
  315loPI   C3A 5033   0.142   9.648   7.689  0.0127  0.0938 -0.0336
  315loPI   C4A 5034   0.053   9.511   7.259 -0.1095  0.2747  0.0079
  315loPI   C5A 5035   0.352   9.349   7.038 -0.1384 -0.0837  0.0737
  315loPI   C6A 5036   0.514   8.882   7.201 -0.0157  0.2659  0.3193
  315loPI   C1B 5037  -0.219   9.756   8.627 -0.0417  0.1021  0.2210
  315loPI   C2B 5038  -0.167   9.547   8.193 -0.3068 -0.2445  0.2682
  315loPI   C3B 5039  -0.297   9.682   7.898 -0.6221  0.0873 -0.2358
  315loPI   C4B 5040  -0.309   9.400   7.528 -0.2714 -0.2037  0.1378
  316loPI    C1 5041  10.053  13.610   9.865  0.2428 -0.0308  0.0764
  316loPI    C2 5042  10.262  13.305  10.020  0.0473 -0.2225 -0.0303
  316loPI    C3 5043   9.994  13.499  10.245  0.0061 -0.2804 -0.0294
  316loPI   PO4 5044  10.152  13.533   9.609 -0.2365  0.3017  0.0624
  316loPI   GL1 5045   9.940  13.684   9.322  0.0807  0.0022  0.1513
  316loPI   GL2 5046   9.709  13.827   9.182  0.0693 -0.1170  0.1767
  316loPI   C1A 5047  10.122  13.559   8.970 -0.0548  0.0297 -0.1854
  316loPI   C2A 5048  10.306  13.486   8.603 -0.1117  0.5461  0.1624
  316loPI   C3A 5049  10.401  13.385   8.178  0.4335  0.0350 -0.0542
  316loPI   C4A 5050  10.453  13.286   7.795 -0.3523 -0.2393  0.5093
  316loPI   C5A 5051  10.123  13.414   7.473 -0.5837 -0.2630 -0.1041
  316loPI   C6A 5052   9.924  13.484   7.059  0.3826  0.1657 -0.0069
  316loPI   C1B 5053   9.353  13.725   8.846  0.1011 -0.0514  0.0365
  316loPI   C2B 5054   9.402  13.594   8.476  0.4160  0.0693 -0.3935
  316loPI   C3B 5055   9.517  13.472   8.111  0.1287  0.1009  0.1518
  316loPI   C4B 5056   9.526  13.445   7.680  0.0147  0.1715 -0.0084
  317loPI    C1 5057  16.001   1.138   9.255 -0.0962 -0.2343 -0.0011
  317loPI    C2 5058  16.232   0.860   9.425  0.0303 -0.1499 -0.0337
  317loPI    C3 5059  15.849   0.896   9.535  0.1701  0.0587  0.4077
  317loPI   PO4 5060  16.023   1.150   9.072 -0.2686 -0.0048 -0.1085
  317loPI   GL1 5061  16.162   0.984   8.746 -0.0900 -0.3236 -0.0374
  317loPI   GL2 5062  15.848   1.144   8.594  0.2559  0.3002  0.2381
  317loPI   C1A 5063  16.390   0.971   8.321  0.2142  0.1690 -0.2787
  317loPI   C2A 5064  16.384   0.996   7.793 -0.0114  0.0460  0.1440
  317loPI   C3A 5065  16.479   1.052   7.405 -0.2659  0.1036  0.2331
  317loPI   C4A 5066  16.778   1.095   7.040  0.1241  0.0186  0.0287
  317loPI   C5A 5067  17.032   1.270   6.821  0.0251 -0.1279  0.0164
  317loPI   C6A 5068  17.177   1.021   6.401 -0.0214 -0.3684 -0.2341
  317loPI   C1B 5069  15.882   1.175   8.068  0.1583 -0.0183  0.2336
  317loPI   C2B 5070  15.845   1.210   7.628 -0.1057 -0.0980 -0.0214
  317loPI   C3B 5071  15.899   1.117   7.186  0.3038  0.3150  0.2201
  317loPI   C4B 5072  15.666   0.969   6.877 -0.2297  0.1096 -0.1092
  318loPI    C1 5073   2.817  13.696   9.792 -0.0364  0.0768  0.1057
  318loPI    C2 5074   2.491  13.881   9.932 -0.1936 -0.2210  0.1424
  318loPI    C3 5075   2.593  13.522  10.075  0.1691 -0.1180  0.1515
  318loPI   PO4 5076   2.735  13.729   9.552 -0.0645  0.1089  0.0091
  318loPI   GL1 5077   2.869  13.421   9.212 -0.1792 -0.3129 -0.1547
  318loPI   GL2 5078   2.533  13.471   9.079 -0.3896 -0.3059 -0.1955
  318loPI   C1A 5079   2.981  13.298   8.854  0.0407 -0.0754 -0.1885
  318loPI   C2A 5080   3.059  13.414   8.433 -0.0785  0.0180  0.1951
  318loPI   C3A 5081   3.109  13.608   7.964  0.0082  0.0313 -0.2306
  318loPI   C4A 5082   2.869  14.059   7.699  0.1052 -0.2655  0.1814
  318loPI   C5A 5083   2.878  14.215   7.257 -0.1925  0.1312 -0.1557
  318loPI   C6A 5084   3.307  14.354   7.230  0.1525  0.2216  0.2560
  318loPI   C1B 5085   2.642  13.570   8.690  0.1991  0.1346 -0.1216
  318loPI   C2B 5086   2.591  13.644   8.232 -0.0162  0.0432 -0.1647
  318loPI   C3B 5087   2.522  13.652   7.785  0.1194  0.1477  0.0602
  318loPI   C4B 5088   2.199  13.621   7.503 -0.0342  0.2374 -0.1487
  319loPI    C1 5089  11.551  18.744   9.710 -0.1783  0.0014  0.0150
  319loPI    C2 5090  11.718  18.903  10.038 -0.0141 -0.0875 -0.0245
  319loPI    C3 5091  11.736  18.508   9.975 -0.0735 -0.0746 -0.1245
  319loPI   PO4 5092  11.640  18.874   9.521  0.6873 -0.0341 -0.0162
  319loPI   GL1 5093  11.391  19.057   9.302  0.2952  0.2282  0.0315
  319loPI   GL2 5094  11.659  19.334   9.284  0.1081 -0.2081  0.1842
  319loPI   C1A 5095  11.215  18.900   8.923  0.2979 -0.3845 -0.1587
  319loPI   C2A 5096  11.270  19.096   8.517  0.2112 -0.3067 -0.2121
  319loPI   C3A 5097  11.320  18.949   8.076  0.2328 -0.0982  0.2728
  319loPI   C4A 5098  11.358  18.576   7.846 -0.0758  0.1299  0.1251
  319loPI   C5A 5099  11.564  18.357   7.445  0.0807  0.1620 -0.1688
  319loPI   C6A 5100  11.685  18.406   6.973 -0.1812 -0.1118  0.1652
  319loPI   C1B 5101  11.624  19.245   8.833  0.0315  0.2776 -0.4086
  319loPI   C2B 5102  11.701  19.281   8.315  0.0744  0.1692  0.0609
  319loPI   C3B 5103  11.642  19.368   7.929 -0.3141 -0.1040  0.1900
  319loPI   C4B 5104  11.539  19.204   7.567 -0.2590 -0.0626 -0.4760
  320loPI    C1 5105   6.671   8.885  10.712 -0.0489 -0.1909  0.1147
  320loPI    C2 5106   7.040   9.040  10.721  0.0563 -0.4278 -0.0309
  320loPI    C3 5107   6.873   8.903  11.057 -0.1141  0.1651  0.1387
  320loPI   PO4 5108   6.726   8.772  10.395  0.0525  0.1247  0.3373
  320loPI   GL1 5109   7.055   8.755  10.127 -0.2097  0.1349  0.1924
  320loPI   GL2 5110   7.231   8.504  10.065  0.1589 -0.4069 -0.1695
  320loPI   C1A 5111   7.186   8.727   9.646  0.0296 -0.2974  0.4844
  320loPI   C2A 5112   7.014   8.752   9.162 -0.1192 -0.0322 -0.5194
  320loPI   C3A 5113   6.795   9.001   8.859 -0.1483 -0.2413  0.0928
  320loPI   C4A 5114   6.737   9.226   8.478 -0.0224  0.0279 -0.0011
  320loPI   C5A 5115   6.796   9.176   8.098 -0.0839  0.2439  0.0296
  320loPI   C6A 5116   6.838   9.229   7.682 -0.0271 -0.0998  0.2235
  320loPI   C1B 5117   6.924   8.308   9.595  0.0795  0.1121 -0.2873
  320loPI   C2B 5118   6.703   8.094   9.227  0.0965 -0.2639 -0.1765
  320loPI   C3B 5119   6.517   8.018   8.833  0.1089  0.1113  0.1476
  320loPI   C4B 5120   6.603   8.027   8.363  0.1224 -0.1050 -0.0538
  321loPI    C1 5121   8.274   4.498  10.674 -0.0189  0.0105 -0.1252
  321loPI    C2 5122   8.619   4.623  10.835 -0.0478 -0.0133 -0.0446
  321loPI    C3 5123   8.328   4.480  11.070 -0.0278 -0.2016 -0.1328
  321loPI   PO4 5124   8.268   4.557  10.300  0.0368  0.1333 -0.0523
  321loPI   GL1 5125   8.529   4.626   9.934 -0.3698  0.0199  0.2372
  321loPI   GL2 5126   8.447   4.371   9.837  0.1958  0.1130  0.0151
  321loPI   C1A 5127   8.448   4.913   9.498  0.0052 -0.0256  0.0777
  321loPI   C2A 5128   8.720   4.805   9.199 -0.2414  0.0122 -0.1337
  321loPI   C3A 5129   8.801   4.828   8.793  0.0525 -0.1718  0.3679
  321loPI   C4A 5130   8.630   4.888   8.481  0.1590  0.1056 -0.1530
  321loPI   C5A 5131   8.324   4.616   8.254 -0.2566  0.1380 -0.2428
  321loPI   C6A 5132   8.208   4.247   8.242  0.2034  0.3383  0.0594
  321loPI   C1B 5133   8.421   4.396   9.396  0.3108  0.1716  0.0409
  321loPI   C2B 5134   8.163   4.137   9.114  0.0069 -0.1681  0.1413
  321loPI   C3B 5135   8.061   4.146   8.670  0.0016 -0.4404  0.1375
  321loPI   C4B 5136   7.929   4.624   8.606 -0.1467  0.1760  0.0311
  322loPI    C1 5137   4.050  10.737   9.803  0.2458 -0.1235 -0.0361
  322loPI    C2 5138   3.949  10.615  10.170  0.0756  0.0856 -0.0109
  322loPI    C3 5139   4.283  10.828  10.115  0.1761 -0.0671 -0.0000
  322loPI   PO4 5140   3.850  10.829   9.670 -0.0493  0.1823 -0.0982
  322loPI   GL1 5141   3.800  10.941   9.188 -0.1222 -0.1968 -0.0267
  322loPI   GL2 5142   4.128  11.154   9.287 -0.2401  0.0989  0.1830
  322loPI   C1A 5143   3.740  10.668   8.831 -0.0179  0.0323  0.3472
  322loPI   C2A 5144   3.830  10.662   8.401 -0.0435  0.1201  0.0849
  322loPI   C3A 5145   3.838  10.439   8.071 -0.0069  0.0503 -0.2943
  322loPI   C4A 5146   3.952  10.185   7.716 -0.0774 -0.1679 -0.1109
  322loPI   C5A 5147   4.017   9.947   7.457 -0.1537 -0.1224  0.1289
  322loPI   C6A 5148   4.071   9.668   7.149  0.0459 -0.0422 -0.0489
  322loPI   C1B 5149   4.481  11.220   8.898  0.1225  0.1245 -0.0410
  322loPI   C2B 5150   4.448  11.576   8.499 -0.0170 -0.0546 -0.1916
  322loPI   C3B 5151   4.442  11.502   8.138  0.1666 -0.0276 -0.2945
  322loPI   C4B 5152   4.465  11.439   7.657  0.1364  0.0962 -0.2057
  323loPI    C1 5153   5.133   1.622  10.360 -0.1240  0.0004  0.0738
  323loPI    C2 5154   5.473   1.622  10.149 -0.1287 -0.0375  0.0663
  323loPI    C3 5155   5.483   1.561  10.544 -0.1490 -0.2946  0.0291
  323loPI   PO4 5156   4.962   1.589  10.098  0.2145 -0.0802  0.1469
  323loPI   GL1 5157   4.784   1.938   9.689 -0.0114 -0.0099 -0.4753
  323loPI   GL2 5158   5.057   1.759   9.660 -0.0571 -0.2807  0.0227
  323loPI   C1A 5159   4.856   1.623   9.286  0.3737  0.0033 -0.0368
  323loPI   C2A 5160   4.816   1.516   8.818  0.2557  0.0983  0.1357
  323loPI   C3A 5161   5.023   1.615   8.494 -0.0740  0.1575  0.1233
  323loPI   C4A 5162   5.070   1.432   8.128  0.0898 -0.1969  0.1374
  323loPI   C5A 5163   5.116   1.406   7.771  0.0930 -0.3059 -0.0692
  323loPI   C6A 5164   4.991   1.588   7.224  0.2334  0.0867  0.0460
  323loPI   C1B 5165   5.261   2.114   9.498  0.0324 -0.0085  0.1599
  323loPI   C2B 5166   5.367   2.260   9.060  0.1730 -0.2316  0.0359
  323loPI   C3B 5167   5.516   2.585   8.855 -0.1729 -0.1628 -0.0383
  323loPI   C4B 5168   5.751   2.728   8.546 -0.1353  0.1776 -0.1485
  324loPI    C1 5169   4.761   8.403  10.369 -0.0315 -0.1069 -0.0240
  324loPI    C2 5170   4.674   8.642  10.678  0.0036 -0.0239 -0.0783
  324loPI    C3 5171   4.861   8.294  10.741  0.0100 -0.0074 -0.0058
  324loPI   PO4 5172   4.672   8.492  10.167 -0.3780  0.2692  0.1144
  324loPI   GL1 5173   4.733   8.684   9.807 -0.0032 -0.1055 -0.1597
  324loPI   GL2 5174   4.410   8.514   9.685  0.0283 -0.1562 -0.1081
  324loPI   C1A 5175   4.796   8.616   9.403 -0.0555 -0.0971  0.0172
  324loPI   C2A 5176   4.948   8.346   9.079 -0.1628 -0.1570 -0.1661
  324loPI   C3A 5177   4.851   8.054   8.753  0.1423 -0.1443  0.2194
  324loPI   C4A 5178   4.797   7.826   8.331 -0.2680  0.1586 -0.2108
  324loPI   C5A 5179   4.489   7.903   8.059 -0.3168 -0.0434 -0.2666
  324loPI   C6A 5180   4.135   8.030   7.840 -0.3624  0.0422 -0.1606
  324loPI   C1B 5181   4.311   8.489   9.299  0.2233 -0.2416 -0.1062
  324loPI   C2B 5182   4.384   8.207   9.011 -0.1483  0.3004  0.2336
  324loPI   C3B 5183   4.350   8.068   8.615 -0.3758  0.0824 -0.0693
  324loPI   C4B 5184   4.231   8.226   8.295  0.0539  0.2645  0.1729
  325loPI    C1 5185   6.889  10.292   9.905 -0.1788 -0.2153 -0.1304
  325loPI    C2 5186   6.898  10.104  10.258  0.2030  0.0347 -0.0005
  325loPI    C3 5187   6.670  10.429  10.210  0.0689 -0.0611 -0.0191
  325loPI   PO4 5188   6.987  10.106   9.691  0.0180 -0.3298  0.4152
  325loPI   GL1 5189   7.290  10.238   9.492 -0.0118 -0.0146  0.1949
  325loPI   GL2 5190   7.559   9.971   9.418  0.5352  0.0883 -0.3993
  325loPI   C1A 5191   7.373  10.470   9.028 -0.0240 -0.2577  0.5142
  325loPI   C2A 5192   7.106  10.590   8.693 -0.0193 -0.0504 -0.1859
  325loPI   C3A 5193   6.856  10.622   8.244 -0.0314 -0.1725  0.3194
  325loPI   C4A 5194   6.847  10.619   7.880 -0.0443 -0.0535 -0.2497
  325loPI   C5A 5195   6.623  10.875   7.641  0.0101  0.1984 -0.0991
  325loPI   C6A 5196   6.152  10.919   7.477 -0.0208 -0.1970 -0.1707
  325loPI   C1B 5197   7.915   9.932   9.172 -0.0370  0.0300 -0.1513
  325loPI   C2B 5198   7.995   9.945   8.725  0.2156  0.1847 -0.1016
  325loPI   C3B 5199   7.898   9.829   8.312 -0.3410  0.0489  0.1709
  325loPI   C4B 5200   7.959   9.450   8.069  0.1850  0.0412 -0.1141
  326loPI    C1 5201   1.211  17.938   9.532  0.3060  0.0915 -0.1024
  326loPI    C2 5202   0.951  18.238   9.479  0.2786  0.0816 -0.0266
  326loPI    C3 5203   0.988  18.066   9.838  0.1102 -0.1758 -0.1296
  326loPI   PO4 5204   1.430  18.038   9.403  0.1196  0.0957 -0.0293
  326loPI   GL1 5205   1.649  18.134   9.023 -0.0054  0.1320  0.1510
  326loPI   GL2 5206   1.543  17.913   8.884  0.0277  0.2051  0.0523
  326loPI   C1A 5207   1.673  18.472   8.659 -0.0920  0.2985  0.1211
  326loPI   C2A 5208   1.897  18.755   8.453  0.0550 -0.1866  0.1930
  326loPI   C3A 5209   1.962  19.097   8.207 -0.1435 -0.0373  0.0889
  326loPI   C4A 5210   1.956  19.066   7.731 -0.1064 -0.0693 -0.0413
  326loPI   C5A 5211   2.131  19.389   7.426  0.0113 -0.0155  0.0738
  326loPI   C6A 5212   1.979  19.681   7.057  0.0508 -0.2171 -0.1493
  326loPI   C1B 5213   1.373  18.107   8.527  0.3563  0.1084  0.0441
  326loPI   C2B 5214   1.581  18.439   8.175 -0.0122  0.2429 -0.3717
  326loPI   C3B 5215   1.694  18.618   7.825 -0.3104  0.3217 -0.0998
  326loPI   C4B 5216   1.892  18.565   7.397 -0.1248 -0.1044 -0.4893
  327loPI    C1 5217   4.684   0.110   9.930 -0.1174 -0.2267 -0.0130
  327loPI    C2 5218   4.690  -0.095   9.586 -0.0872 -0.0002 -0.1499
  327loPI    C3 5219   4.365  -0.104   9.819 -0.1725 -0.0170 -0.2693
  327loPI   PO4 5220   4.843   0.346   9.838  0.0906 -0.0997  0.0642
  327loPI   GL1 5221   4.615   0.687   9.472 -0.1065  0.2931 -0.1462
  327loPI   GL2 5222   4.402   0.380   9.521 -0.3065 -0.1560 -0.0082
  327loPI   C1A 5223   4.819   0.777   9.071  0.1130  0.2086  0.0109
  327loPI   C2A 5224   4.975   0.869   8.776 -0.1046 -0.3732 -0.2194
  327loPI   C3A 5225   4.800   1.079   8.353  0.0696  0.1442 -0.1309
  327loPI   C4A 5226   4.965   0.984   7.890  0.2493 -0.4042  0.1623
  327loPI   C5A 5227   5.261   0.938   7.601  0.0128 -0.1376  0.3275
  327loPI   C6A 5228   5.536   0.720   7.524 -0.3375 -0.3046  0.0170
  327loPI   C1B 5229   4.387   0.294   9.064 -0.4065 -0.0424 -0.0420
  327loPI   C2B 5230   4.411   0.247   8.617  0.0370 -0.3660  0.1189
  327loPI   C3B 5231   4.255   0.278   8.151  0.5027  0.4754  0.0067
  327loPI   C4B 5232   3.997   0.163   7.762 -0.1831 -0.2156 -0.3081
  328loPI    C1 5233  15.556   3.492   9.977  0.1024  0.2929 -0.1441
  328loPI    C2 5234  15.492   3.436  10.368 -0.0955 -0.1923 -0.2392
  328loPI    C3 5235  15.844   3.577  10.241 -0.0317 -0.0252  0.1112
  328loPI   PO4 5236  15.306   3.231   9.796 -0.2575  0.0448 -0.1279
  328loPI   GL1 5237  15.384   3.088   9.425 -0.0404  0.2434 -0.0104
  328loPI   GL2 5238  15.547   3.353   9.390  0.2648  0.1997  0.0238
  328loPI   C1A 5239  15.161   3.019   9.031 -0.2218 -0.1525 -0.0090
  328loPI   C2A 5240  15.235   2.945   8.559 -0.1206 -0.0497 -0.0705
  328loPI   C3A 5241  15.451   3.087   8.160  0.1923  0.1098 -0.0108
  328loPI   C4A 5242  15.393   3.363   7.758 -0.4464 -0.2521  0.0866
  328loPI   C5A 5243  15.216   3.737   7.526  0.3852  0.1978 -0.1295
  328loPI   C6A 5244  15.083   4.110   7.617  0.0118 -0.0195 -0.0007
  328loPI   C1B 5245  15.499   3.626   9.017  0.3682  0.0941  0.0526
  328loPI   C2B 5246  15.532   4.014   8.704 -0.1415  0.0774  0.0951
  328loPI   C3B 5247  15.618   4.445   8.590 -0.0373 -0.0169  0.1748
  328loPI   C4B 5248  15.494   4.692   8.295 -0.1139 -0.2008  0.3354
  329loPI    C1 5249  18.303   6.775  10.177  0.1931  0.0272  0.1749
  329loPI    C2 5250  18.519   6.879   9.857  0.0397  0.1008  0.0943
  329loPI    C3 5251  18.510   7.117  10.179 -0.2836  0.3285 -0.0773
  329loPI   PO4 5252  18.075   6.652  10.054  0.0720  0.0765  0.0400
  329loPI   GL1 5253  18.039   6.644   9.555  0.1304 -0.0800 -0.2263
  329loPI   GL2 5254  18.320   6.867   9.418  0.2859  0.0620 -0.3883
  329loPI   C1A 5255  17.888   6.541   9.202  0.2488  0.0622  0.1456
  329loPI   C2A 5256  18.011   6.423   8.795  0.1030  0.1271  0.2130
  329loPI   C3A 5257  17.945   6.587   8.309  0.0437 -0.0359  0.5281
  329loPI   C4A 5258  17.602   6.355   7.964 -0.2332  0.4022  0.4135
  329loPI   C5A 5259  17.401   6.063   8.124 -0.2534 -0.0071 -0.2161
  329loPI   C6A 5260  17.320   5.765   7.966 -0.2132 -0.0605  0.0745
  329loPI   C1B 5261  18.163   6.939   9.027  0.4068 -0.4431  0.0702
  329loPI   C2B 5262  18.083   7.033   8.697 -0.2361  0.0756 -0.3145
  329loPI   C3B 5263  18.050   7.073   8.237  0.2007  0.4159 -0.0832
  329loPI   C4B 5264  18.004   6.875   7.878  0.0741  0.2026  0.1188
  330loPI    C1 5265   1.066   0.860  10.039 -0.2393 -0.4920 -0.0251
  330loPI    C2 5266   0.993   0.947  10.423  0.1731  0.0026 -0.0483
  330loPI    C3 5267   1.261   0.664  10.329  0.2600  0.0584  0.0296
  330loPI   PO4 5268   1.123   1.143   9.862 -0.1317  0.1202 -0.1964
  330loPI   GL1 5269   1.059   1.282   9.344  0.2489 -0.0819 -0.1089
  330loPI   GL2 5270   1.050   1.098   9.082 -0.0661  0.1658 -0.0981
  330loPI   C1A 5271   1.404   1.456   9.194  0.1394 -0.0110  0.0281
  330loPI   C2A 5272   1.711   1.631   8.885  0.1951 -0.0424 -0.1519
  330loPI   C3A 5273   1.767   1.732   8.460 -0.3206 -0.2259  0.2179
  330loPI   C4A 5274   1.907   1.920   8.034  0.1028 -0.0145 -0.3979
  330loPI   C5A 5275   1.735   2.130   7.586  0.1637 -0.3538 -0.2791
  330loPI   C6A 5276   1.476   2.535   7.585 -0.0506  0.0283  0.0617
  330loPI   C1B 5277   0.832   1.062   8.667 -0.4328 -0.2526  0.0284
  330loPI   C2B 5278   0.874   0.924   8.209  0.0025 -0.1888  0.0918
  330loPI   C3B 5279   1.026   0.960   7.829  0.2666 -0.2653  0.3715
  330loPI   C4B 5280   1.334   1.059   7.528  0.1392  0.0278 -0.0924
  331loPI    C1 5281   4.076   8.647  10.191  0.1114  0.2266 -0.1395
  331loPI    C2 5282   3.803   8.893  10.349 -0.0042  0.0153 -0.0054
  331loPI    C3 5283   4.151   8.833  10.537 -0.0300 -0.0251  0.0297
  331loPI   PO4 5284   3.995   8.477  10.139  0.0371  0.3220 -0.1924
  331loPI   GL1 5285   3.896   8.242   9.750  0.2029  0.0398  0.2725
  331loPI   GL2 5286   3.844   8.473   9.547 -0.0813  0.1508  0.0170
  331loPI   C1A 5287   4.172   8.024   9.477 -0.2888 -0.2382  0.0127
  331loPI   C2A 5288   4.349   7.739   9.094 -0.0529 -0.1136  0.0900
  331loPI   C3A 5289   4.468   7.570   8.758  0.1085  0.0795  0.0921
  331loPI   C4A 5290   4.469   7.412   8.323 -0.5714  0.0156  0.2768
  331loPI   C5A 5291   4.672   7.493   7.813 -0.1260 -0.2310  0.1005
  331loPI   C6A 5292   4.975   7.717   7.471 -0.2381  0.0384 -0.0012
  331loPI   C1B 5293   3.816   8.372   9.122  0.0150 -0.0583  0.1831
  331loPI   C2B 5294   3.892   8.244   8.750  0.3789  0.0071 -0.1418
  331loPI   C3B 5295   3.751   8.152   8.317 -0.1321 -0.2761 -0.1196
  331loPI   C4B 5296   3.594   7.849   8.131 -0.1859 -0.0929  0.3615
  332loPI    C1 5297   5.625  18.397   9.984  0.1130 -0.1779 -0.0372
  332loPI    C2 5298   5.819  18.134   9.752  0.3922  0.1851 -0.2255
  332loPI    C3 5299   5.984  18.258  10.094  0.2817  0.1524 -0.1597
  332loPI   PO4 5300   5.471  18.683   9.869  0.3588  0.0838  0.2305
  332loPI   GL1 5301   5.363  18.726   9.498  0.0016  0.0952 -0.0196
  332loPI   GL2 5302   5.479  18.377   9.463  0.2572 -0.3015 -0.0094
  332loPI   C1A 5303   5.264  18.961   9.170  0.0248  0.2400 -0.1231
  332loPI   C2A 5304   5.150  19.189   8.732  0.0840  0.1436  0.1759
  332loPI   C3A 5305   5.141  19.071   8.259  0.1316 -0.0083  0.0216
  332loPI   C4A 5306   5.148  19.274   7.864 -0.2321 -0.2925  0.2500
  332loPI   C5A 5307   5.349  19.189   7.505  0.2377  0.2146 -0.0643
  332loPI   C6A 5308   5.757  19.110   7.345  0.1779 -0.0144 -0.1037
  332loPI   C1B 5309   5.383  18.277   9.002  0.3104  0.1354 -0.1498
  332loPI   C2B 5310   5.196  18.043   8.676 -0.0185 -0.1721  0.0412
  332loPI   C3B 5311   5.261  17.868   8.276  0.2982  0.1844  0.1407
  332loPI   C4B 5312   5.480  17.981   7.880  0.0201  0.3669  0.1906
  333loPI    C1 5313  11.648   1.920  10.029 -0.0166 -0.2412  0.1558
  333loPI    C2 5314  11.920   1.632  10.086  0.3342  0.0721  0.1053
  333loPI    C3 5315  11.955   1.981  10.279 -0.0276  0.1230  0.0865
  333loPI   PO4 5316  11.623   1.983   9.675 -0.2590 -0.1212 -0.0690
  333loPI   GL1 5317  11.500   1.793   9.250  0.0649 -0.1176 -0.0431
  333loPI   GL2 5318  11.417   2.159   9.280 -0.0453 -0.1406  0.0599
  333loPI   C1A 5319  11.697   1.818   8.903  0.1883  0.0369 -0.0995
  333loPI   C2A 5320  11.775   1.664   8.527  0.0023  0.1510  0.0059
  333loPI   C3A 5321  11.627   1.747   8.153 -0.0330 -0.1219 -0.1599
  333loPI   C4A 5322  11.554   2.074   7.904 -0.1332 -0.1578  0.0932
  333loPI   C5A 5323  11.405   2.365   7.590 -0.2783  0.0632 -0.3800
  333loPI   C6A 5324  11.442   2.792   7.436  0.0535  0.0173 -0.3541
  333loPI   C1B 5325  11.265   2.257   8.845  0.1209 -0.0031  0.0239
  333loPI   C2B 5326  11.270   2.603   8.544  0.1273 -0.0791  0.3224
  333loPI   C3B 5327  11.114   2.636   7.992  0.2146 -0.0586  0.0570
  333loPI   C4B 5328  10.765   2.619   7.872  0.1100 -0.1324 -0.1831
  334loPI    C1 5329   0.872   2.729   9.980  0.0554  0.1799  0.0041
  334loPI    C2 5330   1.033   2.496  10.262 -0.0647 -0.0773 -0.1368
  334loPI    C3 5331   0.938   2.875  10.346  0.1870 -0.0595  0.0775
  334loPI   PO4 5332   0.960   2.737   9.842 -0.1748 -0.1189  0.2030
  334loPI   GL1 5333   1.069   2.617   9.388 -0.1458 -0.0457 -0.3013
  334loPI   GL2 5334   1.168   2.365   9.131  0.0642 -0.3276  0.0154
  334loPI   C1A 5335   1.164   2.833   8.950 -0.3840 -0.2732 -0.0573
  334loPI   C2A 5336   1.062   2.853   8.601  0.0384 -0.0784  0.1338
  334loPI   C3A 5337   1.011   2.846   8.077  0.0112 -0.0935 -0.2911
  334loPI   C4A 5338   1.036   2.701   7.802 -0.0316  0.2023  0.2437
  334loPI   C5A 5339   1.084   2.633   7.290 -0.0405  0.1977 -0.0055
  334loPI   C6A 5340   1.260   2.972   6.878 -0.2466  0.0280  0.0694
  334loPI   C1B 5341   1.262   2.375   8.717  0.1278  0.0706 -0.2170
  334loPI   C2B 5342   1.153   2.402   8.353 -0.4241 -0.0097  0.0758
  334loPI   C3B 5343   1.106   2.228   7.974  0.0640  0.0313 -0.0895
  334loPI   C4B 5344   0.898   1.841   7.698  0.0492 -0.2884  0.0543
  335loPI    C1 5345  11.363  17.025   9.897 -0.0671  0.4004  0.0235
  335loPI    C2 5346  11.174  16.982  10.247 -0.1604 -0.1970 -0.0898
  335loPI    C3 5347  11.574  16.994  10.235 -0.1572 -0.1626  0.0365
  335loPI   PO4 5348  11.120  17.179   9.731  0.1546 -0.3463 -0.0492
  335loPI   GL1 5349  11.063  17.515   9.287 -0.3844  0.2026 -0.3020
  335loPI   GL2 5350  11.385  17.498   9.098  0.0463  0.0603  0.1562
  335loPI   C1A 5351  10.939  17.334   8.967 -0.0841 -0.1779 -0.1841
  335loPI   C2A 5352  10.710  17.267   8.586  0.0003  0.0131  0.1946
  335loPI   C3A 5353  10.626  17.468   8.227  0.3935  0.0288 -0.2910
  335loPI   C4A 5354  10.603  17.790   7.817 -0.1895  0.0633 -0.1494
  335loPI   C5A 5355  10.709  17.872   7.476  0.2490 -0.1019  0.0402
  335loPI   C6A 5356  11.052  17.645   7.181  0.4330  0.2158  0.1160
  335loPI   C1B 5357  11.666  17.575   8.836  0.1034  0.0449 -0.0607
  335loPI   C2B 5358  11.736  17.604   8.438 -0.2020  0.3042 -0.1423
  335loPI   C3B 5359  11.805  17.814   8.021  0.0006 -0.0065 -0.0728
  335loPI   C4B 5360  11.871  18.322   7.857  0.2078  0.5135  0.3267
  336loPI    C1 5361   5.281   0.169  10.052  0.1353  0.0479 -0.0514
  336loPI    C2 5362   5.255   0.400  10.378 -0.0310 -0.2006  0.1148
  336loPI    C3 5363   4.977   0.120  10.308  0.0511 -0.2082 -0.1963
  336loPI   PO4 5364   5.362   0.377   9.869  0.1181  0.1708  0.0512
  336loPI   GL1 5365   5.161   0.681   9.597 -0.3245  0.0314  0.1985
  336loPI   GL2 5366   5.013   0.416   9.387  0.3908  0.2815  0.2728
  336loPI   C1A 5367   5.363   0.699   9.209 -0.1824 -0.4382 -0.2499
  336loPI   C2A 5368   5.400   0.396   8.859  0.0244 -0.0401 -0.2661
  336loPI   C3A 5369   5.334   0.517   8.419 -0.1198 -0.0770  0.2280
  336loPI   C4A 5370   5.289   0.514   7.983 -0.1556  0.0405  0.4035
  336loPI   C5A 5371   5.151   0.366   7.576 -0.2190 -0.3326  0.1521
  336loPI   C6A 5372   5.135   0.347   7.182  0.1820 -0.0261 -0.1849
  336loPI   C1B 5373   5.353   0.080   9.271  0.3915 -0.4183  0.1194
  336loPI   C2B 5374   5.600  -0.098   8.944  0.2484 -0.0115 -0.2750
  336loPI   C3B 5375   5.694  -0.169   8.501  0.2423  0.2681 -0.1225
  336loPI   C4B 5376   5.613   0.135   8.210 -0.0388 -0.0338  0.1175
  337loPI    C1 5377   5.656  14.453   9.988 -0.2310  0.1162  0.0252
  337loPI    C2 5378   5.379  14.609  10.230 -0.0903  0.2302  0.1148
  337loPI    C3 5379   5.620  14.320  10.363 -0.2595  0.0296 -0.0082
  337loPI   PO4 5380   5.767  14.677   9.888 -0.3343  0.0742 -0.3950
  337loPI   GL1 5381   5.659  14.555   9.393  0.0481  0.1186  0.1770
  337loPI   GL2 5382   5.733  14.896   9.362 -0.1178  0.4399  0.1819
  337loPI   C1A 5383   5.448  14.523   8.999 -0.1543  0.1258  0.0471
  337loPI   C2A 5384   5.470  14.787   8.570 -0.1211  0.1476  0.0858
  337loPI   C3A 5385   5.679  14.732   8.188 -0.3676 -0.0248  0.0796
  337loPI   C4A 5386   5.919  14.713   7.875  0.1710  0.0451  0.0402
  337loPI   C5A 5387   5.845  14.608   7.453  0.0322 -0.0240 -0.0474
  337loPI   C6A 5388   5.582  14.662   7.085  0.0875  0.2775  0.1994
  337loPI   C1B 5389   5.995  14.806   9.005  0.0120  0.5130  0.0885
  337loPI   C2B 5390   5.944  14.646   8.649 -0.0149  0.0949  0.2071
  337loPI   C3B 5391   5.845  14.313   8.444 -0.0561 -0.0606 -0.0419
  337loPI   C4B 5392   5.752  13.941   8.545 -0.3410  0.0131 -0.1598
  338loPI    C1 5393   0.197  11.489   9.503  0.0652  0.1859  0.1136
  338loPI    C2 5394   0.014  11.135   9.469  0.0085  0.2194  0.0681
  338loPI    C3 5395   0.352  11.165   9.680  0.1147  0.1006 -0.0834
  338loPI   PO4 5396   0.203  11.592   9.243  0.2468  0.2134  0.2841
  338loPI   GL1 5397   0.491  11.768   9.048 -0.0050  0.0159  0.2350
  338loPI   GL2 5398   0.575  11.507   8.831 -0.0528  0.2520 -0.0131
  338loPI   C1A 5399   0.480  11.965   8.738  0.1779  0.3031  0.0282
  338loPI   C2A 5400   0.365  11.709   8.278  0.0098  0.1925 -0.0049
  338loPI   C3A 5401   0.564  11.438   8.036 -0.0848 -0.0774  0.0711
  338loPI   C4A 5402   0.803  11.456   7.562 -0.0673  0.3243 -0.0816
  338loPI   C5A 5403   0.612  11.326   7.264  0.0212  0.2877 -0.0203
  338loPI   C6A 5404   0.187  11.141   7.107 -0.1224  0.0518 -0.1585
  338loPI   C1B 5405   0.837  11.536   8.545 -0.1663  0.0688 -0.0553
  338loPI   C2B 5406   0.901  11.678   8.214 -0.2635  0.2234  0.1986
  338loPI   C3B 5407   0.637  11.921   7.916 -0.1718 -0.0433  0.0579
  338loPI   C4B 5408   0.544  11.866   7.347  0.1538  0.0739 -0.1514
  339loPI    C1 5409  16.312   4.144  10.065 -0.3783 -0.1796  0.0106
  339loPI    C2 5410  16.314   3.749  10.126 -0.0339 -0.1726  0.0600
  339loPI    C3 5411  16.488   3.993  10.391  0.1877 -0.0274 -0.2143
  339loPI   PO4 5412  16.348   4.218   9.830  0.0907 -0.0159  0.0135
  339loPI   GL1 5413  16.269   4.438   9.587  0.2543 -0.3233 -0.2448
  339loPI   GL2 5414  16.143   4.178   9.318  0.0973 -0.5312 -0.2095
  339loPI   C1A 5415  15.911   4.607   9.292 -0.2132 -0.2585 -0.0128
  339loPI   C2A 5416  15.954   4.449   8.928 -0.0601 -0.5163 -0.0127
  339loPI   C3A 5417  16.147   4.574   8.570  0.1557 -0.1402 -0.1389
  339loPI   C4A 5418  15.990   4.725   8.207 -0.2481 -0.0591 -0.2239
  339loPI   C5A 5419  15.616   4.889   7.867  0.1990 -0.1951  0.2782
  339loPI   C6A 5420  15.304   4.714   7.754 -0.3989 -0.3647 -0.3467
  339loPI   C1B 5421  16.454   4.552   9.059  0.1950 -0.4180  0.2748
  339loPI   C2B 5422  16.617   4.645   8.666  0.2364 -0.3703 -0.0849
  339loPI   C3B 5423  16.477   4.792   8.172 -0.0766  0.0046 -0.1718
  339loPI   C4B 5424  16.240   4.915   7.856  0.0346  0.1484  0.0218
  340loPI    C1 5425   1.971  12.804   9.697 -0.1251  0.0367 -0.1224
  340loPI    C2 5426   2.143  12.915  10.041 -0.2312 -0.0961 -0.0253
  340loPI    C3 5427   1.803  12.704  10.046 -0.2641 -0.0497 -0.2129
  340loPI   PO4 5428   2.186  12.762   9.534  0.2290 -0.2240 -0.1153
  340loPI   GL1 5429   2.133  12.680   9.099  0.1942 -0.2992 -0.1130
  340loPI   GL2 5430   2.033  12.570   8.776 -0.0407  0.4411 -0.1847
  340loPI   C1A 5431   2.501  12.758   8.828  0.5172 -0.0766  0.1904
  340loPI   C2A 5432   2.444  12.616   8.424 -0.2255 -0.2518  0.0254
  340loPI   C3A 5433   2.285  12.515   7.971 -0.0565 -0.0309 -0.1647
  340loPI   C4A 5434   2.197  12.275   7.527 -0.3172 -0.0304 -0.0096
  340loPI   C5A 5435   2.019  12.148   7.118 -0.2558  0.1167  0.2060
  340loPI   C6A 5436   2.106  12.207   6.651 -0.1036 -0.1763 -0.3701
  340loPI   C1B 5437   1.951  12.280   8.458 -0.1751  0.0629  0.3307
  340loPI   C2B 5438   1.833  12.311   8.011 -0.1996 -0.0585  0.0563
  340loPI   C3B 5439   1.493  12.371   7.654  0.1053  0.1703  0.2501
  340loPI   C4B 5440   1.396  12.385   7.280  0.0622  0.2690  0.1410
  341loPI    C1 5441  17.844   7.501  10.020 -0.0234 -0.3055 -0.0456
  341loPI    C2 5442  18.141   7.420  10.276  0.1830  0.0427 -0.1669
  341loPI    C3 5443  17.947   7.769  10.299 -0.0183 -0.0599 -0.2791
  341loPI   PO4 5444  17.934   7.591   9.763  0.1832  0.3043  0.0207
  341loPI   GL1 5445  18.091   7.773   9.395 -0.1222 -0.2393  0.0432
  341loPI   GL2 5446  18.450   7.820   9.234 -0.1860 -0.2798 -0.1381
  341loPI   C1A 5447  18.118   7.542   8.947  0.0186 -0.3318  0.1470
  341loPI   C2A 5448  18.209   7.575   8.519  0.1132  0.2817 -0.0375
  341loPI   C3A 5449  18.091   7.545   8.053  0.1241 -0.1768  0.2238
  341loPI   C4A 5450  18.226   7.521   7.656  0.3477 -0.0953  0.1813
  341loPI   C5A 5451  18.255   7.681   7.262  0.2156  0.1123  0.0600
  341loPI   C6A 5452  18.417   7.659   6.833  0.0362  0.0796 -0.1996
  341loPI   C1B 5453  18.610   7.836   8.859 -0.2021 -0.1041  0.0998
  341loPI   C2B 5454  18.719   8.007   8.400  0.0053  0.2903  0.0349
  341loPI   C3B 5455  18.846   8.085   8.030 -0.0437 -0.2396 -0.0189
  341loPI   C4B 5456  18.804   8.422   7.764  0.0425 -0.1301 -0.2813
  342loPI    C1 5457  15.574  18.256   9.176 -0.0742 -0.2222  0.2189
  342loPI    C2 5458  15.600  18.265   9.575  0.2180  0.1489  0.1964
  342loPI    C3 5459  15.580  18.607   9.368 -0.1672 -0.0437 -0.0974
  342loPI   PO4 5460  15.436  18.129   9.122 -0.1190  0.0881  0.0101
  342loPI   GL1 5461  15.389  17.780   8.846  0.1662 -0.0805 -0.0997
  342loPI   GL2 5462  15.706  17.808   8.812  0.0059 -0.2877  0.0938
  342loPI   C1A 5463  15.431  17.390   8.590  0.1358 -0.1646 -0.2852
  342loPI   C2A 5464  15.364  17.184   8.172  0.0057 -0.0686 -0.2524
  342loPI   C3A 5465  14.987  17.233   7.869 -0.0253 -0.0233 -0.0810
  342loPI   C4A 5466  14.972  17.487   7.422 -0.1340 -0.1706  0.0461
  342loPI   C5A 5467  15.111  17.961   7.225 -0.2435  0.2091 -0.3333
  342loPI   C6A 5468  15.346  18.301   7.146  0.2189 -0.1512 -0.1374
  342loPI   C1B 5469  15.546  17.816   8.409 -0.3530 -0.0063 -0.1675
  342loPI   C2B 5470  15.551  17.681   7.936  0.1439 -0.1962  0.1084
  342loPI   C3B 5471  15.458  17.546   7.499 -0.3395  0.2589 -0.1836
  342loPI   C4B 5472  15.496  17.286   7.161  0.1172 -0.1035  0.0556
  343loPI    C1 5473   2.310   7.032  10.304  0.2455  0.0169 -0.1523
  343loPI    C2 5474   2.203   6.981  10.686  0.1435 -0.1248 -0.1990
  343loPI    C3 5475   2.561   7.135  10.597  0.0776  0.1237 -0.0441
  343loPI   PO4 5476   2.243   6.727  10.229  0.0895  0.0989 -0.3719
  343loPI   GL1 5477   2.228   6.637   9.807  0.0626  0.3336  0.2765
  343loPI   GL2 5478   1.902   6.596   9.533 -0.1126 -0.0628 -0.0240
  343loPI   C1A 5479   2.484   6.857   9.494  0.3273 -0.3532 -0.0957
  343loPI   C2A 5480   2.425   6.931   9.111 -0.0866  0.1411 -0.0376
  343loPI   C3A 5481   2.518   6.898   8.729 -0.0827  0.2184 -0.0370
  343loPI   C4A 5482   2.689   6.890   8.338 -0.0059 -0.0857 -0.4141
  343loPI   C5A 5483   2.928   6.935   7.968 -0.0363  0.0819 -0.2863
  343loPI   C6A 5484   3.186   6.873   7.561 -0.2632  0.0115  0.0576
  343loPI   C1B 5485   1.853   6.698   9.162 -0.0621 -0.0194 -0.1022
  343loPI   C2B 5486   1.838   6.747   8.750 -0.0807  0.4983 -0.0258
  343loPI   C3B 5487   1.764   6.871   8.361  0.0119  0.0569 -0.1568
  343loPI   C4B 5488   1.801   7.049   7.944  0.1090  0.1090 -0.1328
  344loPI    C1 5489   1.024  17.036   9.600  0.0822 -0.0668  0.0469
  344loPI    C2 5490   0.645  16.997   9.723  0.1668 -0.1022  0.3021
  344loPI    C3 5491   0.939  16.802   9.913  0.2956 -0.2069  0.0023
  344loPI   PO4 5492   1.017  16.965   9.306 -0.2053  0.0540  0.2771
  344loPI   GL1 5493   0.880  17.115   8.918 -0.2259  0.3553  0.1831
  344loPI   GL2 5494   0.799  17.372   8.859 -0.0253  0.0001 -0.2017
  344loPI   C1A 5495   0.849  16.856   8.573 -0.2207  0.2016 -0.5089
  344loPI   C2A 5496   0.665  16.732   8.189 -0.0934 -0.0515 -0.0269
  344loPI   C3A 5497   0.601  16.585   7.907  0.1686 -0.2991 -0.3202
  344loPI   C4A 5498   0.781  16.491   7.451 -0.2270 -0.1346  0.0223
  344loPI   C5A 5499   0.750  16.142   7.103  0.2786  0.2124 -0.3998
  344loPI   C6A 5500   1.075  15.941   7.028  0.0631 -0.0699  0.0801
  344loPI   C1B 5501   0.780  17.350   8.462 -0.0325  0.4709  0.0192
  344loPI   C2B 5502   0.972  17.050   8.081 -0.4063 -0.0090  0.0374
  344loPI   C3B 5503   1.113  16.831   7.734  0.2532 -0.0745  0.0743
  344loPI   C4B 5504   1.327  17.154   7.504 -0.0581  0.3456 -0.1047
  345loPI    C1 5505   4.840   7.878  10.165  0.0592  0.0573  0.0121
  345loPI    C2 5506   4.769   7.556   9.939 -0.1122  0.1334 -0.0439
  345loPI    C3 5507   4.934   7.513  10.300  0.1444  0.0095 -0.1730
  345loPI   PO4 5508   5.008   8.041  10.013  0.0911  0.1544  0.0391
  345loPI   GL1 5509   4.833   8.236   9.699 -0.2971 -0.1471  0.0535
  345loPI   GL2 5510   5.144   8.232   9.531  0.1196 -0.2897  0.1928
  345loPI   C1A 5511   4.778   7.956   9.318  0.0539 -0.1521 -0.0438
  345loPI   C2A 5512   4.816   7.601   9.096 -0.2559 -0.1367 -0.1578
  345loPI   C3A 5513   4.932   7.438   8.714  0.1527  0.1958 -0.0753
  345loPI   C4A 5514   4.983   7.354   8.234 -0.0947 -0.2631  0.0836
  345loPI   C5A 5515   5.293   7.439   7.789  0.0944 -0.0061  0.1873
  345loPI   C6A 5516   5.548   7.699   7.617  0.2771  0.2697 -0.0622
  345loPI   C1B 5517   5.433   8.414   9.318  0.1038  0.0543  0.1841
  345loPI   C2B 5518   5.596   8.498   8.901 -0.1994  0.2075 -0.2541
  345loPI   C3B 5519   5.648   8.221   8.552 -0.1520 -0.1080 -0.1818
  345loPI   C4B 5520   5.844   8.088   8.163  0.0308  0.1126  0.2172
  346loPI    C1 5521   6.026   6.816  10.902 -0.3016  0.4274  0.0693
  346loPI    C2 5522   5.714   6.583  10.812  0.0911 -0.0972  0.0177
  346loPI    C3 5523   5.888   6.554  11.171  0.1978  0.0559 -0.0207
  346loPI   PO4 5524   6.256   6.830  10.631  0.2418 -0.1513 -0.2054
  346loPI   GL1 5525   6.337   6.938  10.278  0.1482  0.0690 -0.0761
  346loPI   GL2 5526   6.643   6.746  10.326  0.0214 -0.1986  0.1364
  346loPI   C1A 5527   6.082   7.004   9.901  0.0744 -0.1941 -0.2604
  346loPI   C2A 5528   5.749   6.936   9.707  0.1085 -0.2316  0.3104
  346loPI   C3A 5529   5.663   6.556   9.528 -0.2061 -0.0185 -0.0400
  346loPI   C4A 5530   5.722   6.414   9.110 -0.0666  0.2375  0.0827
  346loPI   C5A 5531   5.741   6.302   8.693  0.3835 -0.0638 -0.0084
  346loPI   C6A 5532   5.658   6.209   8.266  0.1785  0.2077 -0.3323
  346loPI   C1B 5533   6.606   6.659   9.946 -0.2270  0.0316 -0.1275
  346loPI   C2B 5534   6.801   6.680   9.544 -0.2405  0.0704 -0.0033
  346loPI   C3B 5535   7.135   6.545   9.261 -0.1990  0.1351 -0.0069
  346loPI   C4B 5536   7.098   6.314   8.865  0.3654 -0.0037 -0.1554
  347loPI    C1 5537   7.061   3.166  10.288 -0.2867  0.1302 -0.0449
  347loPI    C2 5538   7.293   3.491  10.268 -0.2026  0.0585 -0.2632
  347loPI    C3 5539   7.051   3.438  10.582 -0.2031  0.3216 -0.2164
  347loPI   PO4 5540   7.213   2.968  10.187 -0.5284  0.0394 -0.1159
  347loPI   GL1 5541   7.217   2.719   9.688 -0.0593  0.0292  0.0278
  347loPI   GL2 5542   7.335   2.994   9.544  0.0709  0.0170  0.1839
  347loPI   C1A 5543   7.114   2.396   9.377  0.0605  0.1047  0.0412
  347loPI   C2A 5544   6.887   2.157   8.977  0.1226 -0.0949 -0.0255
  347loPI   C3A 5545   6.712   1.970   8.685 -0.1144  0.0045 -0.3198
  347loPI   C4A 5546   6.505   1.886   8.192 -0.2353  0.1298 -0.0510
  347loPI   C5A 5547   6.377   1.845   7.801 -0.2324  0.0640  0.0125
  347loPI   C6A 5548   6.120   2.004   7.488 -0.2004  0.0972  0.0716
  347loPI   C1B 5549   7.018   2.887   9.173 -0.4101  0.2028 -0.0619
  347loPI   C2B 5550   6.971   2.637   8.880 -0.3392 -0.0752 -0.0815
  347loPI   C3B 5551   7.114   2.333   8.517 -0.1022  0.2204 -0.4084
  347loPI   C4B 5552   6.948   2.280   8.044  0.0133 -0.2124 -0.1116
  348loPI    C1 5553  16.544   1.215   9.617  0.0845 -0.2650 -0.1315
  348loPI    C2 5554  16.469   1.132  10.002 -0.1274 -0.2706 -0.1724
  348loPI    C3 5555  16.832   1.061   9.848  0.0779  0.0953  0.1255
  348loPI   PO4 5556  16.413   1.364   9.456  0.1062  0.1609 -0.1160
  348loPI   GL1 5557  16.440   1.411   8.982 -0.0291  0.3537 -0.1907
  348loPI   GL2 5558  16.650   1.141   8.679 -0.2149  0.0954  0.1161
  348loPI   C1A 5559  16.317   1.436   8.514 -0.3254 -0.0929 -0.1568
  348loPI   C2A 5560  16.286   1.512   8.080 -0.0522 -0.2871  0.2418
  348loPI   C3A 5561  16.217   1.546   7.617  0.0618  0.0210 -0.2627
  348loPI   C4A 5562  16.236   1.490   7.093  0.0152 -0.0738 -0.1107
  348loPI   C5A 5563  15.895   1.502   6.812 -0.2149 -0.1621 -0.0903
  348loPI   C6A 5564  15.417   1.462   6.821  0.2112  0.0429  0.6340
  348loPI   C1B 5565  16.718   1.316   8.225  0.0458 -0.0306 -0.0777
  348loPI   C2B 5566  16.732   1.294   7.825 -0.3017  0.0144  0.1366
  348loPI   C3B 5567  16.760   1.460   7.396  0.0483  0.2077 -0.0025
  348loPI   C4B 5568  16.739   1.641   6.930 -0.1054 -0.7863  0.1096
  349loPI    C1 5569   4.439   7.783  10.475  0.0434  0.0776 -0.2133
  349loPI    C2 5570   4.506   7.644  10.844 -0.0005  0.2489 -0.1392
  349loPI    C3 5571   4.792   7.847  10.652  0.0254  0.1524 -0.2035
  349loPI   PO4 5572   4.342   7.632  10.309  0.1583  0.0822 -0.0017
  349loPI   GL1 5573   4.309   7.510   9.832 -0.0378  0.3101  0.1049
  349loPI   GL2 5574   4.064   7.637   9.830  0.1805 -0.0620 -0.0903
  349loPI   C1A 5575   4.510   7.279   9.560 -0.1873 -0.2793  0.0610
  349loPI   C2A 5576   4.570   7.165   9.027  0.3414 -0.2303  0.2495
  349loPI   C3A 5577   4.558   7.037   8.594 -0.1600  0.3117  0.4025
  349loPI   C4A 5578   4.636   7.024   8.048 -0.1601  0.2672 -0.3710
  349loPI   C5A 5579   4.438   6.954   7.709  0.2677 -0.1532  0.0255
  349loPI   C6A 5580   4.265   6.877   7.271  0.0638  0.1714 -0.0149
  349loPI   C1B 5581   4.131   7.475   9.374  0.1514  0.1328 -0.0152
  349loPI   C2B 5582   4.065   7.274   8.983 -0.2934  0.1624 -0.1872
  349loPI   C3B 5583   4.003   7.237   8.488  0.3279  0.0010 -0.2131
  349loPI   C4B 5584   4.155   7.120   8.113 -0.0225  0.3966 -0.0766
  350loPI    C1 5585  12.820  17.172   9.607  0.0298  0.3008 -0.0975
  350loPI    C2 5586  12.478  17.379   9.608 -0.0443  0.1790  0.0140
  350loPI    C3 5587  12.763  17.463   9.876 -0.0651  0.1528  0.0444
  350loPI   PO4 5588  12.863  17.158   9.403  0.1079 -0.1685 -0.1706
  350loPI   GL1 5589  12.732  17.049   8.998  0.1306 -0.0575  0.0193
  350loPI   GL2 5590  12.805  16.775   8.946 -0.0322  0.1263 -0.0731
  350loPI   C1A 5591  12.672  17.234   8.563  0.0686  0.4706  0.2974
  350loPI   C2A 5592  12.628  17.306   8.092  0.0183 -0.1076  0.2248
  350loPI   C3A 5593  12.821  17.334   7.698  0.0217 -0.0358 -0.0253
  350loPI   C4A 5594  12.748  17.469   7.288  0.0082  0.1326  0.1666
  350loPI   C5A 5595  12.568  17.578   6.954  0.0029  0.0273  0.0058
  350loPI   C6A 5596  12.382  17.258   6.760 -0.2071 -0.0812 -0.2739
  350loPI   C1B 5597  12.687  16.643   8.513  0.0770  0.2804 -0.0715
  350loPI   C2B 5598  12.709  16.513   8.146  0.1026  0.0638 -0.0047
  350loPI   C3B 5599  12.572  16.467   7.729 -0.2385 -0.1267 -0.0214
  350loPI   C4B 5600  12.643  16.388   7.332 -0.1175 -0.1734 -0.2509
  351loPI    C1 5601  12.728  17.973   9.907 -0.1019  0.1688 -0.0671
  351loPI    C2 5602  12.477  17.998  10.217  0.0352  0.1147  0.0494
  351loPI    C3 5603  12.808  17.775  10.245  0.1035  0.1965 -0.0981
  351loPI   PO4 5604  12.542  17.914   9.656 -0.1876  0.0248 -0.2575
  351loPI   GL1 5605  12.434  17.714   9.253  0.0942 -0.0370  0.1984
  351loPI   GL2 5606  12.596  17.479   9.083  0.2767  0.2301 -0.2048
  351loPI   C1A 5607  12.219  17.874   8.901 -0.3235  0.1822  0.1025
  351loPI   C2A 5608  12.127  17.934   8.475  0.0770  0.1523 -0.2236
  351loPI   C3A 5609  12.274  18.098   8.093 -0.2846  0.1635  0.1256
  351loPI   C4A 5610  12.177  18.169   7.557  0.0469 -0.0582  0.3395
  351loPI   C5A 5611  12.041  18.515   7.365 -0.5567  0.1843  0.4952
  351loPI   C6A 5612  11.894  18.977   7.296  0.1451 -0.0009  0.0110
  351loPI   C1B 5613  12.632  17.731   8.525 -0.0222  0.4027 -0.1068
  351loPI   C2B 5614  12.797  17.800   8.125  0.1129 -0.1846  0.0557
  351loPI   C3B 5615  12.501  17.734   7.726 -0.2703  0.1746 -0.1338
  351loPI   C4B 5616  12.325  17.852   7.266 -0.3301  0.2380  0.0161
  352loPI    C1 5617  14.538  15.362   9.495 -0.1630 -0.0776 -0.1947
  352loPI    C2 5618  14.482  15.018   9.692 -0.1380 -0.1493 -0.3116
  352loPI    C3 5619  14.758  15.278   9.819 -0.2240 -0.1279 -0.1660
  352loPI   PO4 5620  14.493  15.253   9.252  0.2121  0.0487  0.0947
  352loPI   GL1 5621  14.644  14.857   9.004 -0.0033 -0.0493 -0.1421
  352loPI   GL2 5622  14.953  14.892   9.000  0.0318 -0.1791 -0.1581
  352loPI   C1A 5623  14.662  14.774   8.593  0.1282  0.0836  0.0048
  352loPI   C2A 5624  14.539  14.817   8.228 -0.0565  0.0574  0.0428
  352loPI   C3A 5625  14.683  14.979   7.866  0.1173  0.0120 -0.0017
  352loPI   C4A 5626  14.725  14.864   7.479  0.1234 -0.0497 -0.1843
  352loPI   C5A 5627  14.604  14.793   7.062 -0.0811 -0.1897 -0.3215
  352loPI   C6A 5628  14.692  14.723   6.603  0.1343  0.0770  0.4297
  352loPI   C1B 5629  15.024  15.123   8.682  0.1934  0.2630 -0.0294
  352loPI   C2B 5630  14.945  15.349   8.229 -0.1518  0.0319  0.0122
  352loPI   C3B 5631  14.976  15.438   7.813 -0.3290  0.2178 -0.1770
  352loPI   C4B 5632  14.956  15.287   7.400 -0.1839 -0.2476 -0.0666
  353loPI    C1 5633   1.927   3.580  10.520  0.1508  0.1681 -0.1202
  353loPI    C2 5634   1.869   3.947  10.668  0.0977  0.0925  0.0488
  353loPI    C3 5635   2.068   3.674  10.882  0.1246  0.0179 -0.0704
  353loPI   PO4 5636   2.013   3.617  10.291 -0.1815 -0.0380 -0.2614
  353loPI   GL1 5637   1.974   3.503   9.807 -0.1700 -0.3031 -0.2468
  353loPI   GL2 5638   2.126   3.287   9.653 -0.0144 -0.2329 -0.3234
  353loPI   C1A 5639   1.999   3.619   9.366  0.2853 -0.1426  0.0089
  353loPI   C2A 5640   1.862   3.679   8.927 -0.2567 -0.1657 -0.0101
  353loPI   C3A 5641   1.773   3.596   8.409  0.2999 -0.0838 -0.1498
  353loPI   C4A 5642   1.636   3.509   7.952  0.1400 -0.1306  0.1659
  353loPI   C5A 5643   1.446   3.493   7.462  0.1316  0.0966 -0.1320
  353loPI   C6A 5644   1.488   3.416   7.049  0.1575 -0.1282  0.0697
  353loPI   C1B 5645   2.321   3.268   9.286  0.1189 -0.0446 -0.0943
  353loPI   C2B 5646   2.304   3.471   8.924  0.1468  0.3124 -0.1277
  353loPI   C3B 5647   2.332   3.312   8.395 -0.2216 -0.2437  0.3777
  353loPI   C4B 5648   2.340   2.899   8.088  0.1025 -0.5314 -0.1643
  354loPI    C1 5649  10.222   7.525  10.098  0.0402 -0.0562 -0.0606
  354loPI    C2 5650  10.292   7.207  10.331  0.1791  0.1488  0.1818
  354loPI    C3 5651  10.560   7.503  10.310  0.1066  0.1955 -0.1377
  354loPI   PO4 5652  10.237   7.502   9.872  0.0112  0.0925 -0.3856
  354loPI   GL1 5653  10.304   7.816   9.562 -0.0552 -0.0479  0.1008
  354loPI   GL2 5654  10.609   7.621   9.555  0.3086  0.0601  0.0386
  354loPI   C1A 5655  10.222   7.745   9.131 -0.0259  0.0478  0.0710
  354loPI   C2A 5656  10.048   7.781   8.731 -0.0571 -0.0441 -0.0793
  354loPI   C3A 5657  10.182   7.839   8.274 -0.0168  0.3146  0.2642
  354loPI   C4A 5658  10.003   7.637   7.878  0.1581 -0.1549  0.0954
  354loPI   C5A 5659   9.900   7.314   7.754 -0.1653  0.2400  0.0625
  354loPI   C6A 5660   9.692   7.125   7.587  0.1959 -0.0500  0.2143
  354loPI   C1B 5661  10.706   7.367   9.197 -0.4338  0.1076  0.2981
  354loPI   C2B 5662  10.664   7.240   8.857 -0.0493 -0.0037  0.0812
  354loPI   C3B 5663  10.473   6.896   8.606  0.0573 -0.3388 -0.4197
  354loPI   C4B 5664  10.590   6.840   8.128 -0.1945  0.3173 -0.3127
  355loPI    C1 5665   0.735   5.959   9.973 -0.0459 -0.1094  0.3856
  355loPI    C2 5666   0.942   6.181  10.233  0.0932  0.1230  0.0826
  355loPI    C3 5667   0.543   6.189  10.237  0.0961  0.2287  0.2008
  355loPI   PO4 5668   0.846   5.970   9.790  0.0498  0.0610 -0.0429
  355loPI   GL1 5669   0.892   6.253   9.416  0.1194  0.3118  0.1940
  355loPI   GL2 5670   0.611   6.210   9.291  0.1946  0.2440  0.0466
  355loPI   C1A 5671   1.113   6.175   8.965 -0.0700 -0.0101  0.1231
  355loPI   C2A 5672   1.286   6.032   8.627  0.0003 -0.2391 -0.5221
  355loPI   C3A 5673   1.435   6.109   8.181  0.1345 -0.4006  0.0752
  355loPI   C4A 5674   1.595   6.250   7.756 -0.1944  0.1232  0.1269
  355loPI   C5A 5675   1.905   6.239   7.509 -0.0065 -0.0200  0.1979
  355loPI   C6A 5676   2.123   5.888   7.283 -0.1129 -0.4709  0.1209
  355loPI   C1B 5677   0.581   5.989   8.864  0.4034  0.0711  0.0432
  355loPI   C2B 5678   0.798   5.961   8.427  0.1042  0.5226  0.2020
  355loPI   C3B 5679   0.912   5.804   8.108  0.0803  0.1067  0.0481
  355loPI   C4B 5680   0.798   5.651   7.670 -0.2667 -0.0139 -0.1839
  356loPI    C1 5681   8.762  18.910   9.993  0.1928  0.0502 -0.0651
  356loPI    C2 5682   8.788  19.094  10.347  0.3062  0.0829 -0.0899
  356loPI    C3 5683   9.082  18.852  10.225  0.2232 -0.0037 -0.1201
  356loPI   PO4 5684   8.637  19.047   9.853  0.0904  0.0743  0.0649
  356loPI   GL1 5685   8.346  18.884   9.477 -0.0620 -0.1305  0.0865
  356loPI   GL2 5686   8.655  19.064   9.361  0.0645  0.3100 -0.0962
  356loPI   C1A 5687   8.399  18.643   9.136 -0.2916  0.2382  0.5485
  356loPI   C2A 5688   8.528  18.480   8.734  0.3751  0.0609  0.1351
  356loPI   C3A 5689   8.538  18.522   8.303  0.2373 -0.0418  0.0337
  356loPI   C4A 5690   8.519  18.625   7.902 -0.0673  0.0226 -0.1308
  356loPI   C5A 5691   8.208  18.818   7.654 -0.1432  0.2190 -0.2300
  356loPI   C6A 5692   8.015  18.943   7.207  0.2657 -0.0385 -0.1778
  356loPI   C1B 5693   8.706  19.017   8.878  0.0952  0.1229  0.1087
  356loPI   C2B 5694   8.650  19.030   8.404 -0.2324 -0.3385 -0.1850
  356loPI   C3B 5695   8.580  19.116   7.979  0.1834 -0.0886 -0.0427
  356loPI   C4B 5696   8.374  19.458   7.714  0.0527  0.0416 -0.0721
  357loPI    C1 5697   2.824   2.256  10.154  0.1106 -0.0980  0.0131
  357loPI    C2 5698   2.506   2.247  10.396  0.0561  0.1664 -0.0451
  357loPI    C3 5699   2.823   2.471  10.491  0.2015 -0.0470 -0.0189
  357loPI   PO4 5700   2.683   2.305   9.919 -0.0523 -0.2556  0.0269
  357loPI   GL1 5701   2.844   2.030   9.608 -0.1318 -0.2218  0.0495
  357loPI   GL2 5702   2.532   2.082   9.464  0.0285 -0.1818 -0.1073
  357loPI   C1A 5703   2.975   2.114   9.223 -0.1270 -0.2371  0.1596
  357loPI   C2A 5704   3.046   2.162   8.801  0.0081 -0.1472  0.1149
  357loPI   C3A 5705   3.411   2.139   8.564 -0.4172  0.0517  0.1509
  357loPI   C4A 5706   3.629   2.111   8.182 -0.2421 -0.2747 -0.0009
  357loPI   C5A 5707   3.823   2.170   7.815 -0.2432  0.3140 -0.2880
  357loPI   C6A 5708   4.307   2.278   7.752 -0.2859 -0.1217  0.0323
  357loPI   C1B 5709   2.521   2.048   9.029  0.1538 -0.1512 -0.2263
  357loPI   C2B 5710   2.611   2.148   8.628 -0.0473 -0.0698  0.0368
  357loPI   C3B 5711   2.829   1.946   8.287 -0.0421  0.0693  0.0375
  357loPI   C4B 5712   3.040   2.164   8.110  0.1544  0.2714  0.1343
  358loPI    C1 5713   1.602   0.829   9.759  0.0367 -0.0326 -0.0519
  358loPI    C2 5714   1.871   1.100   9.876 -0.1592  0.1138  0.0652
  358loPI    C3 5715   1.744   0.820  10.133 -0.0399 -0.0224 -0.0224
  358loPI   PO4 5716   1.494   0.962   9.500 -0.3449 -0.2695 -0.1914
  358loPI   GL1 5717   1.467   0.752   9.109  0.2350  0.1417 -0.2731
  358loPI   GL2 5718   1.257   0.596   9.020 -0.1549 -0.0204 -0.0105
  358loPI   C1A 5719   1.745   0.433   8.845  0.1773  0.2318  0.0582
  358loPI   C2A 5720   1.924   0.402   8.341 -0.2430 -0.4402  0.1453
  358loPI   C3A 5721   2.096   0.313   7.974 -0.0203  0.2471  0.2324
  358loPI   C4A 5722   2.476   0.304   7.733  0.0276  0.1636  0.1690
  358loPI   C5A 5723   2.557   0.714   7.586  0.0163 -0.0328  0.0575
  358loPI   C6A 5724   2.500   1.163   7.670  0.3306  0.1075 -0.0528
  358loPI   C1B 5725   1.380   0.852   8.660 -0.0606 -0.0563 -0.4379
  358loPI   C2B 5726   1.504   0.871   8.259  0.0383  0.2404 -0.0588
  358loPI   C3B 5727   1.788   0.705   7.950  0.2571 -0.0620  0.1795
  358loPI   C4B 5728   2.234   0.794   8.060  0.1503 -0.1192  0.0752
  359loPI    C1 5729  12.372  13.092   9.960 -0.1659  0.0468  0.0637
  359loPI    C2 5730  12.167  12.814   9.758 -0.2175  0.0659  0.0894
  359loPI    C3 5731  12.055  12.916  10.128  0.0741 -0.2086  0.2581
  359loPI   PO4 5732  12.611  13.008   9.946  0.1477  0.1497  0.0473
  359loPI   GL1 5733  12.718  12.907   9.529 -0.0901 -0.3412  0.2575
  359loPI   GL2 5734  12.982  12.765   9.425  0.3629  0.2317 -0.3568
  359loPI   C1A 5735  12.607  12.856   9.029 -0.0351  0.1837 -0.2452
  359loPI   C2A 5736  12.604  12.868   8.531  0.1886 -0.1297 -0.0632
  359loPI   C3A 5737  12.692  12.759   8.233 -0.0200 -0.1101 -0.1224
  359loPI   C4A 5738  12.617  12.547   7.838 -0.1920 -0.4047  0.2169
  359loPI   C5A 5739  12.147  12.551   7.580 -0.0123 -0.0000  0.1134
  359loPI   C6A 5740  11.980  12.583   7.147  0.0506  0.0280  0.4033
  359loPI   C1B 5741  13.124  12.649   9.076 -0.0805 -0.1045 -0.0072
  359loPI   C2B 5742  13.023  12.608   8.747  0.1475 -0.0661  0.0020
  359loPI   C3B 5743  13.116  12.629   8.425  0.2232  0.2447 -0.3148
  359loPI   C4B 5744  13.118  12.444   8.049  0.2122  0.0844  0.0891
  360loPI    C1 5745   8.293  12.698   9.989 -0.0339  0.0428  0.0663
  360loPI    C2 5746   8.628  12.689  10.207 -0.1314 -0.1238  0.2114
  360loPI    C3 5747   8.327  12.438  10.290 -0.1741 -0.1837 -0.1094
  360loPI   PO4 5748   8.203  12.725   9.751  0.0407 -0.2978  0.0856
  360loPI   GL1 5749   8.114  13.001   9.361  0.0492 -0.1884  0.0016
  360loPI   GL2 5750   7.802  12.945   9.370 -0.1526 -0.0557  0.0418
  360loPI   C1A 5751   8.333  13.185   8.981  0.1476 -0.0406  0.0679
  360loPI   C2A 5752   8.416  13.233   8.615  0.1655  0.0725 -0.2211
  360loPI   C3A 5753   8.472  13.229   8.138  0.1087  0.1950 -0.2374
  360loPI   C4A 5754   8.295  13.355   7.753 -0.0979 -0.1804 -0.0201
  360loPI   C5A 5755   8.071  13.370   7.489 -0.0009  0.2200 -0.1336
  360loPI   C6A 5756   8.067  13.507   7.068  0.3817  0.0061  0.1400
  360loPI   C1B 5757   7.841  13.062   8.899  0.1507  0.0697  0.1512
  360loPI   C2B 5758   7.743  13.101   8.431 -0.1737  0.2828 -0.1298
  360loPI   C3B 5759   7.339  13.244   8.326 -0.0183  0.0443 -0.4898
  360loPI   C4B 5760   7.072  13.544   8.216 -0.0588  0.0186 -0.1122
  361loPI    C1 5761   7.797  10.357  10.282  0.0794  0.1117 -0.0582
  361loPI    C2 5762   7.602  10.694  10.377 -0.1150  0.0487 -0.2287
  361loPI    C3 5763   7.990  10.657  10.463 -0.1875  0.1552  0.1628
  361loPI   PO4 5764   7.832  10.332  10.002 -0.0928  0.0324  0.1876
  361loPI   GL1 5765   7.966  10.264   9.650  0.1764 -0.1735 -0.3395
  361loPI   GL2 5766   7.807  10.378   9.277 -0.1021  0.0915  0.1628
  361loPI   C1A 5767   8.297  10.315   9.245 -0.2868  0.3314  0.2395
  361loPI   C2A 5768   8.373  10.301   8.750 -0.0646 -0.0992 -0.2873
  361loPI   C3A 5769   8.363  10.137   8.356 -0.1345  0.1636  0.0715
  361loPI   C4A 5770   8.188  10.034   7.970  0.0571 -0.2030 -0.2305
  361loPI   C5A 5771   7.886   9.904   7.688  0.0105  0.1074 -0.1450
  361loPI   C6A 5772   7.747   9.627   7.401  0.0605 -0.0507  0.1767
  361loPI   C1B 5773   7.860  10.414   8.855  0.0249  0.2376 -0.0345
  361loPI   C2B 5774   7.896  10.387   8.416 -0.1230 -0.1850 -0.0370
  361loPI   C3B 5775   7.774  10.441   7.950  0.1834 -0.2196  0.1476
  361loPI   C4B 5776   7.323  10.307   7.719  0.0111 -0.0302  0.1048
  362loPI    C1 5777   2.475  10.891   9.536  0.0849  0.1377 -0.1613
  362loPI    C2 5778   2.289  11.166   9.759 -0.1263 -0.1444  0.0157
  362loPI    C3 5779   2.471  10.856   9.934 -0.2354 -0.3325 -0.1982
  362loPI   PO4 5780   2.549  11.079   9.320 -0.1662 -0.0310 -0.0615
  362loPI   GL1 5781   2.500  11.119   8.862 -0.2945 -0.3829  0.1891
  362loPI   GL2 5782   2.515  11.470   8.887  0.3914 -0.1975 -0.1389
  362loPI   C1A 5783   2.473  11.085   8.429 -0.2296  0.0391  0.0491
  362loPI   C2A 5784   2.641  11.131   8.036 -0.0570 -0.0380 -0.1235
  362loPI   C3A 5785   2.629  11.288   7.624  0.1054  0.0278 -0.0113
  362loPI   C4A 5786   2.543  11.266   7.212  0.0353 -0.1641 -0.3031
  362loPI   C5A 5787   2.487  11.350   6.867  0.1897  0.2215  0.0949
  362loPI   C6A 5788   2.176  11.390   6.516 -0.3271 -0.0137 -0.0861
  362loPI   C1B 5789   2.607  11.537   8.450 -0.0293  0.1030 -0.1180
  362loPI   C2B 5790   2.665  11.604   8.041  0.2279 -0.1278 -0.0636
  362loPI   C3B 5791   2.735  11.781   7.716 -0.2035 -0.1454 -0.0683
  362loPI   C4B 5792   3.097  11.767   7.507  0.1393 -0.1741 -0.2181
  363loPI    C1 5793  13.411   1.377   9.809 -0.0480  0.1225  0.0819
  363loPI    C2 5794  13.791   1.405   9.930  0.0221 -0.2633 -0.0353
  363loPI    C3 5795  13.493   1.460  10.192  0.1591 -0.1200  0.0924
  363loPI   PO4 5796  13.469   1.139   9.639 -0.2291 -0.0740 -0.1103
  363loPI   GL1 5797  13.234   1.243   9.273  0.2220 -0.1732  0.0751
  363loPI   GL2 5798  13.528   1.094   9.177  0.0424 -0.2386 -0.3574
  363loPI   C1A 5799  13.198   1.479   8.984  0.0147 -0.1416 -0.3368
  363loPI   C2A 5800  13.000   1.371   8.569 -0.1510  0.2592  0.3395
  363loPI   C3A 5801  12.905   1.231   8.199 -0.2995 -0.5630 -0.0636
  363loPI   C4A 5802  12.560   1.407   7.949  0.0656  0.1082  0.2711
  363loPI   C5A 5803  12.211   1.630   7.662 -0.1925 -0.2568 -0.0620
  363loPI   C6A 5804  11.838   1.733   7.530  0.2504  0.0587 -0.3628
  363loPI   C1B 5805  13.437   1.030   8.785  0.0129  0.0125 -0.0371
  363loPI   C2B 5806  13.350   0.923   8.439  0.1711 -0.0945 -0.2517
  363loPI   C3B 5807  13.264   0.933   8.024 -0.1422  0.0885 -0.0942
  363loPI   C4B 5808  13.440   0.962   7.573 -0.0761  0.1702  0.1173
  364loPI    C1 5809   9.592   2.474  10.048  0.0691 -0.1162  0.3729
  364loPI    C2 5810   9.958   2.388  10.182  0.1953  0.2659  0.2851
  364loPI    C3 5811   9.719   2.628  10.394  0.1193  0.2810  0.1833
  364loPI   PO4 5812   9.619   2.441   9.795  0.0133  0.3732  0.3522
  364loPI   GL1 5813   9.777   2.437   9.456 -0.0525  0.0250  0.2469
  364loPI   GL2 5814  10.058   2.227   9.338 -0.2953  0.0239  0.2109
  364loPI   C1A 5815   9.869   2.638   9.098 -0.1488 -0.0056  0.0174
  364loPI   C2A 5816   9.816   2.663   8.680  0.1869 -0.1599  0.3991
  364loPI   C3A 5817   9.653   3.009   8.401 -0.0428  0.2831  0.0612
  364loPI   C4A 5818   9.400   3.236   8.205 -0.0109  0.2525  0.1514
  364loPI   C5A 5819   9.323   3.370   7.821  0.0000  0.2561  0.1032
  364loPI   C6A 5820   9.417   3.683   7.569 -0.4290 -0.0939 -0.0335
  364loPI   C1B 5821  10.242   2.356   8.954  0.0097  0.0133 -0.0684
  364loPI   C2B 5822  10.201   2.395   8.526 -0.2273 -0.0823 -0.0103
  364loPI   C3B 5823   9.885   2.638   8.199 -0.3402  0.4463 -0.3109
  364loPI   C4B 5824   9.742   3.039   7.855 -0.0313 -0.1259 -0.0531
  365loPI    C1 5825  11.326  12.932  10.415  0.1325  0.0758  0.0383
  365loPI    C2 5826  11.635  13.155  10.296  0.1474  0.0984  0.1182
  365loPI    C3 5827  11.652  12.959  10.644  0.1616 -0.0829  0.0170
  365loPI   PO4 5828  11.299  12.761  10.090  0.0025  0.2298 -0.2135
  365loPI   GL1 5829  11.674  12.747   9.842 -0.1434  0.2647 -0.3185
  365loPI   GL2 5830  11.544  12.563   9.722 -0.0961 -0.1635 -0.0211
  365loPI   C1A 5831  11.813  12.915   9.433  0.0655 -0.2182 -0.1025
  365loPI   C2A 5832  11.750  12.728   8.957 -0.3672 -0.0741  0.0959
  365loPI   C3A 5833  11.588  13.026   8.629  0.2155  0.0913 -0.2251
  365loPI   C4A 5834  11.755  13.184   8.233  0.2095 -0.3963 -0.0706
  365loPI   C5A 5835  11.755  12.911   7.842  0.3068  0.1061  0.0393
  365loPI   C6A 5836  11.579  12.591   7.561 -0.1300  0.1160  0.1777
  365loPI   C1B 5837  11.533  12.361   9.299 -0.1010 -0.1494  0.1968
  365loPI   C2B 5838  11.421  12.236   8.865 -0.1082 -0.0085  0.2596
  365loPI   C3B 5839  11.369  12.546   8.553 -0.2492 -0.2926  0.0231
  365loPI   C4B 5840  11.776  12.690   8.314 -0.3306 -0.0382 -0.0478
  366loPI    C1 5841   2.070  14.988   9.406 -0.0013 -0.0860 -0.0308
  366loPI    C2 5842   2.374  14.960   9.664 -0.0487  0.0427  0.0395
  366loPI    C3 5843   2.136  14.645   9.602 -0.0090 -0.0031  0.1181
  366loPI   PO4 5844   2.169  15.194   9.225  0.0882 -0.0241 -0.4022
  366loPI   GL1 5845   2.390  15.060   8.882  0.1902  0.2692  0.2338
  366loPI   GL2 5846   2.668  14.888   8.867  0.2775 -0.1554 -0.1753
  366loPI   C1A 5847   2.245  15.185   8.468 -0.1688  0.2587 -0.0796
  366loPI   C2A 5848   2.170  15.329   8.147  0.1494  0.3862  0.2343
  366loPI   C3A 5849   2.339  15.549   7.756 -0.1611  0.0492 -0.1450
  366loPI   C4A 5850   2.472  15.698   7.381 -0.1992 -0.0598  0.3869
  366loPI   C5A 5851   2.682  15.793   6.930  0.0702 -0.0057  0.1510
  366loPI   C6A 5852   3.023  15.986   6.626 -0.1629  0.0110 -0.0360
  366loPI   C1B 5853   2.999  15.058   8.702 -0.2830  0.0331 -0.1001
  366loPI   C2B 5854   3.216  15.112   8.311 -0.1106  0.1001 -0.0335
  366loPI   C3B 5855   3.051  15.021   7.850 -0.2659  0.3049 -0.2712
  366loPI   C4B 5856   3.006  14.716   7.467  0.2373  0.2684 -0.0426
  367loPI    C1 5857   1.841   6.994  10.086 -0.1459  0.0160 -0.0858
  367loPI    C2 5858   2.015   7.337   9.979 -0.1604  0.0985  0.1495
  367loPI    C3 5859   1.770   7.327  10.295 -0.0562 -0.1557  0.2249
  367loPI   PO4 5860   1.687   6.976   9.809 -0.1906  0.2421 -0.1350
  367loPI   GL1 5861   1.704   7.166   9.519 -0.1047 -0.0069 -0.1366
  367loPI   GL2 5862   2.005   7.128   9.476 -0.0669  0.1621  0.1549
  367loPI   C1A 5863   1.597   7.180   9.180 -0.0038 -0.2226 -0.0748
  367loPI   C2A 5864   1.628   7.241   8.725 -0.1259  0.2793 -0.0657
  367loPI   C3A 5865   1.636   7.488   8.376 -0.3252  0.0912 -0.2298
  367loPI   C4A 5866   1.648   7.576   7.957  0.1151  0.0122  0.0826
  367loPI   C5A 5867   1.628   7.471   7.496 -0.0987 -0.0121  0.1007
  367loPI   C6A 5868   1.815   7.462   7.094  0.1852 -0.2136 -0.0358
  367loPI   C1B 5869   2.082   7.286   9.020  0.2205 -0.1759 -0.1122
  367loPI   C2B 5870   2.101   7.237   8.553  0.3361 -0.4342 -0.0799
  367loPI   C3B 5871   2.219   7.000   8.205 -0.1268  0.1851  0.0149
  367loPI   C4B 5872   2.406   6.887   7.851 -0.2043  0.3583  0.3430
  368loPI    C1 5873   4.126   9.453   9.737 -0.2731  0.1632 -0.0303
  368loPI    C2 5874   4.019   9.289  10.085  0.1424  0.0112  0.0316
  368loPI    C3 5875   4.355   9.503  10.061  0.0690  0.0982 -0.2571
  368loPI   PO4 5876   4.159   9.337   9.542  0.1093 -0.5895 -0.1577
  368loPI   GL1 5877   4.087   9.273   9.174  0.0557 -0.1605 -0.0513
  368loPI   GL2 5878   3.961   8.953   9.247 -0.4455  0.1548 -0.1106
  368loPI   C1A 5879   3.993   9.247   8.685 -0.0745 -0.2386 -0.1392
  368loPI   C2A 5880   3.945   9.132   8.319  0.2973 -0.1614 -0.1170
  368loPI   C3A 5881   4.159   9.068   8.016 -0.1532  0.0104  0.1865
  368loPI   C4A 5882   4.023   8.964   7.587  0.4808  0.1418 -0.1004
  368loPI   C5A 5883   3.765   9.199   7.340 -0.0065  0.1500  0.0077
  368loPI   C6A 5884   3.733   9.242   6.839  0.0178  0.2026 -0.1175
  368loPI   C1B 5885   4.033   8.779   8.784  0.1403  0.0883  0.1129
  368loPI   C2B 5886   4.195   8.690   8.367  0.2174 -0.5365  0.1604
  368loPI   C3B 5887   4.292   8.619   7.932 -0.2411 -0.2692 -0.0003
  368loPI   C4B 5888   4.083   8.456   7.620 -0.0371 -0.1131 -0.3112
  369loPI    C1 5889   4.175   1.313  10.273  0.3441  0.0601  0.0229
  369loPI    C2 5890   4.027   1.682  10.228 -0.1570 -0.1079  0.2245
  369loPI    C3 5891   4.045   1.516  10.592  0.1300 -0.2596  0.1446
  369loPI   PO4 5892   4.231   1.176  10.029  0.1292 -0.1437 -0.2221
  369loPI   GL1 5893   4.449   1.125   9.687 -0.0515  0.2519 -0.2044
  369loPI   GL2 5894   4.149   1.025   9.482  0.0384  0.3383 -0.1532
  369loPI   C1A 5895   4.604   1.221   9.325  0.2958 -0.0137  0.0637
  369loPI   C2A 5896   4.522   1.108   8.843 -0.0806 -0.0361  0.3214
  369loPI   C3A 5897   4.389   0.741   8.681  0.2677  0.1741  0.4260
  369loPI   C4A 5898   4.054   0.714   8.506 -0.1806  0.0723 -0.1737
  369loPI   C5A 5899   3.910   0.776   8.004 -0.1898  0.1453  0.1056
  369loPI   C6A 5900   3.823   0.570   7.807 -0.0448 -0.1306 -0.2755
  369loPI   C1B 5901   4.038   0.682   9.204  0.3965 -0.0714 -0.0228
  369loPI   C2B 5902   3.704   0.636   8.884  0.4340  0.0384  0.0010
  369loPI   C3B 5903   3.407   0.745   8.670 -0.1637  0.1001  0.0457
  369loPI   C4B 5904   2.921   0.669   8.444 -0.6301  0.0885  0.1348
  370loPI    C1 5905   9.838  11.627  10.114 -0.1109  0.0141  0.0199
  370loPI    C2 5906   9.901  11.236  10.057  0.2959  0.0430  0.2311
  370loPI    C3 5907   9.592  11.358  10.280 -0.0067 -0.1423 -0.0762
  370loPI   PO4 5908   9.945  11.767   9.899  0.0693  0.0491 -0.5198
  370loPI   GL1 5909  10.171  11.666   9.477  0.2522  0.1259 -0.2255
  370loPI   GL2 5910   9.874  11.782   9.401 -0.0680 -0.2107 -0.3079
  370loPI   C1A 5911  10.188  11.724   9.002  0.2671 -0.0888  0.2629
  370loPI   C2A 5912  10.110  11.847   8.617  0.2853 -0.0884 -0.0758
  370loPI   C3A 5913  10.254  11.864   8.203  0.0290  0.1365 -0.2043
  370loPI   C4A 5914  10.487  11.811   7.952 -0.1205  0.1861 -0.0874
  370loPI   C5A 5915  10.582  11.803   7.575 -0.1585 -0.1766 -0.2187
  370loPI   C6A 5916  10.743  11.635   7.105  0.1425  0.0887 -0.1873
  370loPI   C1B 5917   9.664  11.755   8.965 -0.3847 -0.0961  0.1772
  370loPI   C2B 5918   9.636  11.703   8.474 -0.0100 -0.1494 -0.0389
  370loPI   C3B 5919   9.816  11.762   8.035  0.3123  0.1235  0.2047
  370loPI   C4B 5920  10.046  11.952   7.684 -0.2844  0.1115 -0.1921
  371loPI    C1 5921   8.350  18.237   9.599 -0.0792 -0.0387 -0.0138
  371loPI    C2 5922   8.537  18.201   9.950  0.0418 -0.0109 -0.0748
  371loPI    C3 5923   8.353  18.543   9.857  0.1174  0.0256 -0.0905
  371loPI   PO4 5924   8.322  17.930   9.575 -0.0175  0.0381 -0.3126
  371loPI   GL1 5925   8.344  17.661   9.203  0.0975 -0.0975 -0.0992
  371loPI   GL2 5926   8.391  17.959   9.042 -0.0229 -0.3000 -0.1749
  371loPI   C1A 5927   8.185  17.575   8.725 -0.4935 -0.2921 -0.0022
  371loPI   C2A 5928   8.196  17.508   8.274  0.1945 -0.0756 -0.0837
  371loPI   C3A 5929   8.252  17.300   7.898 -0.1272  0.2264  0.0251
  371loPI   C4A 5930   8.087  17.339   7.411 -0.2237 -0.0907 -0.3079
  371loPI   C5A 5931   8.028  16.916   7.351  0.0095  0.2370 -0.1092
  371loPI   C6A 5932   7.997  16.474   7.495  0.2543 -0.2567 -0.0975
  371loPI   C1B 5933   8.309  18.005   8.601  0.5561  0.2766  0.1095
  371loPI   C2B 5934   8.332  17.944   8.141 -0.1167 -0.1281  0.1476
  371loPI   C3B 5935   8.261  17.759   7.751  0.0690 -0.1581 -0.1952
  371loPI   C4B 5936   7.944  17.917   7.443 -0.2002  0.0391 -0.1521
  372loPI    C1 5937   5.036  10.839   9.876 -0.0681 -0.2237  0.0378
  372loPI    C2 5938   4.824  10.864  10.215 -0.1050  0.1203 -0.0064
  372loPI    C3 5939   5.164  10.654  10.207 -0.0633  0.1739  0.2654
  372loPI   PO4 5940   5.018  10.882   9.563 -0.3718  0.3560 -0.1172
  372loPI   GL1 5941   5.200  10.968   9.211  0.2740  0.1136 -0.2938
  372loPI   GL2 5942   5.141  10.591   9.146 -0.2067  0.2862 -0.2133
  372loPI   C1A 5943   5.287  11.024   8.860  0.1738 -0.2152  0.0661
  372loPI   C2A 5944   5.169  10.891   8.481 -0.0105  0.1121  0.2068
  372loPI   C3A 5945   5.126  10.812   8.022  0.1501  0.0451  0.1593
  372loPI   C4A 5946   5.208  10.561   7.783  0.3648  0.2669  0.0214
  372loPI   C5A 5947   5.250  10.338   7.519  0.0144  0.3045  0.0506
  372loPI   C6A 5948   5.232  10.297   7.052  0.2280 -0.3301 -0.2147
  372loPI   C1B 5949   5.226  10.296   8.773  0.1589 -0.1992  0.3523
  372loPI   C2B 5950   4.910  10.486   8.409 -0.3147 -0.2930 -0.2022
  372loPI   C3B 5951   4.774  10.451   8.022 -0.1979 -0.0603 -0.1142
  372loPI   C4B 5952   4.744  10.432   7.566 -0.0434 -0.0042  0.2358
  373loPI    C1 5953   1.970  11.611   9.687 -0.0384 -0.2293  0.1671
  373loPI    C2 5954   1.922  11.938   9.912  0.0506 -0.0108 -0.1254
  373loPI    C3 5955   1.729  11.601  10.005  0.1264  0.0593  0.3056
  373loPI   PO4 5956   1.995  11.776   9.448  0.1896 -0.1406 -0.0356
  373loPI   GL1 5957   2.134  11.877   9.091  0.3428  0.0710 -0.1145
  373loPI   GL2 5958   2.253  12.133   8.992 -0.3710 -0.2532  0.1715
  373loPI   C1A 5959   2.176  11.814   8.648 -0.1181 -0.0171  0.1826
  373loPI   C2A 5960   2.170  11.551   8.242  0.0952 -0.0866  0.0002
  373loPI   C3A 5961   2.179  11.389   7.867 -0.0271 -0.0882  0.1336
  373loPI   C4A 5962   2.133  11.341   7.416  0.1813 -0.3070  0.1072
  373loPI   C5A 5963   1.764  11.524   7.343  0.2399  0.0983 -0.0769
  373loPI   C6A 5964   1.648  11.360   7.045 -0.1074  0.0299  0.3363
  373loPI   C1B 5965   2.509  12.261   8.776 -0.2204  0.0963 -0.0775
  373loPI   C2B 5966   2.469  12.140   8.341  0.0465  0.0747 -0.2318
  373loPI   C3B 5967   2.235  12.013   7.912  0.0315 -0.3574 -0.5688
  373loPI   C4B 5968   2.285  11.813   7.475 -0.0972 -0.0140  0.2667
  374loPI    C1 5969   4.107  15.331   9.905  0.2597 -0.1586  0.1502
  374loPI    C2 5970   3.814  15.116   9.739  0.2042  0.0930 -0.0843
  374loPI    C3 5971   3.809  15.190  10.132  0.0166 -0.0042 -0.0673
  374loPI   PO4 5972   4.254  15.412   9.608  0.1411 -0.1666  0.0177
  374loPI   GL1 5973   4.632  15.527   9.435  0.1996  0.0824  0.2767
  374loPI   GL2 5974   4.406  15.317   9.115 -0.1184 -0.1348 -0.3045
  374loPI   C1A 5975   4.827  15.635   9.034 -0.0573 -0.0742 -0.1377
  374loPI   C2A 5976   4.969  15.833   8.624 -0.0897 -0.0258 -0.1388
  374loPI   C3A 5977   5.056  15.848   8.242 -0.0291  0.2647 -0.0547
  374loPI   C4A 5978   5.206  15.851   7.887  0.1951 -0.2236  0.1896
  374loPI   C5A 5979   5.230  15.541   7.676  0.0157  0.2808 -0.1365
  374loPI   C6A 5980   5.057  15.083   7.695 -0.2197 -0.3101 -0.1862
  374loPI   C1B 5981   4.484  15.439   8.716  0.1279  0.3743  0.3622
  374loPI   C2B 5982   4.742  15.452   8.383  0.0631 -0.1388  0.0514
  374loPI   C3B 5983   4.809  15.524   7.962  0.1709 -0.0085 -0.2055
  374loPI   C4B 5984   4.814  15.925   7.651  0.0697  0.2895 -0.0200
  375loPI    C1 5985   4.650   3.222  10.660  0.0871 -0.2429  0.1427
  375loPI    C2 5986   4.339   3.264  10.907  0.2015 -0.1954  0.2799
  375loPI    C3 5987   4.629   3.003  10.994  0.3123 -0.0769  0.2682
  375loPI   PO4 5988   4.632   3.087  10.437  0.0825  0.2047  0.0601
  375loPI   GL1 5989   4.479   3.031  10.001 -0.1753 -0.0066  0.3870
  375loPI   GL2 5990   4.510   3.373   9.942 -0.1388 -0.0187  0.2771
  375loPI   C1A 5991   4.647   3.012   9.500  0.1081 -0.0173 -0.1608
  375loPI   C2A 5992   4.722   3.077   9.036 -0.4411  0.0887  0.0180
  375loPI   C3A 5993   4.925   2.923   8.661  0.2958 -0.1143  0.1008
  375loPI   C4A 5994   4.846   3.020   8.347 -0.6036  0.0490  0.2205
  375loPI   C5A 5995   4.943   2.908   7.939 -0.0691  0.0439  0.0802
  375loPI   C6A 5996   4.760   2.848   7.590 -0.0273  0.0510  0.2800
  375loPI   C1B 5997   4.813   3.556   9.779 -0.2319  0.1435  0.0419
  375loPI   C2B 5998   4.944   3.520   9.316 -0.2859  0.1066 -0.4887
  375loPI   C3B 5999   4.964   3.474   8.824  0.2231 -0.1345  0.1853
  375loPI   C4B 6000   4.951   3.502   8.373 -0.0630  0.0678 -0.1229
  376loPI    C1 6001   4.157   6.627  10.668 -0.1248 -0.3521 -0.0180
  376loPI    C2 6002   3.890   6.921  10.715  0.1903 -0.0603 -0.0102
  376loPI    C3 6003   3.885   6.605  10.961 -0.1508 -0.0656 -0.0182
  376loPI   PO4 6004   4.192   6.657  10.392 -0.0664  0.1028 -0.1694
  376loPI   GL1 6005   4.142   6.423  10.049 -0.1413 -0.0590 -0.0620
  376loPI   GL2 6006   4.334   6.177   9.995 -0.1257 -0.0977 -0.0997
  376loPI   C1A 6007   3.987   6.351   9.568 -0.0590  0.4618  0.3719
  376loPI   C2A 6008   4.245   6.237   9.154  0.1231 -0.1819 -0.0725
  376loPI   C3A 6009   4.279   6.275   8.636  0.0560 -0.2378  0.1103
  376loPI   C4A 6010   3.986   6.291   8.264 -0.1896 -0.1068  0.2242
  376loPI   C5A 6011   3.664   6.211   8.040  0.1290 -0.1348 -0.0313
  376loPI   C6A 6012   3.230   6.071   8.068 -0.1178 -0.0978  0.1110
  376loPI   C1B 6013   4.234   5.908   9.564 -0.2019  0.1937  0.3775
  376loPI   C2B 6014   4.413   5.722   9.194  0.0681 -0.1186 -0.0141
  376loPI   C3B 6015   4.255   5.740   8.811  0.2000  0.0331 -0.2767
  376loPI   C4B 6016   4.177   5.812   8.327 -0.0722  0.0131  0.0378
  377loPI    C1 6017   3.965  14.323  10.049  0.2488  0.0296  0.3627
  377loPI    C2 6018   3.916  14.718  10.087  0.0790  0.0958 -0.3833
  377loPI    C3 6019   3.598  14.476  10.090  0.1871 -0.0529  0.1339
  377loPI   PO4 6020   4.077  14.257   9.832 -0.2660 -0.1822  0.2484
  377loPI   GL1 6021   4.076  14.410   9.365 -0.0650 -0.2980 -0.3137
  377loPI   GL2 6022   3.822  14.358   9.141 -0.1927 -0.3546 -0.0044
  377loPI   C1A 6023   4.341  14.197   9.042  0.2386  0.1320 -0.3364
  377loPI   C2A 6024   4.634  14.307   8.661  0.1279  0.5120 -0.0945
  377loPI   C3A 6025   4.507  14.565   8.317 -0.0873 -0.0725 -0.0391
  377loPI   C4A 6026   4.627  14.548   7.958 -0.1398  0.0689  0.1169
  377loPI   C5A 6027   4.854  14.597   7.681  0.0753 -0.3898 -0.0615
  377loPI   C6A 6028   5.134  14.483   7.359 -0.1974 -0.1610 -0.3321
  377loPI   C1B 6029   4.041  14.409   8.722 -0.0421  0.0191 -0.2997
  377loPI   C2B 6030   4.111  14.303   8.366  0.0926  0.1335 -0.1784
  377loPI   C3B 6031   4.246  14.302   7.931 -0.1960 -0.2024 -0.1421
  377loPI   C4B 6032   4.211  14.088   7.561  0.0629  0.2155  0.1325
  378loPI    C1 6033  18.362  11.571   9.554  0.3418 -0.0457 -0.3382
  378loPI    C2 6034  18.688  11.778   9.657  0.2589 -0.0615 -0.0335
  378loPI    C3 6035  18.619  11.420   9.820 -0.0023  0.0213  0.0430
  378loPI   PO4 6036  18.345  11.536   9.344  0.1411 -0.0654  0.1761
  378loPI   GL1 6037  18.346  11.373   8.981  0.1936 -0.0641 -0.0547
  378loPI   GL2 6038  18.574  11.330   8.881  0.0965 -0.2410 -0.0011
  378loPI   C1A 6039  17.932  11.375   8.727 -0.1703  0.0593 -0.1909
  378loPI   C2A 6040  17.877  11.242   8.304 -0.1621  0.0154 -0.3353
  378loPI   C3A 6041  17.850  10.963   8.063  0.0806  0.1285 -0.3179
  378loPI   C4A 6042  17.846  10.996   7.669  0.0102  0.4191  0.0595
  378loPI   C5A 6043  17.699  10.744   7.289  0.0329  0.1342  0.1116
  378loPI   C6A 6044  17.657  10.794   6.812 -0.0617 -0.0380  0.0105
  378loPI   C1B 6045  18.764  11.222   8.540  0.2541  0.2804  0.1653
  378loPI   C2B 6046  18.977  11.058   8.114  0.3356  0.3772  0.0009
  378loPI   C3B 6047  18.728  10.752   7.852  0.0162  0.4830 -0.2486
  378loPI   C4B 6048  18.802  10.726   7.283  0.3708  0.0559 -0.1678
  379loPI    C1 6049  10.511  16.932   9.685  0.0592  0.1986  0.1496
  379loPI    C2 6050  10.789  16.819   9.949  0.1632  0.2857  0.0784
  379loPI    C3 6051  10.498  17.068  10.061  0.0493  0.1086  0.1820
  379loPI   PO4 6052  10.361  16.661   9.612  0.5215 -0.1788 -0.2034
  379loPI   GL1 6053  10.179  16.561   9.280 -0.0390 -0.1778 -0.1318
  379loPI   GL2 6054  10.314  16.187   9.280 -0.3553 -0.1865 -0.0820
  379loPI   C1A 6055   9.972  16.794   8.959 -0.0528 -0.0463 -0.0279
  379loPI   C2A 6056   9.834  16.894   8.543  0.1813 -0.1490 -0.3243
  379loPI   C3A 6057   9.878  16.886   8.058  0.0258  0.0362 -0.1504
  379loPI   C4A 6058  10.179  16.899   7.547  0.5837 -0.1368 -0.0193
  379loPI   C5A 6059  10.209  16.691   7.099  0.3320 -0.1579 -0.1183
  379loPI   C6A 6060  10.151  16.312   6.747  0.2007 -0.3488 -0.0414
  379loPI   C1B 6061  10.066  16.215   8.960  0.2445 -0.0798  0.1215
  379loPI   C2B 6062  10.056  16.403   8.619 -0.1406  0.1357 -0.2148
  379loPI   C3B 6063  10.078  16.295   8.237  0.1587  0.1419 -0.1484
  379loPI   C4B 6064  10.077  16.151   7.782 -0.1675 -0.0252 -0.2883
  380loPI    C1 6065  17.153   7.862   9.896  0.2091  0.1577  0.1011
  380loPI    C2 6066  17.538   7.871  10.003  0.2867 -0.2613 -0.1206
  380loPI    C3 6067  17.299   7.580  10.139  0.0251  0.0393  0.0768
  380loPI   PO4 6068  17.039   7.770   9.620 -0.2691 -0.0627 -0.4875
  380loPI   GL1 6069  16.965   7.964   9.258 -0.0821 -0.1901  0.2182
  380loPI   GL2 6070  16.608   7.980   9.150  0.3877  0.2915 -0.0070
  380loPI   C1A 6071  16.960   8.196   8.891  0.1233  0.0369 -0.1243
  380loPI   C2A 6072  16.841   8.217   8.497 -0.2320  0.1626 -0.1686
  380loPI   C3A 6073  16.863   8.152   8.053  0.0353 -0.0952  0.0573
  380loPI   C4A 6074  17.001   8.134   7.609  0.0526 -0.0540 -0.0272
  380loPI   C5A 6075  17.424   8.167   7.456 -0.2286  0.0352 -0.0222
  380loPI   C6A 6076  17.509   8.010   7.062  0.0485  0.2316  0.0561
  380loPI   C1B 6077  16.488   7.893   8.743 -0.2478  0.2404  0.1830
  380loPI   C2B 6078  16.476   7.655   8.423 -0.3136  0.1075  0.3005
  380loPI   C3B 6079  16.238   7.629   8.050  0.0657 -0.0363 -0.2875
  380loPI   C4B 6080  15.973   7.437   7.772 -0.0410  0.0560 -0.0052
  381loPI    C1 6081   1.760   9.836   9.611 -0.2163  0.2418 -0.1454
  381loPI    C2 6082   1.691   9.871  10.003 -0.0113 -0.0118 -0.0830
  381loPI    C3 6083   1.907  10.148   9.812 -0.0570  0.0786 -0.0044
  381loPI   PO4 6084   1.976   9.579   9.470 -0.2425 -0.3413  0.1761
  381loPI   GL1 6085   1.928   9.277   9.081  0.0421  0.1641  0.1512
  381loPI   GL2 6086   2.209   9.368   9.066 -0.0302  0.0726 -0.2369
  381loPI   C1A 6087   1.889   8.988   8.868  0.0512 -0.1505  0.1675
  381loPI   C2A 6088   2.011   8.698   8.445  0.0364  0.2197  0.0469
  381loPI   C3A 6089   2.128   8.790   8.029  0.1043  0.0311 -0.4485
  381loPI   C4A 6090   2.077   8.880   7.679  0.1054 -0.0160 -0.1457
  381loPI   C5A 6091   1.783   9.018   7.320 -0.2267 -0.1355  0.3627
  381loPI   C6A 6092   1.553   8.959   6.936  0.0375 -0.0703  0.1021
  381loPI   C1B 6093   2.117   9.521   8.626  0.1142  0.0534  0.5290
  381loPI   C2B 6094   2.174   9.386   8.208  0.3690  0.0949  0.1330
  381loPI   C3B 6095   2.217   9.378   7.800 -0.6099  0.0880  0.2707
  381loPI   C4B 6096   2.189   9.495   7.349 -0.1283  0.0502 -0.0493
  382loPI    C1 6097  17.129  10.396   9.384 -0.5843  0.0941  0.2261
  382loPI    C2 6098  17.238  10.636   9.685  0.2041 -0.0404  0.0691
  382loPI    C3 6099  17.198  10.243   9.748  0.2583 -0.0531  0.0249
  382loPI   PO4 6100  16.926  10.415   9.131  0.0146  0.2082  0.0386
  382loPI   GL1 6101  16.783  10.635   8.867 -0.0513  0.1285 -0.3655
  382loPI   GL2 6102  16.654  10.479   8.683 -0.0460  0.0043  0.0805
  382loPI   C1A 6103  17.020  10.855   8.639 -0.0113 -0.2509  0.2058
  382loPI   C2A 6104  16.912  10.782   8.289  0.0846  0.3756  0.0366
  382loPI   C3A 6105  16.901  10.789   7.865  0.2414  0.0091 -0.2058
  382loPI   C4A 6106  16.811  10.608   7.382 -0.2754  0.0878  0.1710
  382loPI   C5A 6107  16.427  10.505   7.220  0.2072  0.3461 -0.0184
  382loPI   C6A 6108  16.330  10.222   6.904 -0.0030 -0.0541  0.2155
  382loPI   C1B 6109  16.384  10.605   8.233 -0.1996 -0.0343 -0.2165
  382loPI   C2B 6110  16.229  10.526   7.820 -0.2847  0.1972  0.1927
  382loPI   C3B 6111  16.033  10.425   7.516  0.0719 -0.3555  0.3091
  382loPI   C4B 6112  15.922  10.524   7.062 -0.2707 -0.0305 -0.2488
  383loPI    C1 6113   9.559  10.867  10.189 -0.2944 -0.0817 -0.3198
  383loPI    C2 6114   9.240  11.017  10.377 -0.0537 -0.0041  0.0372
  383loPI    C3 6115   9.469  10.744  10.559  0.0595 -0.0925 -0.2332
  383loPI   PO4 6116   9.444  10.861   9.933  0.1442 -0.1440  0.2066
  383loPI   GL1 6117   9.159  11.055   9.535  0.1794  0.0862 -0.0832
  383loPI   GL2 6118   8.944  10.926   9.449 -0.0104 -0.3092 -0.0910
  383loPI   C1A 6119   9.323  11.203   9.213 -0.2570 -0.1628 -0.2732
  383loPI   C2A 6120   9.245  11.025   8.792  0.2378  0.0591 -0.5882
  383loPI   C3A 6121   9.144  10.936   8.348 -0.0015 -0.1202 -0.0419
  383loPI   C4A 6122   9.327  10.811   7.976 -0.1086 -0.2725 -0.0964
  383loPI   C5A 6123   9.451  10.761   7.668 -0.1510 -0.3821 -0.0802
  383loPI   C6A 6124   9.784  10.703   7.690 -0.1316 -0.3187 -0.2603
  383loPI   C1B 6125   8.862  10.802   9.049  0.0543  0.1786 -0.0888
  383loPI   C2B 6126   8.747  10.682   8.666 -0.1205  0.0937  0.2085
  383loPI   C3B 6127   8.819  10.381   8.313 -0.0702  0.0090  0.1374
  383loPI   C4B 6128   9.209  10.314   8.099 -0.1412  0.0051 -0.1059
  384loPI    C1 6129   5.988   5.946  10.846  0.0206 -0.1430  0.2367
  384loPI    C2 6130   6.071   6.295  10.670 -0.0397 -0.1351  0.2240
  384loPI    C3 6131   6.253   6.196  11.012 -0.0737 -0.0604  0.2642
  384loPI   PO4 6132   5.900   5.810  10.627  0.0346  0.1607 -0.1847
  384loPI   GL1 6133   5.931   6.080  10.209 -0.1017  0.2354 -0.2025
  384loPI   GL2 6134   5.959   5.870  10.057  0.0641 -0.3268 -0.2543
  384loPI   C1A 6135   5.958   6.345   9.862 -0.1473 -0.4987 -0.0471
  384loPI   C2A 6136   6.192   6.460   9.470  0.0729  0.3643 -0.2267
  384loPI   C3A 6137   6.507   6.636   9.121  0.1719  0.0371 -0.1137
  384loPI   C4A 6138   6.647   6.518   8.690 -0.2476 -0.0846 -0.0853
  384loPI   C5A 6139   6.982   6.628   8.344  0.0030 -0.2216  0.0597
  384loPI   C6A 6140   7.338   6.858   8.039  0.1054  0.0243  0.0019
  384loPI   C1B 6141   5.716   5.893   9.797  0.1517 -0.0102  0.1899
  384loPI   C2B 6142   5.956   6.043   9.440  0.3464 -0.1266  0.0729
  384loPI   C3B 6143   6.175   6.007   9.067  0.2417 -0.2100 -0.1165
  384loPI   C4B 6144   6.198   6.089   8.589 -0.1545 -0.2872  0.0560
  385loPI    C1 6145   2.150  13.278   9.473 -0.0106  0.0859  0.0168
  385loPI    C2 6146   2.206  13.671   9.522  0.1207  0.0685  0.0082
  385loPI    C3 6147   2.173  13.433   9.841  0.0154  0.0898  0.0134
  385loPI   PO4 6148   2.048  13.236   9.263 -0.0028  0.2222 -0.1882
  385loPI   GL1 6149   1.891  13.136   8.928 -0.0561  0.4642  0.0558
  385loPI   GL2 6150   1.684  13.360   8.792  0.0579  0.4209 -0.0692
  385loPI   C1A 6151   2.225  13.206   8.588  0.1102 -0.3591  0.2377
  385loPI   C2A 6152   2.333  13.216   8.109  0.1347  0.0330  0.1423
  385loPI   C3A 6153   2.311  13.111   7.685 -0.1659  0.2400 -0.1206
  385loPI   C4A 6154   2.406  12.704   7.533  0.2673 -0.0504  0.0476
  385loPI   C5A 6155   2.481  12.501   7.187 -0.2089 -0.0959 -0.1347
  385loPI   C6A 6156   2.592  12.230   6.811 -0.0777  0.3135  0.0723
  385loPI   C1B 6157   1.502  13.424   8.388  0.1358 -0.1094  0.0927
  385loPI   C2B 6158   1.439  13.211   8.002 -0.2943 -0.2607  0.0718
  385loPI   C3B 6159   1.478  13.051   7.569  0.4368 -0.2079 -0.2528
  385loPI   C4B 6160   1.529  12.936   7.157 -0.0264  0.1135  0.2394
  386loPI    C1 6161  12.833   0.355   9.875  0.2407  0.2085 -0.1011
  386loPI    C2 6162  12.967   0.640  10.121 -0.0641  0.1882  0.0940
  386loPI    C3 6163  12.596   0.496  10.165 -0.0782  0.0926 -0.2993
  386loPI   PO4 6164  13.111   0.321   9.622  0.2536  0.0524 -0.2634
  386loPI   GL1 6165  13.139   0.490   9.248 -0.1762 -0.0056  0.0625
  386loPI   GL2 6166  13.136   0.759   9.132 -0.1073 -0.0583 -0.2160
  386loPI   C1A 6167  13.099   0.219   8.861 -0.4862  0.1275 -0.2741
  386loPI   C2A 6168  13.348   0.148   8.494  0.3283  0.3436  0.0606
  386loPI   C3A 6169  13.528   0.035   8.118  0.1764  0.0117 -0.1816
  386loPI   C4A 6170  13.451   0.009   7.684 -0.2333  0.1795 -0.1536
  386loPI   C5A 6171  13.436   0.011   7.194 -0.1022 -0.1660  0.2354
  386loPI   C6A 6172  13.666   0.230   6.894 -0.0315 -0.1857 -0.3161
  386loPI   C1B 6173  13.011   0.740   8.708 -0.1025 -0.1169  0.1809
  386loPI   C2B 6174  13.014   0.519   8.310 -0.2559 -0.2874 -0.0449
  386loPI   C3B 6175  12.837   0.203   8.292  0.0117 -0.0375  0.1651
  386loPI   C4B 6176  12.597  -0.202   8.114  0.2983 -0.2375 -0.1717
  387loPI    C1 6177  14.087  18.449   9.350 -0.0486 -0.0576 -0.1327
  387loPI    C2 6178  14.267  18.559   9.691 -0.0054 -0.2481 -0.0931
  387loPI    C3 6179  13.932  18.743   9.573  0.1200 -0.0076 -0.0794
  387loPI   PO4 6180  14.096  18.540   9.121  0.0743  0.1394 -0.1799
  387loPI   GL1 6181  13.959  18.532   8.661 -0.2116 -0.2111 -0.1960
  387loPI   GL2 6182  13.971  18.878   8.679 -0.2768 -0.1007  0.0105
  387loPI   C1A 6183  14.055  18.614   8.227 -0.3020  0.0343 -0.3663
  387loPI   C2A 6184  13.942  18.776   7.860  0.2190  0.0471  0.1712
  387loPI   C3A 6185  13.992  18.987   7.518  0.0086  0.3049  0.3350
  387loPI   C4A 6186  14.212  19.032   7.111  0.0745 -0.1573  0.1575
  387loPI   C5A 6187  14.304  18.991   6.591 -0.2728 -0.2221  0.0296
  387loPI   C6A 6188  14.638  19.072   6.414  0.0575 -0.0007  0.0284
  387loPI   C1B 6189  13.939  19.315   8.432 -0.1416  0.0644 -0.2842
  387loPI   C2B 6190  14.003  19.423   7.967 -0.3680  0.0058 -0.0342
  387loPI   C3B 6191  13.919  19.485   7.562  0.3561  0.1706 -0.0637
  387loPI   C4B 6192  14.026  19.646   7.147 -0.2230  0.3153  0.1471
  388loPI    C1 6193  15.868  11.699   9.534 -0.0550  0.0733  0.0696
  388loPI    C2 6194  15.985  11.833   9.892  0.1542  0.1779 -0.0357
  388loPI    C3 6195  15.835  11.464   9.856  0.2887  0.1051  0.1323
  388loPI   PO4 6196  16.080  11.743   9.410  0.0172  0.3246  0.4279
  388loPI   GL1 6197  16.078  11.461   9.024  0.2074 -0.1806  0.0631
  388loPI   GL2 6198  15.982  11.203   8.941  0.3290  0.0700  0.0821
  388loPI   C1A 6199  15.944  11.818   8.703  0.1139  0.2819  0.0765
  388loPI   C2A 6200  15.675  11.843   8.428  0.1688 -0.1987  0.0462
  388loPI   C3A 6201  15.577  11.688   8.047  0.0801  0.2568 -0.0909
  388loPI   C4A 6202  15.427  11.611   7.648  0.2625 -0.2095  0.0234
  388loPI   C5A 6203  15.291  11.740   7.314 -0.3225 -0.0784  0.3844
  388loPI   C6A 6204  15.180  11.994   7.077  0.1152  0.0810 -0.1229
  388loPI   C1B 6205  16.027  11.308   8.492  0.1915  0.1392  0.2138
  388loPI   C2B 6206  16.064  11.490   8.138  0.2948  0.1537 -0.0710
  388loPI   C3B 6207  15.945  11.453   7.709 -0.2123  0.1951  0.2380
  388loPI   C4B 6208  15.746  11.574   7.251 -0.1655  0.4265 -0.0919
  389loPI    C1 6209   6.417   5.880  10.577 -0.1992  0.3544 -0.1972
  389loPI    C2 6210   6.813   5.920  10.607 -0.1844  0.1965 -0.1743
  389loPI    C3 6211   6.606   5.755  10.906 -0.2320  0.0234 -0.3014
  389loPI   PO4 6212   6.439   5.810  10.307 -0.1922 -0.0059  0.0771
  389loPI   GL1 6213   6.672   5.766  10.109 -0.2761  0.0498 -0.3175
  389loPI   GL2 6214   6.969   5.827   9.912  0.0414 -0.1023  0.1145
  389loPI   C1A 6215   6.392   5.699   9.674  0.1053  0.5491  0.2319
  389loPI   C2A 6216   6.329   5.590   9.334 -0.6131  0.0874  0.1090
  389loPI   C3A 6217   6.172   5.517   8.879 -0.1230 -0.4336  0.2073
  389loPI   C4A 6218   6.193   5.412   8.468  0.1553 -0.0201  0.1739
  389loPI   C5A 6219   6.392   5.289   8.060  0.2536 -0.2418  0.1768
  389loPI   C6A 6220   6.816   5.382   7.827 -0.1793 -0.0145  0.2472
  389loPI   C1B 6221   6.925   5.618   9.541 -0.0145  0.0359 -0.2036
  389loPI   C2B 6222   6.888   5.665   9.085 -0.0235 -0.0003  0.1535
  389loPI   C3B 6223   6.807   5.613   8.730 -0.1722 -0.0743  0.2090
  389loPI   C4B 6224   6.643   5.631   8.287 -0.1093 -0.1093 -0.0357
  390loPI    C1 6225   3.182   2.804  10.392 -0.0203  0.1530  0.2547
  390loPI    C2 6226   3.124   3.117  10.150 -0.0252  0.0491  0.1198
  390loPI    C3 6227   3.227   3.175  10.532  0.3064  0.2104  0.0099
  390loPI   PO4 6228   3.267   2.602  10.167 -0.2310 -0.0024 -0.1899
  390loPI   GL1 6229   3.170   2.371   9.776  0.0777  0.2722  0.4866
  390loPI   GL2 6230   3.033   2.559   9.450  0.0534  0.1373  0.5336
  390loPI   C1A 6231   3.499   2.782   9.588  0.0994  0.3681  0.1032
  390loPI   C2A 6232   3.668   2.881   9.313  0.1013 -0.1959  0.2556
  390loPI   C3A 6233   3.743   3.049   8.912 -0.0209  0.1611  0.0942
  390loPI   C4A 6234   3.694   3.098   8.448  0.1066 -0.2547  0.1248
  390loPI   C5A 6235   3.503   3.028   8.054  0.2816 -0.0903 -0.1283
  390loPI   C6A 6236   3.636   2.997   7.668 -0.1109  0.1234  0.1598
  390loPI   C1B 6237   3.365   2.519   9.119  0.0069 -0.3696  0.1477
  390loPI   C2B 6238   3.463   2.593   8.808 -0.0895 -0.1142  0.1119
  390loPI   C3B 6239   3.454   2.638   8.365  0.1156 -0.0642  0.0008
  390loPI   C4B 6240   3.495   2.494   7.952  0.1446  0.0994  0.1002
  391loPI    C1 6241  10.488  12.664  10.466  0.1261 -0.2575  0.2490
  391loPI    C2 6242  10.543  12.862  10.810  0.1794  0.0153  0.0865
  391loPI    C3 6243  10.316  13.021  10.521  0.2576 -0.1421 -0.0636
  391loPI   PO4 6244  10.442  12.362  10.443 -0.1589 -0.1074  0.2175
  391loPI   GL1 6245  10.629  12.167   9.978  0.1249  0.0905 -0.0806
  391loPI   GL2 6246  10.443  11.888   9.800  0.3398  0.1113 -0.2095
  391loPI   C1A 6247  10.507  12.301   9.563  0.0065  0.0971  0.0544
  391loPI   C2A 6248  10.247  12.170   9.252 -0.2159  0.1017  0.2323
  391loPI   C3A 6249  10.268  12.266   8.844  0.1955  0.2330  0.0344
  391loPI   C4A 6250  10.180  12.374   8.441  0.2078  0.2373 -0.2983
  391loPI   C5A 6251  10.061  12.329   8.075  0.1561 -0.0940  0.1341
  391loPI   C6A 6252  10.197  12.448   7.712 -0.3814 -0.3942 -0.2274
  391loPI   C1B 6253  10.638  11.821   9.372 -0.0073 -0.0056 -0.3080
  391loPI   C2B 6254  10.898  11.629   9.242 -0.0856  0.1362  0.1492
  391loPI   C3B 6255  11.037  11.742   8.803 -0.1813 -0.1670 -0.0597
  391loPI   C4B 6256  11.092  12.088   8.449  0.0065  0.1588  0.2551
  392loPI    C1 6257  14.021   5.478  10.284 -0.1275 -0.1309  0.2350
  392loPI    C2 6258  14.411   5.401  10.321 -0.0687  0.0563  0.0258
  392loPI    C3 6259  14.270   5.766  10.404 -0.1995 -0.0103  0.0993
  392loPI   PO4 6260  13.980   5.361  10.028 -0.1148  0.0358 -0.1524
  392loPI   GL1 6261  14.114   5.158   9.688 -0.2570 -0.0443  0.0383
  392loPI   GL2 6262  14.373   5.471   9.760 -0.0538 -0.1649  0.0211
  392loPI   C1A 6263  14.426   5.193   9.325  0.1084  0.0392  0.1082
  392loPI   C2A 6264  14.341   5.210   8.903  0.0678 -0.0102 -0.1750
  392loPI   C3A 6265  14.185   5.139   8.486 -0.0223  0.1417  0.1333
  392loPI   C4A 6266  14.216   5.015   8.070  0.0802 -0.1568  0.1296
  392loPI   C5A 6267  13.988   4.788   7.654 -0.0312  0.0030  0.1437
  392loPI   C6A 6268  14.133   4.587   7.314 -0.0953  0.1508  0.2426
  392loPI   C1B 6269  14.184   5.596   9.436  0.1351  0.3213 -0.1126
  392loPI   C2B 6270  13.908   5.506   9.018  0.0679  0.4373 -0.3145
  392loPI   C3B 6271  13.842   5.533   8.613  0.2338 -0.1463  0.1789
  392loPI   C4B 6272  14.084   5.565   8.093  0.1662  0.0131 -0.0597
  393loPI    C1 6273  14.633  16.614   9.630 -0.0376  0.0937  0.1268
  393loPI    C2 6274  14.367  16.544   9.920  0.0658  0.1230  0.2293
  393loPI    C3 6275  14.739  16.401   9.951  0.0636  0.0849  0.0878
  393loPI   PO4 6276  14.474  16.541   9.346  0.0117  0.1175  0.0552
  393loPI   GL1 6277  13.988  16.611   9.152 -0.0136  0.0624  0.0608
  393loPI   GL2 6278  13.693  16.747   8.965 -0.1543  0.2436  0.2645
  393loPI   C1A 6279  14.126  16.496   8.720  0.1359  0.0656 -0.4458
  393loPI   C2A 6280  13.973  16.222   8.358 -0.3111  0.1022 -0.1408
  393loPI   C3A 6281  13.748  16.216   8.007 -0.1024  0.0137  0.1021
  393loPI   C4A 6282  13.585  16.218   7.637 -0.1431  0.0147 -0.1864
  393loPI   C5A 6283  13.711  15.949   7.323 -0.1617  0.0660  0.1821
  393loPI   C6A 6284  13.495  16.029   6.944  0.0841  0.1291 -0.1907
  393loPI   C1B 6285  13.729  16.715   8.481  0.0814  0.3860 -0.1085
  393loPI   C2B 6286  13.658  16.736   8.099  0.1044  0.1401  0.1495
  393loPI   C3B 6287  13.599  16.891   7.677  0.0986  0.1463 -0.0296
  393loPI   C4B 6288  13.477  17.151   7.286 -0.1573 -0.2573 -0.0273
  394loPI    C1 6289  10.764   6.544  10.687 -0.1652 -0.1367  0.1183
  394loPI    C2 6290  11.017   6.269  10.830 -0.0474 -0.1551 -0.1203
  394loPI    C3 6291  10.899   6.572  11.063  0.3107 -0.0640 -0.0506
  394loPI   PO4 6292  10.857   6.442  10.389  0.2183  0.0851  0.1117
  394loPI   GL1 6293  10.933   6.473   9.906  0.0649  0.1972 -0.0529
  394loPI   GL2 6294  11.123   6.639   9.694 -0.1615  0.0303 -0.0722
  394loPI   C1A 6295  10.839   6.181   9.517 -0.1040  0.2530  0.4943
  394loPI   C2A 6296  10.771   6.178   9.117 -0.0925  0.0351 -0.2421
  394loPI   C3A 6297  11.049   5.977   8.879 -0.1123 -0.5676  0.0715
  394loPI   C4A 6298  11.177   5.878   8.347 -0.0087  0.2022 -0.1265
  394loPI   C5A 6299  11.254   5.835   7.865  0.3057  0.4903  0.3288
  394loPI   C6A 6300  11.455   5.427   7.490 -0.0267  0.1143  0.2034
  394loPI   C1B 6301  11.179   6.489   9.241  0.0257 -0.3584  0.1030
  394loPI   C2B 6302  11.300   6.509   8.852 -0.0677 -0.0918 -0.2185
  394loPI   C3B 6303  11.255   6.393   8.506  0.0003  0.3014  0.0516
  394loPI   C4B 6304  11.262   6.278   8.046  0.1359 -0.1287 -0.0556
  395loPI    C1 6305  13.546  13.505   9.642  0.0424 -0.1305  0.1296
  395loPI    C2 6306  13.910  13.509   9.806  0.0868 -0.0580  0.0299
  395loPI    C3 6307  13.692  13.844   9.796  0.2048  0.0129 -0.3242
  395loPI   PO4 6308  13.558  13.482   9.359  0.1823  0.0983 -0.1420
  395loPI   GL1 6309  13.427  13.551   9.098  0.0752 -0.1339 -0.1183
  395loPI   GL2 6310  13.218  13.719   8.966 -0.0430  0.1572  0.0831
  395loPI   C1A 6311  13.424  13.428   8.556 -0.2005 -0.1107 -0.0646
  395loPI   C2A 6312  13.421  13.294   8.077 -0.0216  0.1117  0.2042
  395loPI   C3A 6313  13.387  13.228   7.628  0.0242  0.2717 -0.1013
  395loPI   C4A 6314  13.232  12.984   7.263 -0.0784 -0.0615  0.0099
  395loPI   C5A 6315  13.576  12.774   6.951  0.0508  0.1876 -0.0697
  395loPI   C6A 6316  13.598  12.367   6.611  0.0709 -0.2493 -0.1161
  395loPI   C1B 6317  12.999  13.579   8.688 -0.1918 -0.4354 -0.1864
  395loPI   C2B 6318  12.929  13.614   8.313  0.0648  0.0054  0.1752
  395loPI   C3B 6319  13.035  13.532   7.895  0.0497 -0.1325  0.3444
  395loPI   C4B 6320  12.908  13.309   7.476 -0.0982  0.1817 -0.1161
  396loPI    C1 6321   3.294  15.833   9.971  0.1137  0.1073  0.0721
  396loPI    C2 6322   2.912  15.716   9.997  0.1619 -0.0643  0.0201
  396loPI    C3 6323   3.041  16.028  10.211 -0.0095  0.0005  0.0302
  396loPI   PO4 6324   3.345  15.800   9.701  0.0397 -0.7395  0.3191
  396loPI   GL1 6325   3.390  15.727   9.321  0.0361  0.2031  0.0922
  396loPI   GL2 6326   3.328  15.947   9.187  0.1174  0.1135  0.0395
  396loPI   C1A 6327   3.355  15.594   8.854  0.1041 -0.1050  0.1566
  396loPI   C2A 6328   3.427  15.764   8.384 -0.1688 -0.2870  0.0082
  396loPI   C3A 6329   3.456  15.615   8.076 -0.3123  0.1913 -0.0409
  396loPI   C4A 6330   3.417  15.356   7.678 -0.0890  0.2042 -0.1625
  396loPI   C5A 6331   3.300  15.221   7.338  0.0340 -0.0027 -0.1338
  396loPI   C6A 6332   3.166  14.935   6.953  0.4222  0.0391 -0.4584
  396loPI   C1B 6333   3.262  16.118   8.767 -0.0396  0.0074  0.1599
  396loPI   C2B 6334   3.134  16.375   8.340 -0.1009 -0.0153  0.1852
  396loPI   C3B 6335   3.213  16.099   8.072  0.1901  0.0727 -0.0348
  396loPI   C4B 6336   3.306  15.874   7.639  0.1628  0.0023 -0.2101
  397loPI    C1 6337  15.376   9.310   9.953 -0.1283  0.1241 -0.0051
  397loPI    C2 6338  15.692   9.327  10.197 -0.3231 -0.3483  0.2929
  397loPI    C3 6339  15.382   9.573  10.254 -0.0013  0.1497 -0.0294
  397loPI   PO4 6340  15.495   9.322   9.695 -0.1013 -0.0742 -0.0612
  397loPI   GL1 6341  15.368   9.246   9.300 -0.3220  0.1559  0.1746
  397loPI   GL2 6342  15.053   9.249   9.254  0.0968 -0.3403 -0.2163
  397loPI   C1A 6343  15.553   9.391   8.934 -0.1281  0.1197 -0.0911
  397loPI   C2A 6344  15.405   9.438   8.508  0.2102 -0.2595  0.3521
  397loPI   C3A 6345  15.216   9.663   8.138  0.1489 -0.0130 -0.1189
  397loPI   C4A 6346  15.236   9.876   7.815  0.1392  0.2168  0.0561
  397loPI   C5A 6347  15.224   9.913   7.449  0.5145  0.1281  0.0516
  397loPI   C6A 6348  15.386   9.711   6.965  0.1784 -0.0870 -0.1427
  397loPI   C1B 6349  15.072   9.147   8.815 -0.0637 -0.0602  0.0750
  397loPI   C2B 6350  15.092   9.055   8.420 -0.0714 -0.1365  0.1459
  397loPI   C3B 6351  14.930   9.055   7.948 -0.1030  0.1212  0.2637
  397loPI   C4B 6352  15.030   8.869   7.531  0.2440 -0.1267 -0.1106
  398loPI    C1 6353  11.658   9.581  10.099 -0.3177 -0.0168  0.0232
  398loPI    C2 6354  11.857   9.921  10.166 -0.2108 -0.0460 -0.1416
  398loPI    C3 6355  11.547   9.822  10.398 -0.0521  0.0145  0.0990
  398loPI   PO4 6356  11.569   9.572   9.831 -0.3389 -0.2439  0.3674
  398loPI   GL1 6357  11.502   9.500   9.482  0.1553 -0.0250 -0.0391
  398loPI   GL2 6358  11.405   9.641   9.274  0.1037  0.1061 -0.1663
  398loPI   C1A 6359  11.772   9.257   9.148  0.3116  0.2754  0.1249
  398loPI   C2A 6360  11.822   9.275   8.735 -0.3778 -0.0553 -0.0129
  398loPI   C3A 6361  11.914   9.094   8.347 -0.0334  0.1706 -0.0194
  398loPI   C4A 6362  11.727   8.987   7.830 -0.3599 -0.1526 -0.1698
  398loPI   C5A 6363  11.542   9.217   7.522 -0.0163  0.0112 -0.0876
  398loPI   C6A 6364  11.710   9.161   7.090  0.0966  0.1030 -0.2391
  398loPI   C1B 6365  11.666   9.758   8.942 -0.1287 -0.1566  0.3048
  398loPI   C2B 6366  11.792   9.689   8.461 -0.3587  0.0499 -0.2333
  398loPI   C3B 6367  11.820   9.482   8.085  0.0845  0.0104 -0.1292
  398loPI   C4B 6368  11.888   9.561   7.654 -0.0557 -0.1757  0.0230
  399loPI    C1 6369  16.749  10.766   9.747 -0.2257 -0.1012  0.0958
  399loPI    C2 6370  16.609  11.055   9.985  0.0260  0.3073 -0.2379
  399loPI    C3 6371  17.002  10.984   9.968 -0.0416 -0.1400 -0.0740
  399loPI   PO4 6372  16.648  10.811   9.382  0.4595 -0.1533 -0.0560
  399loPI   GL1 6373  16.437  11.007   8.985  0.2557  0.0954 -0.1090
  399loPI   GL2 6374  16.676  11.226   9.031  0.0145  0.0520 -0.2287
  399loPI   C1A 6375  16.527  11.017   8.512 -0.2301 -0.0975  0.1318
  399loPI   C2A 6376  16.481  11.056   7.968  0.2391 -0.0154 -0.0097
  399loPI   C3A 6377  16.427  11.001   7.503 -0.0037 -0.2298 -0.3728
  399loPI   C4A 6378  16.274  11.301   7.146  0.2680 -0.2904  0.1332
  399loPI   C5A 6379  16.250  10.931   6.794 -0.1687  0.3301 -0.1077
  399loPI   C6A 6380  16.504  10.671   6.697  0.2501 -0.0570 -0.0553
  399loPI   C1B 6381  16.483  11.465   8.698  0.2513 -0.2034 -0.1113
  399loPI   C2B 6382  16.544  11.579   8.228 -0.0292  0.1121  0.1330
  399loPI   C3B 6383  16.482  11.610   7.716  0.2788 -0.2667  0.3213
  399loPI   C4B 6384  16.357  11.729   7.338  0.1297  0.2012  0.2233
  400loPI    C1 6385  12.117   8.664  10.016  0.0553  0.0774  0.1190
  400loPI    C2 6386  12.312   8.525  10.336 -0.1253 -0.0192  0.1881
  400loPI    C3 6387  11.917   8.469  10.302 -0.1141  0.0287 -0.0309
  400loPI   PO4 6388  12.307   8.572   9.813  0.1730  0.1165 -0.0675
  400loPI   GL1 6389  12.318   8.328   9.369  0.0343  0.0583 -0.0195
  400loPI   GL2 6390  12.634   8.254   9.443  0.2239 -0.0152 -0.5585
  400loPI   C1A 6391  12.183   8.396   8.794 -0.2916 -0.1928  0.3453
  400loPI   C2A 6392  12.040   8.182   8.523  0.0510  0.0674 -0.1450
  400loPI   C3A 6393  11.940   7.861   8.287  0.0619 -0.3125 -0.0100
  400loPI   C4A 6394  11.935   7.896   7.883  0.4943 -0.0986 -0.4490
  400loPI   C5A 6395  11.675   8.164   7.559  0.0265 -0.1477 -0.2577
  400loPI   C6A 6396  11.563   8.251   7.143 -0.4002  0.0084  0.1604
  400loPI   C1B 6397  12.780   8.195   9.010  0.0798 -0.0157  0.1781
  400loPI   C2B 6398  12.580   8.085   8.555 -0.2258  0.0075  0.1019
  400loPI   C3B 6399  12.400   7.995   8.146 -0.0431 -0.1013  0.0637
  400loPI   C4B 6400  12.478   7.665   7.913 -0.1550  0.0178 -0.2812
  401loPI    C1 6401  17.744   5.841  10.051  0.2370  0.1789 -0.1721
  401loPI    C2 6402  17.659   5.524  10.281 -0.0482  0.2255 -0.2090
  401loPI    C3 6403  18.039   5.642  10.234  0.0548 -0.0724 -0.1459
  401loPI   PO4 6404  17.540   5.702   9.793 -0.1792  0.0646  0.0556
  401loPI   GL1 6405  17.670   5.754   9.414 -0.0475 -0.2746  0.1484
  401loPI   GL2 6406  17.710   5.479   9.300 -0.3679  0.1165  0.1056
  401loPI   C1A 6407  17.653   6.091   9.225  0.3272  0.2104 -0.1417
  401loPI   C2A 6408  17.443   6.297   8.919  0.2685  0.0859 -0.2130
  401loPI   C3A 6409  17.545   6.335   8.504 -0.0569 -0.1721  0.0529
  401loPI   C4A 6410  17.906   5.995   8.365  0.5931 -0.5779  0.0504
  401loPI   C5A 6411  17.936   5.878   7.918 -0.0247  0.1641  0.1628
  401loPI   C6A 6412  18.217   5.788   7.668  0.1378 -0.1238  0.0839
  401loPI   C1B 6413  17.930   5.382   8.872 -0.1117  0.3214 -0.1351
  401loPI   C2B 6414  17.767   5.373   8.492 -0.2496  0.0559 -0.3880
  401loPI   C3B 6415  17.816   5.451   8.040  0.4769 -0.0551  0.0016
  401loPI   C4B 6416  17.700   5.530   7.588  0.2049 -0.0730  0.0292
  402loPI    C1 6417  11.333  15.571   9.840 -0.1707 -0.0703  0.0490
  402loPI    C2 6418  11.554  15.399  10.125  0.2316 -0.0796 -0.2596
  402loPI    C3 6419  11.340  15.727  10.208  0.0627 -0.2845  0.1379
  402loPI   PO4 6420  11.431  15.451   9.603  0.1134 -0.0763 -0.0124
  402loPI   GL1 6421  11.165  15.502   9.205  0.4104 -0.0985 -0.0632
  402loPI   GL2 6422  11.376  15.177   9.175  0.2686  0.0937  0.4406
  402loPI   C1A 6423  10.970  15.717   8.813  0.0805  0.1216 -0.2352
  402loPI   C2A 6424  10.826  15.775   8.455 -0.1280 -0.3093  0.0120
  402loPI   C3A 6425  10.597  15.867   8.064  0.2580  0.0397 -0.0533
  402loPI   C4A 6426  10.407  15.792   7.579 -0.0363  0.0998  0.1899
  402loPI   C5A 6427  10.357  16.006   7.157 -0.1483  0.1311  0.2713
  402loPI   C6A 6428  10.627  16.147   6.800  0.0296  0.1321 -0.3063
  402loPI   C1B 6429  11.375  15.406   8.710 -0.2768  0.3015  0.1068
  402loPI   C2B 6430  11.448  15.715   8.401 -0.3707  0.0955 -0.1418
  402loPI   C3B 6431  11.315  15.967   8.019  0.2945  0.1111  0.1894
  402loPI   C4B 6432  11.026  16.078   7.867 -0.2000 -0.1005 -0.0289
  403loPI    C1 6433   1.305  10.409   9.858 -0.1502 -0.0363 -0.4288
  403loPI    C2 6434   1.135  10.050   9.810 -0.2832 -0.0474  0.0672
  403loPI    C3 6435   1.219  10.183  10.178  0.0752  0.2901 -0.1301
  403loPI   PO4 6436   1.467  10.384   9.635  0.1697  0.2683  0.2240
  403loPI   GL1 6437   1.463  10.571   9.192  0.0714 -0.0631  0.1703
  403loPI   GL2 6438   1.667  10.858   9.196  0.0240 -0.0824 -0.1238
  403loPI   C1A 6439   1.229  10.827   8.955 -0.0623  0.2716 -0.0543
  403loPI   C2A 6440   1.255  11.272   8.720  0.3258 -0.1670 -0.0426
  403loPI   C3A 6441   1.326  11.464   8.278 -0.3061 -0.2041  0.0365
  403loPI   C4A 6442   1.412  11.336   7.801 -0.2132  0.4070 -0.0080
  403loPI   C5A 6443   1.410  10.912   7.569  0.1022 -0.1180 -0.2226
  403loPI   C6A 6444   1.168  10.521   7.245  0.2252 -0.1678  0.2531
  403loPI   C1B 6445   1.690  10.883   8.720  0.3028  0.1680  0.0386
  403loPI   C2B 6446   2.088  10.745   8.494 -0.0168  0.0425 -0.3769
  403loPI   C3B 6447   2.163  10.785   8.047 -0.2771  0.4138 -0.1903
  403loPI   C4B 6448   2.224  10.910   7.681  0.1077  0.0861 -0.0090
  404loPI    C1 6449   5.990   9.520  10.306 -0.0097  0.2237  0.1984
  404loPI    C2 6450   5.809   9.606   9.960  0.1330 -0.0169  0.0612
  404loPI    C3 6451   5.592   9.490  10.275  0.0040  0.1864  0.0489
  404loPI   PO4 6452   6.225   9.416  10.235  0.2825  0.1869 -0.0047
  404loPI   GL1 6453   6.428   9.266   9.839  0.4581  0.1914 -0.0007
  404loPI   GL2 6454   6.252   9.013   9.652  0.3128 -0.1219  0.0418
  404loPI   C1A 6455   6.268   9.510   9.408 -0.1086 -0.0009 -0.1121
  404loPI   C2A 6456   5.942   9.593   9.078 -0.3261  0.1145  0.3293
  404loPI   C3A 6457   5.813   9.588   8.653  0.1904  0.2337  0.0116
  404loPI   C4A 6458   6.172   9.476   8.273 -0.1560  0.1663  0.0887
  404loPI   C5A 6459   6.347   9.317   7.863  0.3217 -0.1036 -0.1805
  404loPI   C6A 6460   6.340   9.281   7.512 -0.0832 -0.1364  0.0640
  404loPI   C1B 6461   5.873   8.682   9.368  0.4230 -0.1807 -0.0605
  404loPI   C2B 6462   5.922   8.253   9.223  0.1171  0.1861  0.0943
  404loPI   C3B 6463   6.003   7.935   8.917 -0.1849 -0.0973  0.2929
  404loPI   C4B 6464   6.113   7.851   8.526 -0.0667  0.2566  0.0591
  405loPI    C1 6465  17.582  12.155   9.445 -0.1231  0.1128 -0.1305
  405loPI    C2 6466  17.602  12.513   9.622  0.0651  0.0262  0.0265
  405loPI    C3 6467  17.548  12.184   9.842  0.0361 -0.0566 -0.1034
  405loPI   PO4 6468  17.799  12.125   9.231  0.1134 -0.1158  0.2561
  405loPI   GL1 6469  17.878  12.065   8.862 -0.2641  0.1087 -0.0502
  405loPI   GL2 6470  18.180  12.266   8.891 -0.0508  0.1385 -0.1152
  405loPI   C1A 6471  17.951  11.923   8.479  0.0135 -0.1926  0.0386
  405loPI   C2A 6472  17.946  11.708   8.108  0.0009 -0.0174  0.1997
  405loPI   C3A 6473  18.058  11.461   7.722 -0.1718 -0.0493 -0.2777
  405loPI   C4A 6474  18.175  11.331   7.335 -0.0190 -0.1150  0.0790
  405loPI   C5A 6475  18.094  10.993   6.997 -0.1324 -0.1118 -0.1017
  405loPI   C6A 6476  18.258  10.797   6.653 -0.1312 -0.0490  0.1887
  405loPI   C1B 6477  18.331  12.214   8.490 -0.2347 -0.5205 -0.2021
  405loPI   C2B 6478  18.229  12.258   8.085 -0.0850 -0.2615  0.0903
  405loPI   C3B 6479  18.039  12.083   7.754 -0.0282  0.2159  0.0684
  405loPI   C4B 6480  17.855  11.863   7.416  0.3574  0.0108 -0.1441
  406loPI    C1 6481  14.785   2.300   9.760 -0.0006 -0.0269  0.0321
  406loPI    C2 6482  14.739   2.488  10.110  0.0056  0.0038  0.0165
  406loPI    C3 6483  15.103   2.457   9.946  0.0221 -0.1240  0.0760
  406loPI   PO4 6484  14.729   2.430   9.591  0.2000  0.1072 -0.4151
  406loPI   GL1 6485  14.614   2.798   9.488  0.3135 -0.1650 -0.0081
  406loPI   GL2 6486  14.325   2.968   9.508 -0.1169 -0.0851  0.0606
  406loPI   C1A 6487  14.673   2.790   9.077 -0.0737  0.0745 -0.0197
  406loPI   C2A 6488  14.750   2.962   8.766 -0.0670  0.1750  0.1151
  406loPI   C3A 6489  14.742   3.102   8.414 -0.3365  0.0484  0.0442
  406loPI   C4A 6490  14.704   3.129   7.992 -0.1366  0.4460  0.0328
  406loPI   C5A 6491  14.416   2.919   7.631  0.0358  0.0387 -0.0383
  406loPI   C6A 6492  14.531   2.612   7.290 -0.0330  0.1463  0.0313
  406loPI   C1B 6493  14.333   3.198   9.050  0.2989  0.0061  0.0732
  406loPI   C2B 6494  14.282   3.211   8.570 -0.0016 -0.2959 -0.1922
  406loPI   C3B 6495  14.212   3.293   8.130  0.0489  0.2890  0.4206
  406loPI   C4B 6496  14.364   3.520   7.887 -0.0259 -0.1935  0.1325
  407loPI    C1 6497  16.274   7.175   9.988 -0.2800  0.0301 -0.1534
  407loPI    C2 6498  16.260   6.901  10.279 -0.2813 -0.0459 -0.2246
  407loPI    C3 6499  16.199   7.287  10.364  0.1982 -0.0044 -0.0424
  407loPI   PO4 6500  16.508   7.033   9.795  0.0837  0.2169  0.2505
  407loPI   GL1 6501  16.526   7.027   9.353 -0.0434  0.0931  0.1015
  407loPI   GL2 6502  16.364   6.701   9.383  0.3466 -0.1638  0.2413
  407loPI   C1A 6503  16.580   7.010   8.867 -0.0287  0.0264 -0.2468
  407loPI   C2A 6504  16.760   7.185   8.520 -0.2169 -0.2522 -0.2062
  407loPI   C3A 6505  16.643   7.263   8.116 -0.2543 -0.4672 -0.1299
  407loPI   C4A 6506  16.746   7.042   7.709 -0.1454 -0.0287 -0.1189
  407loPI   C5A 6507  16.868   6.720   7.567 -0.1182  0.1340 -0.1412
  407loPI   C6A 6508  17.240   6.439   7.562  0.1125  0.5983  0.1621
  407loPI   C1B 6509  16.534   6.501   9.044  0.1088  0.0398  0.0405
  407loPI   C2B 6510  16.706   6.622   8.558 -0.1757 -0.2019 -0.1905
  407loPI   C3B 6511  16.681   6.760   8.120  0.4865  0.1316 -0.2355
  407loPI   C4B 6512  16.512   6.479   7.799 -0.2328  0.0290 -0.1027
  408loPI    C1 6513   4.643  13.149   9.748  0.0581 -0.1313 -0.2404
  408loPI    C2 6514   4.486  13.486   9.599 -0.3183 -0.2229 -0.0638
  408loPI    C3 6515   4.881  13.424   9.582 -0.2003  0.3848  0.2102
  408loPI   PO4 6516   4.578  12.985   9.635 -0.0735 -0.0736 -0.1168
  408loPI   GL1 6517   4.561  12.813   9.228 -0.0672 -0.2624 -0.1022
  408loPI   GL2 6518   4.868  12.929   9.233  0.1270  0.0598 -0.2154
  408loPI   C1A 6519   4.374  13.053   8.803  0.2860  0.1879  0.1212
  408loPI   C2A 6520   4.293  13.064   8.426 -0.0594  0.0546  0.3917
  408loPI   C3A 6521   4.150  13.204   7.988  0.1449 -0.0477  0.2686
  408loPI   C4A 6522   4.323  13.350   7.636 -0.1034  0.0550 -0.0969
  408loPI   C5A 6523   4.645  13.673   7.499 -0.4307  0.0252  0.0455
  408loPI   C6A 6524   4.832  14.108   7.469 -0.0453  0.2558  0.2927
  408loPI   C1B 6525   4.756  13.328   9.023  0.2226  0.0887  0.1247
  408loPI   C2B 6526   4.767  13.291   8.653  0.0954  0.1237 -0.0467
  408loPI   C3B 6527   5.068  13.248   8.221  0.1348 -0.1770 -0.0481
  408loPI   C4B 6528   5.001  13.280   7.724  0.0270 -0.0926 -0.0288
  409loPI    C1 6529   9.673   3.002  10.040 -0.0102  0.1456 -0.1843
  409loPI    C2 6530   9.623   3.396   9.997 -0.2340  0.1709  0.2469
  409loPI    C3 6531   9.859   3.255  10.288 -0.1029 -0.0152  0.0535
  409loPI   PO4 6532   9.744   2.948   9.780 -0.0042  0.1919 -0.2124
  409loPI   GL1 6533   9.391   2.804   9.408  0.1402  0.2170  0.0163
  409loPI   GL2 6534   9.093   2.494   9.332  0.2477  0.2368 -0.0704
  409loPI   C1A 6535   9.455   2.913   8.978  0.0552 -0.2605  0.0723
  409loPI   C2A 6536   9.220   2.918   8.613 -0.1593  0.1612 -0.4943
  409loPI   C3A 6537   8.966   2.967   8.250  0.0334  0.2236 -0.0290
  409loPI   C4A 6538   8.571   2.960   8.104 -0.0811  0.2774 -0.0098
  409loPI   C5A 6539   8.106   2.938   7.925 -0.2113  0.1317  0.0538
  409loPI   C6A 6540   7.651   2.865   8.118 -0.0576  0.3116  0.0726
  409loPI   C1B 6541   8.933   2.801   8.987  0.0545  0.2113 -0.1871
  409loPI   C2B 6542   8.824   3.171   8.779 -0.0738 -0.1568 -0.0028
  409loPI   C3B 6543   8.518   3.125   8.604  0.3273 -0.0645  0.0240
  409loPI   C4B 6544   8.239   2.814   8.435 -0.3183 -0.0259 -0.1180
  410loPI    C1 6545  12.992   2.685  10.011 -0.0266  0.0966 -0.1930
  410loPI    C2 6546  13.056   2.545  10.381 -0.0446 -0.0698 -0.2519
  410loPI    C3 6547  12.967   2.931  10.325  0.2712  0.0261 -0.1109
  410loPI   PO4 6548  13.175   2.634   9.760  0.1743 -0.0031 -0.2637
  410loPI   GL1 6549  13.438   2.811   9.436  0.0718  0.2621  0.3589
  410loPI   GL2 6550  13.376   3.139   9.390 -0.1941  0.1510 -0.1663
  410loPI   C1A 6551  13.281   2.699   8.997  0.1970  0.0737  0.3110
  410loPI   C2A 6552  13.321   2.800   8.564 -0.0311  0.1876 -0.2250
  410loPI   C3A 6553  13.321   3.069   8.190  0.3487  0.3228  0.2130
  410loPI   C4A 6554  13.331   3.321   7.846  0.3172  0.0255 -0.0736
  410loPI   C5A 6555  13.567   3.619   7.535  0.2696 -0.0169 -0.2439
  410loPI   C6A 6556  13.718   3.889   7.146 -0.2607  0.4993 -0.0135
  410loPI   C1B 6557  13.300   3.213   8.863  0.3075 -0.2433  0.2462
  410loPI   C2B 6558  13.362   3.530   8.604 -0.4164 -0.0004  0.0320
  410loPI   C3B 6559  13.471   3.657   8.176  0.1518  0.0615 -0.1299
  410loPI   C4B 6560  13.493   4.012   7.868  0.0764 -0.0602 -0.1172
  411loPI    C1 6561  14.776   8.902  10.225  0.0175 -0.0222  0.1163
  411loPI    C2 6562  14.921   9.052   9.884 -0.1317  0.0520  0.0847
  411loPI    C3 6563  14.970   9.251  10.228 -0.0403  0.0103  0.0960
  411loPI   PO4 6564  14.696   8.656  10.100 -0.1504 -0.0791  0.2434
  411loPI   GL1 6565  14.828   8.461   9.677  0.2264 -0.1928 -0.2093
  411loPI   GL2 6566  14.469   8.604   9.481 -0.1866  0.3025 -0.0540
  411loPI   C1A 6567  15.091   8.370   9.364 -0.2489 -0.1696  0.0621
  411loPI   C2A 6568  15.087   8.182   8.922 -0.2952  0.0889 -0.1568
  411loPI   C3A 6569  14.948   7.994   8.457 -0.5139 -0.0594  0.0688
  411loPI   C4A 6570  14.911   7.886   8.036 -0.0749 -0.1376 -0.1435
  411loPI   C5A 6571  14.761   8.005   7.699  0.0043 -0.1983  0.0673
  411loPI   C6A 6572  14.649   8.039   7.265  0.1372 -0.1011  0.0235
  411loPI   C1B 6573  14.626   8.367   9.215  0.0671 -0.0617  0.1892
  411loPI   C2B 6574  14.618   8.267   8.721 -0.3126 -0.0505  0.0159
  411loPI   C3B 6575  14.525   8.204   8.207 -0.1791  0.2255 -0.1682
  411loPI   C4B 6576  14.340   7.854   7.971  0.3253 -0.3328  0.0931
  412loPI    C1 6577  15.728   5.321  10.306  0.2010  0.0221  0.0208
  412loPI    C2 6578  15.627   5.224  10.681 -0.0524 -0.0445 -0.0624
  412loPI    C3 6579  15.695   5.607  10.584 -0.1687 -0.0052  0.0096
  412loPI   PO4 6580  15.947   5.159  10.203 -0.1376 -0.1742  0.0041
  412loPI   GL1 6581  15.951   5.143   9.811  0.0681 -0.2439 -0.2898
  412loPI   GL2 6582  16.071   4.891   9.740 -0.3597 -0.1043 -0.2884
  412loPI   C1A 6583  15.792   5.100   9.328 -0.2627 -0.1109  0.2239
  412loPI   C2A 6584  15.759   4.909   8.975  0.0475  0.0912  0.2460
  412loPI   C3A 6585  15.791   5.032   8.575  0.1182  0.0822 -0.0722
  412loPI   C4A 6586  15.573   5.232   8.231 -0.1360  0.2619  0.0993
  412loPI   C5A 6587  15.331   5.416   7.885  0.0579  0.1833 -0.0459
  412loPI   C6A 6588  15.312   5.177   7.390  0.2422 -0.3190 -0.1877
  412loPI   C1B 6589  16.342   5.042   9.305  0.2270 -0.3449 -0.1975
  412loPI   C2B 6590  16.230   5.055   8.946  0.3356 -0.0206  0.0724
  412loPI   C3B 6591  16.285   5.044   8.522 -0.0260 -0.1097 -0.2306
  412loPI   C4B 6592  16.129   5.256   8.171  0.4754  0.2843  0.0350
  413loPI    C1 6593   9.594   8.275  10.264 -0.1656 -0.1077 -0.1580
  413loPI    C2 6594   9.429   8.063  10.561  0.0745  0.1006  0.1305
  413loPI    C3 6595   9.695   8.350  10.644  0.3032  0.0223 -0.3017
  413loPI   PO4 6596   9.557   8.170  10.100 -0.2978 -0.1355 -0.2643
  413loPI   GL1 6597   9.377   8.226   9.763  0.1458  0.1183  0.1266
  413loPI   GL2 6598   9.313   7.892   9.795 -0.0429 -0.1182 -0.1158
  413loPI   C1A 6599   9.322   8.283   9.261 -0.0647  0.2651  0.1634
  413loPI   C2A 6600   9.282   8.319   8.785 -0.2944  0.0759  0.1287
  413loPI   C3A 6601   9.410   8.282   8.262 -0.1728 -0.2486  0.2025
  413loPI   C4A 6602   9.509   7.981   7.939  0.1220  0.0795  0.1686
  413loPI   C5A 6603   9.458   7.568   7.788  0.0797  0.0939  0.3702
  413loPI   C6A 6604   9.260   7.143   7.807 -0.2235 -0.3627 -0.2237
  413loPI   C1B 6605   9.380   7.803   9.441 -0.2229 -0.0572 -0.1055
  413loPI   C2B 6606   9.158   7.756   9.090  0.0490 -0.0074  0.1388
  413loPI   C3B 6607   9.019   7.758   8.546 -0.0732  0.0284 -0.1342
  413loPI   C4B 6608   9.065   7.907   8.157 -0.1689 -0.0187 -0.1428
  414loPI    C1 6609   0.820  14.237   9.395 -0.2047  0.2870 -0.1159
  414loPI    C2 6610   0.869  13.974   9.692 -0.1873  0.1580 -0.2317
  414loPI    C3 6611   1.111  14.291   9.663 -0.1268  0.1183 -0.1652
  414loPI   PO4 6612   0.897  14.083   9.165 -0.0373  0.0127  0.3064
  414loPI   GL1 6613   1.173  14.068   8.796 -0.0240  0.0706  0.1128
  414loPI   GL2 6614   1.569  13.934   8.788  0.4318  0.0565 -0.1942
  414loPI   C1A 6615   1.112  13.710   8.521  0.2593  0.0090  0.0215
  414loPI   C2A 6616   1.089  13.580   8.072  0.0703  0.2545  0.1461
  414loPI   C3A 6617   1.272  13.500   7.639  0.2735  0.1604 -0.2940
  414loPI   C4A 6618   1.330  13.448   7.225 -0.2456  0.0351  0.1385
  414loPI   C5A 6619   1.477  13.702   6.888 -0.0156 -0.3910  0.1217
  414loPI   C6A 6620   1.500  14.050   6.697  0.2068  0.2186  0.1969
  414loPI   C1B 6621   1.572  13.951   8.383  0.1920  0.1660  0.4035
  414loPI   C2B 6622   1.483  13.852   7.942  0.0636  0.0509  0.2202
  414loPI   C3B 6623   1.247  13.998   7.506 -0.1427 -0.1291  0.2746
  414loPI   C4B 6624   0.828  13.973   7.319  0.0995  0.1230 -0.1248
  415loPI    C1 6625   0.659  10.011   9.806  0.1792  0.0568  0.1063
  415loPI    C2 6626   0.815   9.643   9.800 -0.0805 -0.0566  0.1872
  415loPI    C3 6627   0.754   9.829  10.149  0.1545  0.1105  0.1418
  415loPI   PO4 6628   0.660  10.030   9.467 -0.1331 -0.2072 -0.3975
  415loPI   GL1 6629   0.982   9.985   9.213 -0.0886 -0.2203  0.1789
  415loPI   GL2 6630   1.315  10.114   9.228  0.1099 -0.1168 -0.1600
  415loPI   C1A 6631   0.827   9.867   8.857 -0.1734  0.0548  0.3800
  415loPI   C2A 6632   0.740   9.737   8.362 -0.1723  0.0124  0.0469
  415loPI   C3A 6633   0.774   9.730   7.833 -0.2865 -0.1494 -0.1123
  415loPI   C4A 6634   0.580   9.747   7.332 -0.2065 -0.1826  0.0609
  415loPI   C5A 6635   0.301   9.872   6.962 -0.1100 -0.0798 -0.0254
  415loPI   C6A 6636  -0.065   9.890   6.878 -0.2857  0.2548  0.1836
  415loPI   C1B 6637   1.266  10.253   8.797 -0.1485 -0.0355  0.0333
  415loPI   C2B 6638   1.129  10.223   8.237 -0.4057  0.4481 -0.2681
  415loPI   C3B 6639   1.065  10.165   7.841 -0.2438  0.1204 -0.0132
  415loPI   C4B 6640   0.811  10.399   7.619 -0.2098  0.0620 -0.2350
  416loPI    C1 6641  17.624   6.838   9.942 -0.1583 -0.1297  0.2299
  416loPI    C2 6642  17.441   7.075  10.207 -0.0024  0.0979  0.1367
  416loPI    C3 6643  17.834   7.007  10.238  0.0885  0.4148 -0.2387
  416loPI   PO4 6644  17.601   7.018   9.733 -0.0858 -0.2662  0.3492
  416loPI   GL1 6645  17.808   7.084   9.409 -0.0135  0.2407 -0.2767
  416loPI   GL2 6646  17.807   7.383   9.260 -0.0643 -0.2730 -0.1805
  416loPI   C1A 6647  17.532   6.917   9.142 -0.1128 -0.1142  0.2852
  416loPI   C2A 6648  17.614   6.778   8.675 -0.1482 -0.0512  0.1125
  416loPI   C3A 6649  17.572   6.905   8.250 -0.1932  0.2702  0.1402
  416loPI   C4A 6650  17.622   7.224   7.953  0.2413  0.1895  0.0629
  416loPI   C5A 6651  17.875   7.216   7.506 -0.3238  0.0237  0.0378
  416loPI   C6A 6652  17.660   7.017   7.031 -0.1704  0.0953  0.2328
  416loPI   C1B 6653  17.680   7.270   8.811  0.0830  0.0760  0.2425
  416loPI   C2B 6654  17.723   7.359   8.460 -0.0673  0.0520  0.2494
  416loPI   C3B 6655  17.586   7.651   8.093 -0.0678 -0.0582 -0.1207
  416loPI   C4B 6656  17.315   8.014   7.947 -0.1640  0.0591  0.0721
  417loPI    C1 6657   2.519  10.389   9.821  0.0487 -0.0344  0.1810
  417loPI    C2 6658   2.407  10.065  10.027 -0.0060 -0.0775  0.0843
  417loPI    C3 6659   2.489  10.406  10.219 -0.1562 -0.0884  0.1689
  417loPI   PO4 6660   2.377  10.412   9.563  0.1242  0.0329 -0.1714
  417loPI   GL1 6661   2.315  10.483   9.158 -0.3076 -0.0025 -0.0724
  417loPI   GL2 6662   2.166  10.813   9.003 -0.0994  0.0487 -0.0646
  417loPI   C1A 6663   2.431  10.503   8.683 -0.2170 -0.2306  0.1494
  417loPI   C2A 6664   2.544  10.610   8.270 -0.0623 -0.2193 -0.0437
  417loPI   C3A 6665   2.613  10.614   7.825 -0.2349  0.3113 -0.0074
  417loPI   C4A 6666   2.582  10.665   7.371  0.1600 -0.0405 -0.2507
  417loPI   C5A 6667   2.186  10.859   7.194  0.0568  0.1685  0.0075
  417loPI   C6A 6668   2.063  11.079   6.947  0.1024  0.1588 -0.0215
  417loPI   C1B 6669   1.965  10.406   8.820  0.0825  0.3801 -0.0636
  417loPI   C2B 6670   1.630  10.443   8.481 -0.2157  0.1231  0.0177
  417loPI   C3B 6671   1.707  10.452   8.123 -0.1535 -0.0277 -0.3968
  417loPI   C4B 6672   1.720  10.774   7.892  0.1995  0.0277  0.3391
  418loPI    C1 6673   5.531  15.055  10.233 -0.0360 -0.0302  0.1373
  418loPI    C2 6674   5.310  15.332  10.419 -0.0488  0.0831 -0.0430
  418loPI    C3 6675   5.132  15.046  10.203 -0.0208  0.1717 -0.1847
  418loPI   PO4 6676   5.779  15.173  10.117 -0.1592  0.3054 -0.0235
  418loPI   GL1 6677   5.863  15.201   9.776  0.1647  0.1049 -0.0111
  418loPI   GL2 6678   5.579  15.360   9.529 -0.0161  0.2694  0.0264
  418loPI   C1A 6679   6.098  15.127   9.477 -0.2614  0.1517 -0.1458
  418loPI   C2A 6680   6.350  15.162   9.188 -0.1660  0.0359 -0.0473
  418loPI   C3A 6681   6.160  15.334   8.733 -0.1387 -0.1346  0.0827
  418loPI   C4A 6682   6.103  15.479   8.248  0.2530 -0.2444 -0.1510
  418loPI   C5A 6683   6.058  15.757   7.931 -0.3036  0.1447 -0.1518
  418loPI   C6A 6684   6.260  16.243   7.873 -0.1348 -0.0858 -0.0084
  418loPI   C1B 6685   5.740  15.486   9.247 -0.0939 -0.0119  0.1487
  418loPI   C2B 6686   5.858  15.729   8.853 -0.2998  0.0077  0.2477
  418loPI   C3B 6687   6.317  15.836   8.697 -0.2102 -0.1081  0.1051
  418loPI   C4B 6688   6.406  16.082   8.304 -0.0464  0.1136 -0.3223
  419loPI    C1 6689   9.074  10.038  10.287 -0.1127 -0.4262  0.1822
  419loPI    C2 6690   9.343  10.214  10.525  0.0976  0.0008 -0.3486
  419loPI    C3 6691   8.954  10.299  10.565  0.1133 -0.0539 -0.0600
  419loPI   PO4 6692   9.162  10.056  10.048  0.0726 -0.0616  0.3105
  419loPI   GL1 6693   9.172  10.387   9.693 -0.1511 -0.0778  0.0836
  419loPI   GL2 6694   9.424  10.570   9.510  0.3386 -0.0317 -0.0732
  419loPI   C1A 6695   8.956  10.404   9.341  0.0817 -0.2251 -0.3586
  419loPI   C2A 6696   8.800  10.237   8.963  0.0325 -0.2344  0.2771
  419loPI   C3A 6697   8.814   9.874   8.609 -0.0361 -0.1253  0.0817
  419loPI   C4A 6698   8.882   9.877   8.137 -0.1733  0.0747 -0.0846
  419loPI   C5A 6699   8.829   9.955   7.649 -0.0115 -0.2495  0.0481
  419loPI   C6A 6700   8.871   9.576   7.317 -0.1029  0.0443 -0.0838
  419loPI   C1B 6701   9.295  10.529   9.020 -0.2838 -0.0061 -0.4556
  419loPI   C2B 6702   9.371  10.498   8.544  0.0988  0.1643 -0.0248
  419loPI   C3B 6703   9.667  10.443   8.220  0.3145 -0.3645  0.1495
  419loPI   C4B 6704   9.971  10.522   8.127  0.0073  0.3257  0.2077
  420loPI    C1 6705  15.370  11.557   9.663 -0.1503  0.0470  0.0812
  420loPI    C2 6706  15.033  11.606   9.873 -0.1087 -0.0010  0.1594
  420loPI    C3 6707  15.374  11.512  10.060 -0.0658 -0.0182  0.0731
  420loPI   PO4 6708  15.296  11.460   9.408 -0.0972  0.2953  0.1279
  420loPI   GL1 6709  15.236  11.398   9.054  0.3097  0.1909  0.2656
  420loPI   GL2 6710  15.103  11.715   8.894  0.1572  0.0400 -0.0167
  420loPI   C1A 6711  15.139  11.131   8.722  0.1849  0.2414 -0.2118
  420loPI   C2A 6712  15.134  11.297   8.247 -0.2771  0.0069 -0.0302
  420loPI   C3A 6713  15.081  11.411   7.872 -0.0699 -0.0976 -0.0346
  420loPI   C4A 6714  15.001  11.354   7.442  0.0230 -0.0746 -0.2433
  420loPI   C5A 6715  15.142  11.407   6.978  0.0896  0.0192  0.1330
  420loPI   C6A 6716  15.004  11.283   6.600 -0.1529 -0.0539 -0.2230
  420loPI   C1B 6717  15.184  11.803   8.361  0.0043  0.0489  0.2081
  420loPI   C2B 6718  15.252  12.098   7.977  0.0061 -0.3615 -0.1491
  420loPI   C3B 6719  15.571  12.215   7.717  0.1391 -0.0959  0.1224
  420loPI   C4B 6720  15.922  12.461   7.456  0.1506 -0.0075 -0.1189
  421loPI    C1 6721  13.455  17.248   9.685  0.3096  0.0659 -0.1238
  421loPI    C2 6722  13.265  16.896   9.688  0.2151  0.1173 -0.0009
  421loPI    C3 6723  13.218  17.151   9.993  0.0205  0.3765 -0.2430
  421loPI   PO4 6724  13.379  17.377   9.400  0.0489  0.4792  0.1920
  421loPI   GL1 6725  13.531  17.373   8.943  0.1488 -0.2903  0.0793
  421loPI   GL2 6726  13.678  17.696   8.761 -0.1288  0.1295  0.0568
  421loPI   C1A 6727  13.594  17.270   8.488  0.2389  0.0686  0.0178
  421loPI   C2A 6728  13.612  17.247   8.120 -0.3114 -0.0863 -0.0440
  421loPI   C3A 6729  13.414  17.460   7.664 -0.1088 -0.1552  0.1747
  421loPI   C4A 6730  13.221  17.585   7.153 -0.2568  0.0154 -0.3017
  421loPI   C5A 6731  13.081  17.630   6.743  0.1586 -0.0865  0.2347
  421loPI   C6A 6732  13.179  17.574   6.283 -0.4949 -0.1561 -0.2319
  421loPI   C1B 6733  13.641  17.737   8.307  0.0573 -0.2008  0.2657
  421loPI   C2B 6734  13.641  17.858   7.876  0.1863 -0.4876 -0.2472
  421loPI   C3B 6735  13.628  17.880   7.393  0.0948 -0.1893  0.0858
  421loPI   C4B 6736  13.646  17.860   6.952  0.0724 -0.4248 -0.1595
  422loPI    C1 6737   9.974   5.441  10.186  0.0969  0.1221  0.1839
  422loPI    C2 6738   9.986   5.056  10.295 -0.1081  0.1005  0.1339
  422loPI    C3 6739  10.206   5.326  10.491 -0.0194 -0.0306  0.2165
  422loPI   PO4 6740   9.625   5.480  10.188 -0.0603  0.2740 -0.0036
  422loPI   GL1 6741   9.387   5.723   9.808  0.2940  0.0879 -0.4635
  422loPI   GL2 6742   9.399   5.359   9.756 -0.1764  0.0813  0.1785
  422loPI   C1A 6743   9.269   5.626   9.328 -0.0506  0.1779  0.1511
  422loPI   C2A 6744   9.272   5.771   8.848 -0.0352  0.0994  0.1229
  422loPI   C3A 6745   9.337   6.125   8.486 -0.1054  0.0729  0.1820
  422loPI   C4A 6746   8.980   6.322   8.236 -0.0429 -0.2040 -0.0696
  422loPI   C5A 6747   8.701   6.362   7.836  0.3765 -0.4518  0.4073
  422loPI   C6A 6748   8.345   6.689   7.837  0.0643 -0.0420  0.2939
  422loPI   C1B 6749   9.646   5.323   9.388 -0.1119 -0.2200  0.0658
  422loPI   C2B 6750   9.626   5.430   8.909 -0.0171 -0.0703  0.0085
  422loPI   C3B 6751   9.645   5.590   8.493 -0.0275 -0.0840  0.1273
  422loPI   C4B 6752   9.562   5.769   8.232 -0.1454 -0.1231  0.0210
  423loPI    C1 6753  12.415   0.529   9.653 -0.1126  0.0135  0.1174
  423loPI    C2 6754  12.180   0.273   9.455 -0.1113  0.0593  0.0561
  423loPI    C3 6755  12.397   0.147   9.767 -0.1553 -0.0010  0.0623
  423loPI   PO4 6756  12.632   0.605   9.488  0.2014  0.0086  0.4602
  423loPI   GL1 6757  12.680   0.628   9.114  0.1528  0.2798  0.0584
  423loPI   GL2 6758  12.312   0.725   9.136  0.1099  0.1954  0.0629
  423loPI   C1A 6759  12.609   0.443   8.743 -0.0014  0.1222 -0.0967
  423loPI   C2A 6760  12.607   0.682   8.455  0.5001  0.1497  0.1112
  423loPI   C3A 6761  12.667   0.829   8.018  0.0739  0.0035 -0.1821
  423loPI   C4A 6762  12.829   0.834   7.695 -0.1483  0.3039  0.1334
  423loPI   C5A 6763  13.020   0.430   7.626  0.3819  0.1183  0.0610
  423loPI   C6A 6764  12.939   0.001   7.341  0.1537 -0.1333  0.1677
  423loPI   C1B 6765  12.179   0.735   8.747  0.0536  0.0989 -0.0222
  423loPI   C2B 6766  12.135   0.887   8.261  0.0634  0.4169  0.2627
  423loPI   C3B 6767  12.207   0.960   7.908 -0.2253 -0.1313  0.0096
  423loPI   C4B 6768  12.207   0.805   7.467  0.2165 -0.4789 -0.4328
  424loPI    C1 6769   8.305   8.989  10.367  0.0749 -0.1384  0.0499
  424loPI    C2 6770   7.912   9.057  10.397  0.0623 -0.1466 -0.0888
  424loPI    C3 6771   8.145   9.083  10.721 -0.0558 -0.1633 -0.0018
  424loPI   PO4 6772   8.265   9.031  10.067 -0.0307 -0.0897 -0.1001
  424loPI   GL1 6773   8.004   8.831   9.782  0.1809  0.2586  0.0305
  424loPI   GL2 6774   7.674   8.789   9.655  0.0653  0.1765 -0.0164
  424loPI   C1A 6775   8.018   8.570   9.421 -0.1091 -0.0050 -0.3677
  424loPI   C2A 6776   7.901   8.402   8.985  0.0563  0.2206 -0.2720
  424loPI   C3A 6777   7.876   8.457   8.521 -0.0984 -0.3767  0.1771
  424loPI   C4A 6778   7.497   8.449   8.274  0.0984 -0.1187  0.0580
  424loPI   C5A 6779   7.409   8.411   7.850  0.2457  0.1759 -0.0458
  424loPI   C6A 6780   7.666   8.555   7.483 -0.1113 -0.1676 -0.1178
  424loPI   C1B 6781   7.597   8.710   9.246  0.1532  0.2908 -0.0208
  424loPI   C2B 6782   7.357   8.647   8.833 -0.3491  0.1510 -0.0992
  424loPI   C3B 6783   7.111   8.381   8.700  0.2067 -0.1883  0.2909
  424loPI   C4B 6784   7.136   8.123   8.288  0.1656  0.0361 -0.1121
  425loPI    C1 6785  14.794  17.526   9.519  0.0039 -0.0389 -0.1283
  425loPI    C2 6786  15.017  17.216   9.641 -0.1415 -0.0088  0.2266
  425loPI    C3 6787  15.097  17.585   9.773 -0.0784  0.0818 -0.0575
  425loPI   PO4 6788  14.722  17.486   9.250 -0.0996 -0.0362 -0.1891
  425loPI   GL1 6789  14.476  17.659   8.944 -0.1896  0.0189  0.0535
  425loPI   GL2 6790  14.127  17.599   8.897 -0.3861 -0.3490  0.2096
  425loPI   C1A 6791  14.632  17.817   8.529  0.0142 -0.0035  0.2674
  425loPI   C2A 6792  14.599  17.836   8.194  0.2991  0.2888 -0.0994
  425loPI   C3A 6793  14.658  17.826   7.717  0.0635 -0.1382  0.0609
  425loPI   C4A 6794  14.659  17.778   7.244 -0.0462 -0.0368 -0.0080
  425loPI   C5A 6795  14.829  17.679   6.879  0.0207 -0.2866  0.1859
  425loPI   C6A 6796  14.634  17.451   6.518 -0.0986  0.0895 -0.0118
  425loPI   C1B 6797  14.104  17.599   8.458 -0.1126 -0.1089 -0.0080
  425loPI   C2B 6798  14.041  17.524   7.976 -0.3164 -0.3616  0.1866
  425loPI   C3B 6799  13.922  17.474   7.585 -0.2105 -0.4176 -0.0049
  425loPI   C4B 6800  13.874  17.446   7.108 -0.1132 -0.0862  0.1497
  426loPI    C1 6801  19.166   1.727   9.630  0.1817  0.2262  0.2563
  426loPI    C2 6802  18.865   1.989   9.655 -0.0194 -0.0090  0.3375
  426loPI    C3 6803  18.905   1.703   9.932  0.1484 -0.1169  0.2040
  426loPI   PO4 6804  19.245   1.781   9.306  0.1254 -0.3000  0.4003
  426loPI   GL1 6805  19.202   1.826   8.856 -0.2928 -0.0177 -0.1491
  426loPI   GL2 6806  18.825   1.791   8.923  0.0504 -0.4522  0.3515
  426loPI   C1A 6807  19.199   2.029   8.424  0.0827 -0.3442  0.2512
  426loPI   C2A 6808  19.302   2.292   8.010  0.1973 -0.3296  0.4411
  426loPI   C3A 6809  19.489   2.490   7.499  0.2157  0.2430 -0.0666
  426loPI   C4A 6810  19.876   2.704   7.278 -0.2667  0.1416 -0.1792
  426loPI   C5A 6811  20.239   3.133   7.209 -0.0605  0.0382  0.1894
  426loPI   C6A 6812  20.226   3.486   6.999 -0.2086 -0.0705  0.0092
  426loPI   C1B 6813  18.864   1.665   8.526 -0.0377 -0.0558  0.0827
  426loPI   C2B 6814  18.904   1.788   8.073  0.4387 -0.0636 -0.1009
  426loPI   C3B 6815  18.924   1.678   7.766  0.1343  0.2140  0.2868
  426loPI   C4B 6816  19.218   1.636   7.386 -0.0340  0.0588  0.2990
  427loPI    C1 6817  11.235   8.056  10.083  0.0834  0.1463  0.1381
  427loPI    C2 6818  11.496   8.010   9.784 -0.2005  0.0702 -0.1033
  427loPI    C3 6819  11.617   8.161  10.134  0.1902 -0.0784 -0.1691
  427loPI   PO4 6820  10.971   8.116  10.032 -0.2940  0.2996  0.1926
  427loPI   GL1 6821  10.959   8.093   9.557  0.1552 -0.0365 -0.2677
  427loPI   GL2 6822  11.140   7.936   9.475  0.2087  0.3268  0.1004
  427loPI   C1A 6823  10.779   7.903   9.127 -0.3015 -0.0602 -0.0447
  427loPI   C2A 6824  10.586   7.766   8.777  0.0089 -0.2291  0.2326
  427loPI   C3A 6825  10.669   7.515   8.431 -0.0961  0.3425  0.4518
  427loPI   C4A 6826  10.941   7.293   8.172 -0.1677  0.1357 -0.0513
  427loPI   C5A 6827  11.219   7.144   7.839  0.0352 -0.2106 -0.0513
  427loPI   C6A 6828  11.463   7.309   7.497 -0.0697 -0.5835 -0.0904
  427loPI   C1B 6829  11.220   8.025   9.053 -0.3087  0.0562 -0.0799
  427loPI   C2B 6830  11.055   7.962   8.654  0.0246 -0.0030 -0.1082
  427loPI   C3B 6831  10.889   7.964   8.232  0.0220 -0.1456 -0.0390
  427loPI   C4B 6832  10.559   7.734   7.933  0.0707  0.1113  0.2834
  428loPI    C1 6833  17.025  15.193   9.327  0.0800 -0.0117  0.2884
  428loPI    C2 6834  16.949  15.063   9.697  0.2775 -0.2155  0.2597
  428loPI    C3 6835  17.327  15.110   9.575  0.2161 -0.2856  0.0377
  428loPI   PO4 6836  16.799  15.097   9.136 -0.2114  0.2546 -0.0676
  428loPI   GL1 6837  16.915  15.001   8.704  0.2729 -0.2275 -0.0515
  428loPI   GL2 6838  17.012  15.017   8.355  0.1786 -0.3397 -0.1981
  428loPI   C1A 6839  16.513  15.064   8.557  0.1027 -0.0161  0.1285
  428loPI   C2A 6840  16.429  14.978   8.109  0.3741  0.0111 -0.2650
  428loPI   C3A 6841  16.288  14.974   7.604  0.1623 -0.0549 -0.1139
  428loPI   C4A 6842  16.103  15.219   7.300 -0.0249 -0.1526 -0.0149
  428loPI   C5A 6843  15.875  15.421   7.586  0.2098  0.0411 -0.0057
  428loPI   C6A 6844  15.448  15.623   7.676 -0.0117  0.3853  0.3621
  428loPI   C1B 6845  17.209  14.925   7.937 -0.1064 -0.0531 -0.0833
  428loPI   C2B 6846  17.504  15.129   7.734  0.1248 -0.1641 -0.0802
  428loPI   C3B 6847  17.771  14.946   7.513 -0.1129  0.5480  0.2058
  428loPI   C4B 6848  18.209  14.975   7.350  0.1261 -0.1122 -0.0284
  429loPI    C1 6849   1.670   2.049   9.961  0.0885 -0.1854  0.0129
  429loPI    C2 6850   1.436   1.968  10.274 -0.0165 -0.3731 -0.1119
  429loPI    C3 6851   1.512   2.348  10.174 -0.1947 -0.3111 -0.0168
  429loPI   PO4 6852   1.627   1.888   9.773  0.1471  0.0104 -0.1960
  429loPI   GL1 6853   1.655   1.892   9.375 -0.0198 -0.2343 -0.0563
  429loPI   GL2 6854   1.477   2.212   9.468  0.0401 -0.0023 -0.1468
  429loPI   C1A 6855   2.030   1.915   9.217 -0.1168  0.2836 -0.1845
  429loPI   C2A 6856   2.232   1.774   8.719  0.0960 -0.3229  0.0891
  429loPI   C3A 6857   2.330   1.642   8.274 -0.1649 -0.0912 -0.4478
  429loPI   C4A 6858   2.272   1.645   7.884  0.3723  0.2963  0.0988
  429loPI   C5A 6859   1.961   1.507   7.649 -0.1771  0.1381 -0.0585
  429loPI   C6A 6860   1.868   1.086   7.603  0.3112 -0.0093 -0.2053
  429loPI   C1B 6861   1.617   2.182   8.973 -0.0152  0.0947  0.0316
  429loPI   C2B 6862   1.646   2.223   8.500  0.2316 -0.1285  0.3848
  429loPI   C3B 6863   1.594   2.366   8.122 -0.3093  0.0712  0.2990
  429loPI   C4B 6864   1.943   2.569   8.051 -0.2064 -0.0359  0.0766
  430loPI    C1 6865  18.067  18.836   9.019  0.0543  0.1190 -0.1240
  430loPI    C2 6866  18.184  19.214   8.963 -0.0813  0.1766 -0.0228
  430loPI    C3 6867  18.232  19.040   9.320  0.0986  0.0547 -0.1047
  430loPI   PO4 6868  17.841  18.796   8.975  0.1174  0.1849 -0.1304
  430loPI   GL1 6869  17.831  19.006   8.619  0.1540  0.2017 -0.3419
  430loPI   GL2 6870  18.022  18.897   8.468 -0.1226  0.1052 -0.0888
  430loPI   C1A 6871  17.708  19.057   8.115 -0.0953 -0.0719  0.0690
  430loPI   C2A 6872  17.889  18.874   7.790  0.5304 -0.0600 -0.0170
  430loPI   C3A 6873  17.915  18.958   7.446  0.1883 -0.0014 -0.1560
  430loPI   C4A 6874  17.989  18.830   7.011 -0.0816  0.0621  0.1738
  430loPI   C5A 6875  17.855  18.545   6.745 -0.4356  0.0237 -0.0786
  430loPI   C6A 6876  17.466  18.427   6.574 -0.0130  0.2751 -0.1587
  430loPI   C1B 6877  18.328  18.696   8.099  0.1215 -0.1632 -0.0537
  430loPI   C2B 6878  18.319  18.761   7.698 -0.0309  0.2446 -0.1786
  430loPI   C3B 6879  18.609  18.942   7.371 -0.0452 -0.1789 -0.3461
  430loPI   C4B 6880  18.964  19.067   7.086  0.2418 -0.0570 -0.3561
  431loPI    C1 6881   5.020  18.072  10.288  0.2551  0.4938 -0.0978
  431loPI    C2 6882   4.723  18.329  10.361  0.0950  0.2789  0.0214
  431loPI    C3 6883   4.989  18.244  10.647 -0.0862  0.0128  0.1148
  431loPI   PO4 6884   4.860  17.956  10.033 -0.0831 -0.1352 -0.0122
  431loPI   GL1 6885   4.755  17.940   9.602  0.1208  0.3025 -0.0300
  431loPI   GL2 6886   5.044  17.989   9.429  0.0729 -0.2134 -0.1131
  431loPI   C1A 6887   4.583  18.216   9.377  0.1853 -0.0985  0.1958
  431loPI   C2A 6888   4.813  18.387   9.020  0.1199 -0.0226  0.1915
  431loPI   C3A 6889   4.956  18.479   8.651  0.1411 -0.0360  0.1179
  431loPI   C4A 6890   4.896  18.620   8.167  0.0101  0.1828 -0.0684
  431loPI   C5A 6891   4.778  18.807   7.829  0.1127 -0.1719 -0.1581
  431loPI   C6A 6892   4.845  19.102   7.478 -0.0437  0.2340  0.1499
  431loPI   C1B 6893   5.254  17.738   9.186  0.2452 -0.1399  0.1590
  431loPI   C2B 6894   5.068  17.571   8.724  0.1259 -0.1746 -0.0515
  431loPI   C3B 6895   4.885  17.590   8.383 -0.0955 -0.0266 -0.1344
  431loPI   C4B 6896   4.920  17.641   7.994  0.0307  0.5774 -0.1200
  432loPI    C1 6897  13.383   3.561  10.027  0.0370  0.1610 -0.0248
  432loPI    C2 6898  13.330   3.165  10.009 -0.0673  0.1730  0.0125
  432loPI    C3 6899  13.316   3.352  10.362  0.3527  0.1599  0.0407
  432loPI   PO4 6900  13.474   3.602   9.844 -0.2448  0.0002 -0.2647
  432loPI   GL1 6901  13.457   3.704   9.397 -0.1713 -0.2227  0.1248
  432loPI   GL2 6902  13.826   3.769   9.418  0.2932  0.1824  0.1839
  432loPI   C1A 6903  13.365   4.134   9.296  0.0513 -0.3184  0.0892
  432loPI   C2A 6904  13.213   4.488   9.309 -0.0149  0.1057 -0.4874
  432loPI   C3A 6905  13.075   4.684   9.041  0.4943 -0.5941 -0.0965
  432loPI   C4A 6906  13.204   4.934   8.795 -0.2414 -0.2670 -0.1840
  432loPI   C5A 6907  13.388   4.792   8.486  0.0546 -0.1533  0.0748
  432loPI   C6A 6908  13.340   4.441   8.194  0.2382  0.0519 -0.1749
  432loPI   C1B 6909  14.112   3.738   8.995  0.0474  0.0745 -0.0655
  432loPI   C2B 6910  14.092   3.643   8.434  0.2619  0.0354 -0.2486
  432loPI   C3B 6911  13.925   3.707   7.991  0.1561 -0.1395  0.1595
  432loPI   C4B 6912  14.060   3.781   7.517 -0.0493 -0.3317  0.1076
  433loPI    C1 6913  10.330   8.599  10.120  0.0479  0.0781 -0.0847
  433loPI    C2 6914  10.469   8.408  10.443  0.0159  0.0977 -0.0593
  433loPI    C3 6915  10.109   8.582  10.453  0.0825  0.2364 -0.0528
  433loPI   PO4 6916  10.566   8.479   9.908 -0.0891 -0.0753  0.1039
  433loPI   GL1 6917  10.569   8.716   9.505 -0.0951 -0.3426  0.3466
  433loPI   GL2 6918  10.722   8.480   9.313  0.2668 -0.0112  0.1149
  433loPI   C1A 6919  10.169   8.796   9.124  0.0187 -0.3420  0.0001
  433loPI   C2A 6920  10.317   8.657   8.711 -0.0707 -0.0406 -0.0686
  433loPI   C3A 6921  10.210   8.663   8.211  0.1704  0.0789  0.1470
  433loPI   C4A 6922  10.161   8.816   7.781 -0.1472 -0.1240 -0.1152
  433loPI   C5A 6923  10.122   8.882   7.416  0.1778  0.1009  0.2624
  433loPI   C6A 6924  10.211   8.682   7.090 -0.1739  0.1313 -0.0533
  433loPI   C1B 6925  10.662   8.355   8.916  0.2388  0.1551  0.3895
  433loPI   C2B 6926  10.535   8.260   8.402  0.1994 -0.3260  0.0696
  433loPI   C3B 6927  10.396   8.188   7.988  0.0596  0.3189 -0.0975
  433loPI   C4B 6928  10.263   8.020   7.669 -0.0312  0.2238 -0.1715
  434loPI    C1 6929   8.547  17.152   9.839 -0.1038 -0.1351  0.0043
  434loPI    C2 6930   8.606  17.547   9.811 -0.0294 -0.1365  0.1334
  434loPI    C3 6931   8.282  17.381   9.645 -0.1861  0.0132  0.2856
  434loPI   PO4 6932   8.788  17.019   9.663 -0.0390  0.0011  0.5597
  434loPI   GL1 6933   8.966  17.101   9.301  0.0875  0.2261  0.4237
  434loPI   GL2 6934   9.282  16.867   9.374 -0.1726  0.1126  0.0114
  434loPI   C1A 6935   8.971  17.161   8.782  0.0064 -0.1836 -0.3533
  434loPI   C2A 6936   9.016  17.153   8.361  0.0623 -0.0880  0.0246
  434loPI   C3A 6937   8.937  17.193   7.971  0.3126  0.0931  0.1218
  434loPI   C4A 6938   8.576  17.029   7.645  0.0072  0.0977  0.0585
  434loPI   C5A 6939   8.511  16.714   7.450 -0.0330  0.2432 -0.2135
  434loPI   C6A 6940   8.649  16.346   7.194 -0.2484 -0.0246  0.0259
  434loPI   C1B 6941   9.313  16.863   9.007  0.0652 -0.0375 -0.0721
  434loPI   C2B 6942   9.303  16.859   8.584  0.2937 -0.0365 -0.3765
  434loPI   C3B 6943   9.164  16.720   8.123 -0.1121 -0.1493  0.4112
  434loPI   C4B 6944   9.190  16.334   7.968  0.2009  0.1113  0.1101
  435loPI    C1 6945   8.013  16.933   9.839  0.0465  0.1522 -0.1719
  435loPI    C2 6946   8.119  16.648  10.099 -0.1486 -0.0726 -0.3354
  435loPI    C3 6947   7.825  16.903  10.191 -0.1802 -0.1169 -0.3129
  435loPI   PO4 6948   7.963  16.709   9.616  0.1250  0.1752 -0.1023
  435loPI   GL1 6949   8.118  16.695   9.237  0.2591  0.0236 -0.1566
  435loPI   GL2 6950   8.325  17.002   9.301  0.0160  0.0615 -0.2503
  435loPI   C1A 6951   8.236  16.703   8.874  0.3092  0.0235  0.2641
  435loPI   C2A 6952   8.108  16.674   8.473  0.2796 -0.3302  0.3131
  435loPI   C3A 6953   8.097  16.451   8.129 -0.0163  0.0767  0.0670
  435loPI   C4A 6954   8.377  16.325   7.766  0.2086  0.3233 -0.0017
  435loPI   C5A 6955   8.808  16.184   7.638  0.2779  0.2378 -0.4622
  435loPI   C6A 6956   9.131  16.405   7.413  0.2259 -0.2198  0.1521
  435loPI   C1B 6957   8.555  17.163   9.057 -0.0688  0.0247  0.1862
  435loPI   C2B 6958   8.445  17.116   8.661 -0.2982  0.2576 -0.2433
  435loPI   C3B 6959   8.479  17.006   8.238  0.3256 -0.2206  0.0855
  435loPI   C4B 6960   8.204  16.782   7.830  0.0809  0.3743  0.0384
  436loPI    C1 6961  11.355  11.801  10.400  0.1940  0.0652  0.0596
  436loPI    C2 6962  11.160  11.510  10.594 -0.0595  0.1837 -0.0131
  436loPI    C3 6963  11.540  11.593  10.687  0.0021 -0.1421  0.0357
  436loPI   PO4 6964  11.346  11.750  10.171 -0.0365  0.0579 -0.1448
  436loPI   GL1 6965  11.394  11.466   9.924  0.0016 -0.0543 -0.0216
  436loPI   GL2 6966  11.652  11.635   9.701 -0.0569  0.1167  0.0693
  436loPI   C1A 6967  11.274  11.365   9.469 -0.4221  0.2145  0.1256
  436loPI   C2A 6968  11.431  11.521   9.088 -0.0816 -0.0936  0.0462
  436loPI   C3A 6969  11.490  11.751   8.658 -0.1832 -0.0663 -0.1032
  436loPI   C4A 6970  11.323  11.684   8.317 -0.3975  0.2042  0.1321
  436loPI   C5A 6971  11.179  11.338   8.016  0.1685 -0.3422  0.0595
  436loPI   C6A 6972  10.799  11.379   7.907 -0.0114 -0.3015  0.1629
  436loPI   C1B 6973  11.677  11.906   9.335 -0.1754 -0.1154 -0.1329
  436loPI   C2B 6974  11.878  12.092   8.961  0.2213 -0.2001  0.2894
  436loPI   C3B 6975  11.798  12.237   8.544 -0.1005  0.1514 -0.0514
  436loPI   C4B 6976  11.514  12.289   8.166 -0.0568  0.0369  0.1971
  437loPI    C1 6977   7.829   1.313  10.269 -0.4985  0.0513  0.1136
  437loPI    C2 6978   8.169   1.479  10.398 -0.1682 -0.1678 -0.4410
  437loPI    C3 6979   7.835   1.515  10.614  0.2458 -0.1214  0.2193
  437loPI   PO4 6980   7.829   1.372   9.977  0.0546  0.0659  0.0224
  437loPI   GL1 6981   7.961   1.489   9.553  0.1017  0.1766  0.2677
  437loPI   GL2 6982   7.555   1.488   9.523  0.1635 -0.0283 -0.2601
  437loPI   C1A 6983   7.852   1.914   9.356 -0.0052 -0.3063 -0.0334
  437loPI   C2A 6984   7.866   1.977   8.815 -0.0154 -0.0179 -0.1346
  437loPI   C3A 6985   7.811   1.954   8.333  0.2816  0.1114  0.2045
  437loPI   C4A 6986   7.430   1.869   8.031  0.2080  0.0276 -0.2444
  437loPI   C5A 6987   7.376   1.663   7.583  0.3401 -0.4519  0.3696
  437loPI   C6A 6988   7.147   1.730   7.219 -0.2415 -0.0727  0.0022
  437loPI   C1B 6989   7.737   1.510   9.063  0.0599 -0.1876  0.0411
  437loPI   C2B 6990   7.629   1.482   8.520 -0.1213  0.1333  0.2766
  437loPI   C3B 6991   7.423   1.404   8.128 -0.0581 -0.1011 -0.0743
  437loPI   C4B 6992   6.960   1.327   7.842  0.2569 -0.2470 -0.0944
  438loPI    C1 6993  15.425  17.575   9.416 -0.0583  0.1535 -0.0846
  438loPI    C2 6994  15.762  17.774   9.335  0.0393 -0.0070 -0.0772
  438loPI    C3 6995  15.619  17.767   9.708  0.0853 -0.0259 -0.0599
  438loPI   PO4 6996  15.246  17.562   9.249 -0.0768  0.1114  0.0313
  438loPI   GL1 6997  15.044  17.245   8.919  0.2928  0.0152 -0.0004
  438loPI   GL2 6998  14.967  17.524   8.808  0.0957 -0.0308  0.1916
  438loPI   C1A 6999  14.958  17.152   8.479  0.0057  0.0549  0.1468
  438loPI   C2A 7000  14.592  17.299   8.313  0.1039  0.1703  0.0072
  438loPI   C3A 7001  14.535  17.346   7.880 -0.1261  0.1246 -0.1429
  438loPI   C4A 7002  14.375  17.400   7.380 -0.1571  0.0684  0.2436
  438loPI   C5A 7003  14.388  17.449   6.967  0.0299  0.0694  0.1329
  438loPI   C6A 7004  14.252  17.769   6.712 -0.1528 -0.2709 -0.0407
  438loPI   C1B 7005  15.054  17.600   8.347  0.0416 -0.1925  0.0724
  438loPI   C2B 7006  15.002  17.706   8.024  0.1231 -0.1662 -0.0385
  438loPI   C3B 7007  15.201  17.920   7.727  0.1225 -0.0080 -0.0598
  438loPI   C4B 7008  15.316  18.289   7.630  0.1283  0.0480  0.0763
  439loPI    C1 7009   8.331   6.744  10.900 -0.1186  0.0139  0.1303
  439loPI    C2 7010   8.432   6.603  11.260 -0.1473  0.0066  0.1355
  439loPI    C3 7011   8.376   6.351  10.955  0.1856  0.0345  0.0476
  439loPI   PO4 7012   8.102   6.814  10.864  0.0839  0.0670 -0.0415
  439loPI   GL1 7013   7.963   6.933  10.486 -0.1098  0.0485  0.0701
  439loPI   GL2 7014   7.695   7.042  10.475 -0.0745  0.0164  0.0307
  439loPI   C1A 7015   7.941   6.898   9.983  0.1927 -0.0791  0.0821
  439loPI   C2A 7016   7.960   6.964   9.511  0.1132 -0.2123  0.2773
  439loPI   C3A 7017   7.961   6.997   9.055  0.0708 -0.2095  0.0080
  439loPI   C4A 7018   7.872   6.952   8.612 -0.0908 -0.1769 -0.2466
  439loPI   C5A 7019   7.706   7.134   8.240 -0.2327  0.1040  0.1249
  439loPI   C6A 7020   7.709   7.464   8.005  0.1114 -0.3891 -0.1280
  439loPI   C1B 7021   7.466   7.183  10.099  0.1069 -0.0807 -0.0430
  439loPI   C2B 7022   7.468   7.244   9.617  0.1727  0.0344  0.0331
  439loPI   C3B 7023   7.605   7.356   9.252  0.2098 -0.2518  0.1639
  439loPI   C4B 7024   7.248   7.323   8.921  0.0867  0.0763 -0.1160
  440loPI    C1 7025  18.876  11.033   9.926  0.1414  0.2439  0.0582
  440loPI    C2 7026  19.268  11.033  10.009  0.1293 -0.3596  0.1594
  440loPI    C3 7027  19.001  11.057  10.306  0.0849 -0.0389  0.0969
  440loPI   PO4 7028  18.875  10.875   9.683 -0.0589 -0.0259 -0.0737
  440loPI   GL1 7029  18.938  10.778   9.353 -0.0017 -0.1323  0.4329
  440loPI   GL2 7030  18.757  10.920   9.041 -0.1731  0.3378 -0.1953
  440loPI   C1A 7031  19.187  10.698   9.035 -0.1873  0.2199 -0.0278
  440loPI   C2A 7032  19.226  10.780   8.530  0.1146  0.2450 -0.2935
  440loPI   C3A 7033  19.304  10.608   8.204  0.0262  0.0904  0.1134
  440loPI   C4A 7034  19.306  10.584   7.769  0.3535  0.2245  0.0324
  440loPI   C5A 7035  19.180  10.991   7.563 -0.1265  0.1588  0.3130
  440loPI   C6A 7036  19.394  11.426   7.643 -0.1389  0.2748 -0.2291
  440loPI   C1B 7037  18.769  10.731   8.649  0.3621  0.1711  0.0159
  440loPI   C2B 7038  18.817  10.375   8.239  0.1566 -0.1837 -0.1829
  440loPI   C3B 7039  18.603  10.059   8.023  0.3991  0.2449 -0.0378
  440loPI   C4B 7040  18.171   9.916   7.701 -0.0341 -0.1605 -0.0918
  441loPI    C1 7041   4.192   4.504  10.306 -0.1305 -0.1233  0.1157
  441loPI    C2 7042   3.817   4.397  10.217 -0.1453  0.0405 -0.0222
  441loPI    C3 7043   3.963   4.327  10.582 -0.1960 -0.3324 -0.0701
  441loPI   PO4 7044   4.337   4.435  10.049 -0.3349 -0.0511 -0.2405
  441loPI   GL1 7045   4.615   4.440   9.720 -0.0386 -0.1265 -0.1203
  441loPI   GL2 7046   4.575   4.584   9.507  0.0382  0.1317  0.0699
  441loPI   C1A 7047   4.505   4.146   9.295 -0.3300 -0.0894 -0.2577
  441loPI   C2A 7048   4.729   4.006   9.061 -0.0542 -0.0184 -0.2755
  441loPI   C3A 7049   4.666   3.898   8.651  0.0845 -0.0715  0.0284
  441loPI   C4A 7050   5.034   4.049   8.427  0.2093  0.0104 -0.0718
  441loPI   C5A 7051   5.326   3.911   8.262 -0.1633 -0.2142  0.2114
  441loPI   C6A 7052   5.480   3.505   8.327  0.3107  0.0340 -0.0739
  441loPI   C1B 7053   4.784   4.562   9.135 -0.0048 -0.3018 -0.0425
  441loPI   C2B 7054   4.884   4.466   8.663  0.3848  0.0542 -0.1735
  441loPI   C3B 7055   4.999   4.551   8.306 -0.2113  0.1050  0.1278
  441loPI   C4B 7056   5.057   4.313   7.867  0.0850  0.1321  0.0376
  442loPI    C1 7057   0.234  17.399   9.132  0.0276 -0.1120 -0.1041
  442loPI    C2 7058   0.241  17.533   9.509 -0.1389 -0.0028 -0.1387
  442loPI    C3 7059   0.177  17.145   9.436  0.5548 -0.1513 -0.0288
  442loPI   PO4 7060   0.314  17.578   9.030 -0.2477  0.1085 -0.1113
  442loPI   GL1 7061   0.083  17.783   8.738 -0.1910 -0.0528 -0.0527
  442loPI   GL2 7062   0.323  18.065   8.805  0.1515 -0.0868  0.2387
  442loPI   C1A 7063   0.323  17.637   8.337  0.3556 -0.1053 -0.0248
  442loPI   C2A 7064   0.650  17.586   7.994  0.1257 -0.1448  0.0404
  442loPI   C3A 7065   0.876  17.321   7.710 -0.0068  0.3945  0.1713
  442loPI   C4A 7066   0.731  17.022   7.400  0.0401  0.1048 -0.1653
  442loPI   C5A 7067   0.487  17.079   7.081  0.0576 -0.0195  0.1011
  442loPI   C6A 7068   0.703  17.099   6.676 -0.5578 -0.0774  0.0774
  442loPI   C1B 7069   0.480  18.195   8.347  0.0878  0.2982 -0.0839
  442loPI   C2B 7070   0.686  18.242   7.894 -0.1126 -0.0432  0.1504
  442loPI   C3B 7071   0.851  18.132   7.412  0.0878 -0.1236 -0.0163
  442loPI   C4B 7072   1.022  18.097   7.075  0.0714  0.3341 -0.1467
  443loPI    C1 7073   0.188   4.691  10.213  0.2629  0.0483 -0.0118
  443loPI    C2 7074  -0.065   4.970  10.347  0.0444 -0.1604  0.0162
  443loPI    C3 7075   0.240   4.850  10.576  0.1889  0.1125 -0.0292
  443loPI   PO4 7076   0.311   4.737   9.952 -0.2215  0.1279 -0.0071
  443loPI   GL1 7077   0.177   4.811   9.483 -0.4076  0.0072 -0.1503
  443loPI   GL2 7078   0.059   4.508   9.291  0.2370 -0.1043  0.0411
  443loPI   C1A 7079  -0.071   4.951   9.000 -0.1301  0.0964 -0.2280
  443loPI   C2A 7080   0.046   5.076   8.528  0.0392 -0.0984 -0.0642
  443loPI   C3A 7081   0.107   5.136   8.091  0.1974 -0.2109  0.0105
  443loPI   C4A 7082   0.011   4.957   7.733 -0.0908 -0.0104  0.0019
  443loPI   C5A 7083   0.336   4.744   7.444  0.2506 -0.1392 -0.1497
  443loPI   C6A 7084   0.719   4.635   7.323 -0.0496 -0.4644  0.1283
  443loPI   C1B 7085   0.044   4.261   8.844 -0.1726  0.0403 -0.1208
  443loPI   C2B 7086  -0.043   4.144   8.521 -0.2756 -0.3290 -0.1344
  443loPI   C3B 7087  -0.080   4.222   8.183  0.0997  0.1208 -0.0144
  443loPI   C4B 7088  -0.294   4.108   7.744 -0.1105 -0.0241  0.0497
  444loPI    C1 7089  13.833  12.199   9.998  0.0962 -0.1627  0.3125
  444loPI    C2 7090  13.734  12.575  10.095  0.0372 -0.1089  0.0511
  444loPI    C3 7091  13.745  12.292  10.377  0.0091  0.0729  0.2368
  444loPI   PO4 7092  13.684  12.186   9.729 -0.1345 -0.1838  0.1396
  444loPI   GL1 7093  13.746  12.095   9.216 -0.0535  0.1608  0.0616
  444loPI   GL2 7094  13.535  12.338   9.240 -0.3426 -0.0468  0.0912
  444loPI   C1A 7095  13.532  11.821   8.968 -0.1031 -0.0752 -0.0810
  444loPI   C2A 7096  13.455  11.615   8.651  0.0653  0.0487 -0.2438
  444loPI   C3A 7097  13.315  11.561   8.280  0.4251  0.1901 -0.1507
  444loPI   C4A 7098  13.288  11.284   7.986 -0.1075 -0.0200 -0.1106
  444loPI   C5A 7099  13.365  11.287   7.665  0.0665 -0.0181 -0.0618
  444loPI   C6A 7100  13.337  10.911   7.279 -0.0414 -0.1383 -0.1235
  444loPI   C1B 7101  13.573  12.313   8.771 -0.1408  0.2583 -0.1802
  444loPI   C2B 7102  13.523  12.378   8.253 -0.1726 -0.1155  0.0502
  444loPI   C3B 7103  13.676  12.162   7.870  0.1511  0.1501 -0.5450
  444loPI   C4B 7104  13.669  12.017   7.424  0.0287 -0.0918 -0.1160
  445loPI    C1 7105  16.057  18.182   9.307  0.2369 -0.2387 -0.2575
  445loPI    C2 7106  16.376  18.193   9.548  0.1132 -0.0785 -0.0986
  445loPI    C3 7107  16.041  18.011   9.668  0.1025 -0.1354 -0.2135
  445loPI   PO4 7108  16.254  18.187   9.010 -0.1978  0.1996 -0.0122
  445loPI   GL1 7109  16.180  18.111   8.571 -0.2982 -0.0140 -0.2585
  445loPI   GL2 7110  16.032  17.835   8.478 -0.0812 -0.0051  0.0193
  445loPI   C1A 7111  16.400  18.201   8.180  0.0405  0.0630  0.0891
  445loPI   C2A 7112  16.408  18.143   7.770 -0.2160  0.0602  0.3933
  445loPI   C3A 7113  16.171  18.035   7.415  0.0833 -0.0513 -0.2321
  445loPI   C4A 7114  16.002  18.304   7.102 -0.1416 -0.0428  0.1431
  445loPI   C5A 7115  16.068  18.616   6.792 -0.1823 -0.2598 -0.1392
  445loPI   C6A 7116  16.265  18.615   6.443  0.0147  0.5067  0.1572
  445loPI   C1B 7117  15.974  17.643   8.157 -0.2930 -0.1273  0.0897
  445loPI   C2B 7118  15.962  17.610   7.699 -0.2701 -0.1414 -0.1298
  445loPI   C3B 7119  16.120  17.436   7.323  0.0934 -0.1617  0.0458
  445loPI   C4B 7120  15.915  17.349   6.882  0.0479 -0.0176  0.0071
  446loPI    C1 7121  13.702   6.732  10.362  0.0934  0.3213  0.0082
  446loPI    C2 7122  14.005   6.563  10.562 -0.0587 -0.0800 -0.0904
  446loPI    C3 7123  13.790   6.854  10.733  0.1190 -0.0807  0.1387
  446loPI   PO4 7124  13.871   6.534  10.033 -0.0151  0.0369  0.0436
  446loPI   GL1 7125  14.109   6.638   9.641  0.0716 -0.1340 -0.0034
  446loPI   GL2 7126  14.166   6.324   9.733  0.2982 -0.1602 -0.1688
  446loPI   C1A 7127  14.147   6.452   9.259  0.3696  0.0252 -0.1159
  446loPI   C2A 7128  14.469   6.325   9.002 -0.2041 -0.1275  0.1428
  446loPI   C3A 7129  14.500   6.184   8.626  0.4073 -0.2272  0.1864
  446loPI   C4A 7130  14.507   6.046   8.127  0.2536 -0.3308  0.1658
  446loPI   C5A 7131  14.682   6.206   7.769 -0.0324  0.0876  0.0383
  446loPI   C6A 7132  14.370   6.281   7.589 -0.2544  0.1187  0.0428
  446loPI   C1B 7133  14.404   6.039   9.506  0.1664  0.0410 -0.1816
  446loPI   C2B 7134  14.586   5.789   9.269  0.0262 -0.4451 -0.0372
  446loPI   C3B 7135  14.422   5.775   8.907  0.1290  0.0794  0.2076
  446loPI   C4B 7136  14.376   5.643   8.521 -0.1150  0.0599 -0.0006
  447loPI    C1 7137  10.583  15.200   9.896  0.0822 -0.1976 -0.2025
  447loPI    C2 7138  10.578  15.578  10.027  0.1211 -0.1986 -0.1984
  447loPI    C3 7139  10.243  15.410   9.888  0.2193  0.0200 -0.7202
  447loPI   PO4 7140  10.715  15.030   9.684 -0.1536  0.1101 -0.1495
  447loPI   GL1 7141  10.616  14.957   9.206 -0.2546 -0.1635  0.0764
  447loPI   GL2 7142  10.915  15.091   9.257  0.2316  0.2567  0.0185
  447loPI   C1A 7143  10.536  14.916   8.702 -0.3364  0.2448  0.0009
  447loPI   C2A 7144  10.555  14.927   8.238  0.0477 -0.3401 -0.0387
  447loPI   C3A 7145  10.691  15.035   7.833  0.0236  0.0154 -0.0573
  447loPI   C4A 7146  10.507  15.305   7.502  0.0728  0.0982  0.5316
  447loPI   C5A 7147  10.554  15.577   7.108 -0.0585 -0.0175  0.3932
  447loPI   C6A 7148  10.868  15.683   6.867  0.0413 -0.0298 -0.1487
  447loPI   C1B 7149  10.927  15.188   8.823  0.1043  0.1675  0.1526
  447loPI   C2B 7150  10.913  15.226   8.435 -0.0829 -0.0884  0.0629
  447loPI   C3B 7151  11.032  15.496   8.116  0.1399 -0.1443  0.0379
  447loPI   C4B 7152  10.904  15.564   7.711  0.2016 -0.0965  0.1237
  448loPI    C1 7153  13.681   2.798   9.901  0.1127 -0.1389  0.0815
  448loPI    C2 7154  13.891   2.691  10.225 -0.0098 -0.1579  0.1554
  448loPI    C3 7155  13.561   2.488  10.124 -0.1455  0.0397  0.1955
  448loPI   PO4 7156  13.860   2.794   9.675 -0.2642  0.0811  0.1103
  448loPI   GL1 7157  13.886   3.097   9.210 -0.0929  0.2732 -0.0286
  448loPI   GL2 7158  13.807   3.378   9.177  0.0712 -0.0336  0.0458
  448loPI   C1A 7159  13.838   2.843   8.879 -0.1014  0.0830 -0.0720
  448loPI   C2A 7160  13.796   2.676   8.472  0.3143 -0.0915  0.0412
  448loPI   C3A 7161  13.613   2.575   8.100  0.3171  0.1951 -0.0569
  448loPI   C4A 7162  13.472   2.364   7.794  0.1029 -0.0700 -0.1418
  448loPI   C5A 7163  13.057   2.279   7.463 -0.0783  0.0025  0.0385
  448loPI   C6A 7164  12.859   1.901   7.207  0.0255  0.3666 -0.3049
  448loPI   C1B 7165  13.855   3.369   8.742  0.0964  0.0003 -0.0967
  448loPI   C2B 7166  13.778   3.224   8.372  0.1750  0.1332 -0.2372
  448loPI   C3B 7167  13.784   3.168   7.962 -0.0417  0.0540 -0.0885
  448loPI   C4B 7168  13.919   3.324   7.657 -0.0439 -0.0051  0.1458
  449loPI    C1 7169   3.058   6.789  10.723 -0.3501 -0.0286  0.2497
  449loPI    C2 7170   3.307   6.533  10.904 -0.3054 -0.0853  0.1094
  449loPI    C3 7171   2.912   6.484  10.935 -0.2966 -0.2351 -0.0055
  449loPI   PO4 7172   3.200   6.715  10.390 -0.2748  0.2426 -0.1258
  449loPI   GL1 7173   3.190   6.769   9.863  0.0479  0.0937 -0.0583
  449loPI   GL2 7174   3.440   6.577   9.934  0.2293  0.1487 -0.0549
  449loPI   C1A 7175   3.476   7.041   9.543  0.4377  0.1908 -0.2762
  449loPI   C2A 7176   3.661   7.247   9.296 -0.1148  0.4589  0.2132
  449loPI   C3A 7177   3.597   7.101   8.898 -0.0753 -0.2244  0.0385
  449loPI   C4A 7178   3.717   6.813   8.568  0.0567 -0.0328  0.3144
  449loPI   C5A 7179   3.807   6.716   8.102 -0.2457 -0.3026 -0.0707
  449loPI   C6A 7180   3.793   6.896   7.705  0.0458  0.0572 -0.0195
  449loPI   C1B 7181   3.457   6.545   9.482  0.1673  0.0407 -0.3065
  449loPI   C2B 7182   3.771   6.711   9.212  0.0692 -0.0635 -0.1493
  449loPI   C3B 7183   4.097   6.720   8.942 -0.0308  0.0760 -0.2705
  449loPI   C4B 7184   4.200   6.747   8.448  0.1439 -0.3771  0.0543
  450loPI    C1 7185  11.989   6.299  10.230  0.3687  0.0783 -0.1493
  450loPI    C2 7186  12.083   5.911  10.213 -0.0033 -0.0230 -0.0076
  450loPI    C3 7187  12.205   6.133  10.523  0.1738 -0.0344 -0.0676
  450loPI   PO4 7188  11.962   6.387  10.043 -0.0575 -0.3303 -0.2031
  450loPI   GL1 7189  12.070   6.519   9.766  0.0823  0.0582 -0.0820
  450loPI   GL2 7190  12.244   6.843   9.710  0.0699 -0.2266 -0.0203
  450loPI   C1A 7191  12.027   6.374   9.395 -0.2614  0.3357  0.2962
  450loPI   C2A 7192  12.329   6.017   9.231 -0.3135 -0.0400  0.0208
  450loPI   C3A 7193  12.512   5.943   8.795  0.0171 -0.0131 -0.2939
  450loPI   C4A 7194  12.466   5.973   8.379  0.2860  0.0056  0.2079
  450loPI   C5A 7195  12.641   6.068   8.008  0.0360  0.1619 -0.0936
  450loPI   C6A 7196  12.979   6.242   7.619 -0.1686  0.2320 -0.6046
  450loPI   C1B 7197  12.074   6.863   9.220 -0.0569 -0.1079  0.0776
  450loPI   C2B 7198  11.905   6.720   8.803 -0.0159  0.2423 -0.3497
  450loPI   C3B 7199  11.760   6.488   8.480  0.1995 -0.2471  0.2079
  450loPI   C4B 7200  11.645   6.590   8.165 -0.2027 -0.2907  0.0355
  451loPI    C1 7201   2.184  18.530   9.789  0.1909  0.1861 -0.2115
  451loPI    C2 7202   2.403  18.711   9.508  0.3749  0.0456 -0.1607
  451loPI    C3 7203   2.582  18.551   9.828  0.1809  0.0734 -0.0370
  451loPI   PO4 7204   1.941  18.655   9.713  0.0643 -0.2100 -0.2439
  451loPI   GL1 7205   1.840  18.602   9.357 -0.1065 -0.0502  0.2652
  451loPI   GL2 7206   2.017  18.443   9.291 -0.1173  0.2837  0.0106
  451loPI   C1A 7207   1.852  18.854   8.971 -0.1766  0.0058  0.3613
  451loPI   C2A 7208   1.806  19.216   8.681  0.1754  0.0462 -0.0853
  451loPI   C3A 7209   2.245  19.368   8.504  0.2130 -0.0946 -0.0521
  451loPI   C4A 7210   2.498  19.722   8.300  0.3588  0.0408  0.0344
  451loPI   C5A 7211   2.775  19.820   8.028  0.0391 -0.2817 -0.0313
  451loPI   C6A 7212   2.979  20.297   7.863  0.2571  0.2677  0.0311
  451loPI   C1B 7213   2.145  18.449   8.915 -0.0142 -0.0601 -0.2904
  451loPI   C2B 7214   2.360  18.271   8.610  0.4872  0.0939  0.2798
  451loPI   C3B 7215   2.351  18.076   8.255  0.3216  0.0872  0.2383
  451loPI   C4B 7216   2.576  17.977   7.790 -0.0769 -0.1261 -0.0962
  452loPI    C1 7217  15.064  15.376   9.444  0.0170 -0.0738 -0.2540
  452loPI    C2 7218  15.452  15.470   9.469 -0.0403  0.0961  0.0387
  452loPI    C3 7219  15.292  15.205   9.724 -0.1577  0.1726  0.0456
  452loPI   PO4 7220  15.006  15.377   9.263  0.3070  0.3002  0.3041
  452loPI   GL1 7221  14.907  15.564   8.834  0.4404  0.1305 -0.3551
  452loPI   GL2 7222  14.634  15.366   8.824 -0.0476  0.0113 -0.2121
  452loPI   C1A 7223  14.756  15.760   8.427 -0.1953  0.3559 -0.3230
  452loPI   C2A 7224  14.317  15.871   8.209 -0.1629  0.2033 -0.1221
  452loPI   C3A 7225  14.329  15.963   7.793  0.2242 -0.0022  0.0512
  452loPI   C4A 7226  14.308  15.972   7.332 -0.1208  0.2814  0.1245
  452loPI   C5A 7227  14.109  16.037   6.980  0.1142 -0.0325  0.1192
  452loPI   C6A 7228  14.116  16.063   6.611  0.0628  0.0285  0.1796
  452loPI   C1B 7229  14.466  15.340   8.372 -0.4086 -0.1698 -0.0171
  452loPI   C2B 7230  14.521  15.489   8.001 -0.0064 -0.0897  0.2537
  452loPI   C3B 7231  14.509  15.469   7.562 -0.0516  0.0763 -0.1958
  452loPI   C4B 7232  14.545  15.407   7.115 -0.1692 -0.1598  0.2390
  453loPI    C1 7233  11.660  14.448   9.469  0.0108 -0.1215 -0.1888
  453loPI    C2 7234  11.653  14.515   9.864 -0.4543  0.1924 -0.2420
  453loPI    C3 7235  11.572  14.150   9.721  0.0905 -0.0192 -0.0381
  453loPI   PO4 7236  11.613  14.695   9.399  0.1724  0.0377 -0.1337
  453loPI   GL1 7237  11.654  14.729   9.039 -0.1164 -0.0424  0.0768
  453loPI   GL2 7238  11.799  14.776   8.824 -0.2447 -0.0305 -0.2189
  453loPI   C1A 7239  11.313  14.923   8.714 -0.1212 -0.1263 -0.2661
  453loPI   C2A 7240  11.456  15.024   8.256 -0.0671  0.0012 -0.0261
  453loPI   C3A 7241  11.184  15.128   7.839  0.1155  0.0081  0.1014
  453loPI   C4A 7242  11.285  15.306   7.555 -0.2418 -0.0748 -0.0282
  453loPI   C5A 7243  11.345  15.478   7.098 -0.3637 -0.1545 -0.1277
  453loPI   C6A 7244  11.569  15.549   6.779  0.1309  0.0846  0.0197
  453loPI   C1B 7245  11.852  14.561   8.507 -0.4489  0.0760  0.0719
  453loPI   C2B 7246  11.827  14.698   8.077 -0.2172 -0.1294 -0.0243
  453loPI   C3B 7247  11.750  14.969   7.783  0.3448  0.0840  0.1563
  453loPI   C4B 7248  11.595  15.403   7.955  0.3280  0.0228 -0.0050
  454loPI    C1 7249   7.163  17.381  10.071 -0.0223  0.0033 -0.2268
  454loPI    C2 7250   6.779  17.269  10.061  0.0034 -0.1249  0.1180
  454loPI    C3 7251   6.882  17.614  10.235 -0.0040  0.1406 -0.3878
  454loPI   PO4 7252   7.229  17.301   9.827  0.2278 -0.1733  0.1259
  454loPI   GL1 7253   7.381  17.505   9.427  0.1177  0.0481 -0.2362
  454loPI   GL2 7254   7.335  17.701   9.219 -0.1396  0.0371  0.0086
  454loPI   C1A 7255   7.421  17.197   9.084 -0.2205 -0.2726 -0.2618
  454loPI   C2A 7256   7.554  17.030   8.636 -0.0381 -0.1098 -0.0391
  454loPI   C3A 7257   7.642  16.704   8.338 -0.2802 -0.0013 -0.0913
  454loPI   C4A 7258   7.634  16.484   7.953  0.0028  0.0662 -0.0824
  454loPI   C5A 7259   7.505  16.415   7.548 -0.1633  0.1386  0.0562
  454loPI   C6A 7260   7.640  16.668   7.210  0.1147  0.1081 -0.3147
  454loPI   C1B 7261   7.209  17.847   8.847  0.1185 -0.2429 -0.1863
  454loPI   C2B 7262   7.238  17.910   8.389 -0.1909  0.1377  0.5032
  454loPI   C3B 7263   7.256  17.606   8.020 -0.2738  0.3247 -0.2020
  454loPI   C4B 7264   7.103  17.642   7.602 -0.6325  0.0792  0.1703
  455loPI    C1 7265  15.041  14.308   9.445  0.0672  0.3606  0.1037
  455loPI    C2 7266  14.787  14.032   9.583  0.0938  0.2116 -0.1397
  455loPI    C3 7267  15.075  14.174   9.820  0.0448  0.0720  0.0054
  455loPI   PO4 7268  14.886  14.420   9.289 -0.2306 -0.4279 -0.0043
  455loPI   GL1 7269  15.029  14.413   8.787  0.0514  0.0588 -0.1395
  455loPI   GL2 7270  14.952  14.207   8.532 -0.2074  0.0134  0.0519
  455loPI   C1A 7271  15.268  14.682   8.601 -0.0807  0.1767 -0.0905
  455loPI   C2A 7272  15.510  14.697   8.245  0.2173  0.1217 -0.3894
  455loPI   C3A 7273  15.664  14.724   7.841  0.0158  0.0147 -0.0993
  455loPI   C4A 7274  15.843  14.869   7.475  0.1686  0.1145  0.0457
  455loPI   C5A 7275  16.127  14.796   7.119 -0.0562  0.2160 -0.2929
  455loPI   C6A 7276  16.257  14.455   7.135 -0.2833  0.0095  0.0035
  455loPI   C1B 7277  14.604  14.298   8.324 -0.1116 -0.1011  0.1984
  455loPI   C2B 7278  14.649  14.404   7.955 -0.1578  0.2006 -0.0017
  455loPI   C3B 7279  14.587  14.355   7.520  0.0201 -0.2490 -0.0412
  455loPI   C4B 7280  14.609  14.291   7.025 -0.2579  0.1322  0.1896
  456loPI    C1 7281  10.691   9.497  10.152  0.3220 -0.1601 -0.1660
  456loPI    C2 7282  10.564   9.833  10.328  0.2123 -0.1299 -0.3008
  456loPI    C3 7283  10.937   9.702  10.391  0.1619 -0.1420 -0.0146
  456loPI   PO4 7284  10.615   9.478   9.862  0.0655 -0.3498 -0.1142
  456loPI   GL1 7285  10.779   9.179   9.543 -0.1206 -0.1865 -0.1830
  456loPI   GL2 7286  11.006   9.421   9.574 -0.2245  0.0326 -0.1200
  456loPI   C1A 7287  10.469   9.229   9.297  0.0017  0.4073 -0.2705
  456loPI   C2A 7288  10.365   9.172   8.802 -0.1148  0.0708 -0.0840
  456loPI   C3A 7289  10.048   9.064   8.532 -0.0101 -0.0678  0.1376
  456loPI   C4A 7290   9.977   9.213   8.214  0.0808  0.1821  0.0579
  456loPI   C5A 7291  10.195   9.414   7.939 -0.1632  0.0168 -0.0079
  456loPI   C6A 7292  10.630   9.359   7.881  0.0861  0.0777 -0.0273
  456loPI   C1B 7293  11.020   9.412   9.175 -0.5330 -0.2935  0.1053
  456loPI   C2B 7294  11.056   9.543   8.771 -0.2919 -0.0495 -0.2278
  456loPI   C3B 7295  11.331   9.618   8.398  0.0070 -0.0261 -0.1751
  456loPI   C4B 7296  11.346   9.354   7.986  0.3137 -0.0695  0.3383
  457loPI    C1 7297   6.488  19.135   9.743  0.0103  0.2371  0.0623
  457loPI    C2 7298   6.094  19.191   9.786  0.0222  0.2896  0.1044
  457loPI    C3 7299   6.299  19.409   9.521  0.0166  0.2358  0.0555
  457loPI   PO4 7300   6.697  18.721   9.683  0.4723 -0.1797 -0.0998
  457loPI   GL1 7301   6.687  18.580   9.281 -0.1038 -0.0116  0.0036
  457loPI   GL2 7302   6.591  18.911   9.216  0.1260 -0.4328  0.2211
  457loPI   C1A 7303   6.313  18.612   8.924  0.1611  0.2237 -0.3098
  457loPI   C2A 7304   6.037  18.717   8.531  0.0912 -0.0655 -0.1347
  457loPI   C3A 7305   6.013  18.519   8.184  0.1051  0.2077 -0.0490
  457loPI   C4A 7306   5.731  18.403   7.858  0.1232 -0.1300  0.0609
  457loPI   C5A 7307   5.513  18.593   7.510 -0.1689 -0.1003  0.1647
  457loPI   C6A 7308   5.260  18.715   7.231 -0.0630  0.0859 -0.2419
  457loPI   C1B 7309   6.630  18.927   8.792 -0.2102 -0.2572  0.0272
  457loPI   C2B 7310   6.540  18.758   8.360  0.1337 -0.0462  0.2177
  457loPI   C3B 7311   6.444  18.649   7.844 -0.4077  0.2401 -0.1715
  457loPI   C4B 7312   6.043  18.719   7.614  0.0757  0.2321 -0.2176
  458loPI    C1 7313  11.970  17.344   9.982  0.4982  0.0074  0.1332
  458loPI    C2 7314  12.047  17.664   9.753  0.1114 -0.1256 -0.1953
  458loPI    C3 7315  12.313  17.544  10.027  0.2752  0.4556 -0.0878
  458loPI   PO4 7316  11.839  17.182   9.793 -0.1663 -0.2310  0.0293
  458loPI   GL1 7317  11.796  17.192   9.362 -0.0718  0.3597 -0.2251
  458loPI   GL2 7318  12.133  17.248   9.298  0.3729  0.0101  0.0747
  458loPI   C1A 7319  11.783  17.036   8.902 -0.1823 -0.1418 -0.2317
  458loPI   C2A 7320  11.796  17.123   8.540 -0.1710  0.0021 -0.1875
  458loPI   C3A 7321  11.848  17.017   8.128 -0.1213  0.1873 -0.2303
  458loPI   C4A 7322  11.848  16.851   7.710 -0.0335 -0.3979  0.2277
  458loPI   C5A 7323  12.031  16.831   7.362  0.2385  0.1152  0.0348
  458loPI   C6A 7324  11.957  17.011   7.007  0.0645  0.5217  0.2825
  458loPI   C1B 7325  12.148  17.406   8.894 -0.2258 -0.2637  0.0648
  458loPI   C2B 7326  12.206  17.398   8.363  0.0620 -0.0626  0.0951
  458loPI   C3B 7327  12.156  17.340   7.921 -0.1360 -0.1945  0.2382
  458loPI   C4B 7328  12.285  17.290   7.412  0.1049  0.0949 -0.0921
  459loPI    C1 7329   2.769  18.100   9.971 -0.3410 -0.1258 -0.0274
  459loPI    C2 7330   3.094  17.917  10.115 -0.0651  0.2880 -0.1076
  459loPI    C3 7331   2.746  17.889  10.310  0.0191 -0.1422 -0.0091
  459loPI   PO4 7332   2.847  18.037   9.631 -0.1922  0.0062 -0.1420
  459loPI   GL1 7333   2.928  18.317   9.340  0.1867  0.0489  0.2735
  459loPI   GL2 7334   2.900  18.614   9.431  0.0820  0.2402  0.0444
  459loPI   C1A 7335   2.809  18.280   8.936  0.0092 -0.0336  0.3867
  459loPI   C2A 7336   2.911  18.471   8.621 -0.3060 -0.1497 -0.1198
  459loPI   C3A 7337   2.713  18.346   8.228 -0.0468 -0.0184  0.1192
  459loPI   C4A 7338   2.796  18.707   7.923  0.1518  0.1344 -0.0958
  459loPI   C5A 7339   2.522  18.798   7.557  0.1077  0.1950 -0.0781
  459loPI   C6A 7340   2.301  18.586   7.194 -0.1095 -0.0673 -0.1806
  459loPI   C1B 7341   2.859  18.772   9.051  0.1382 -0.1450 -0.1810
  459loPI   C2B 7342   3.021  19.014   8.606  0.0727  0.2756 -0.2538
  459loPI   C3B 7343   3.230  19.119   8.128 -0.2729  0.2630 -0.0846
  459loPI   C4B 7344   3.080  19.456   7.800  0.2655  0.0529  0.2134
  460loPI    C1 7345   8.711   2.430  10.015 -0.0234 -0.0067 -0.1564
  460loPI    C2 7346   8.731   2.035  10.078 -0.1791  0.0096  0.0037
  460loPI    C3 7347   8.443   2.251  10.252 -0.1652  0.1766 -0.1770
  460loPI   PO4 7348   8.658   2.467   9.682 -0.0078  0.1061 -0.1987
  460loPI   GL1 7349   8.602   2.521   9.213 -0.1421  0.3264  0.0430
  460loPI   GL2 7350   8.650   2.347   8.919  0.0480  0.2206  0.0563
  460loPI   C1A 7351   8.426   2.784   8.958 -0.0846  0.0831  0.5021
  460loPI   C2A 7352   8.015   2.818   8.860  0.0545 -0.1300 -0.0702
  460loPI   C3A 7353   7.672   2.972   8.607  0.2950  0.3378  0.1921
  460loPI   C4A 7354   7.269   2.846   8.454 -0.0989 -0.0411 -0.1064
  460loPI   C5A 7355   7.095   2.824   8.035 -0.0162  0.2578 -0.0491
  460loPI   C6A 7356   7.006   2.710   7.594  0.3420 -0.0443  0.0503
  460loPI   C1B 7357   8.804   2.589   8.573 -0.1801 -0.4171  0.1133
  460loPI   C2B 7358   8.920   2.446   8.134  0.2796  0.2251 -0.3127
  460loPI   C3B 7359   9.206   2.216   7.806  0.1698 -0.0414  0.1496
  460loPI   C4B 7360   9.486   2.220   7.370 -0.0170 -0.0672  0.1693
  461loPI    C1 7361  11.621  13.387   9.830 -0.0165  0.1046 -0.1827
  461loPI    C2 7362  11.942  13.484  10.049 -0.0450 -0.3035  0.0497
  461loPI    C3 7363  11.987  13.282   9.707 -0.0368 -0.0976 -0.0730
  461loPI   PO4 7364  11.493  13.612   9.829 -0.0619 -0.0548 -0.1400
  461loPI   GL1 7365  11.469  13.741   9.373 -0.2643 -0.1350 -0.1032
  461loPI   GL2 7366  11.228  13.661   9.227  0.0837  0.0014 -0.0277
  461loPI   C1A 7367  11.456  14.155   9.134  0.2680 -0.1086 -0.0394
  461loPI   C2A 7368  11.307  14.419   8.703  0.2259 -0.2535 -0.2212
  461loPI   C3A 7369  11.399  14.498   8.246  0.1406 -0.0186  0.0290
  461loPI   C4A 7370  11.293  14.307   7.750  0.1476  0.4165  0.0284
  461loPI   C5A 7371  11.136  14.377   7.380 -0.2523 -0.0007 -0.2081
  461loPI   C6A 7372  10.973  14.757   7.139  0.2500 -0.0243  0.0142
  461loPI   C1B 7373  11.216  13.878   8.758  0.1532 -0.0529  0.1306
  461loPI   C2B 7374  11.298  13.931   8.307 -0.0829 -0.0878  0.2940
  461loPI   C3B 7375  11.365  13.830   7.816  0.1641  0.0944 -0.4246
  461loPI   C4B 7376  11.584  13.477   7.597  0.1622 -0.0727 -0.1448
  462loPI    C1 7377  11.090   0.022   9.646  0.0302  0.2858  0.2371
  462loPI    C2 7378  11.200  -0.261   9.906 -0.0938  0.1301  0.1223
  462loPI    C3 7379  11.474  -0.016   9.750  0.0476 -0.0658  0.0595
  462loPI   PO4 7380  10.922   0.079   9.641 -0.0571  0.1811  0.2448
  462loPI   GL1 7381  10.685   0.053   9.359 -0.5141 -0.0198  0.1435
  462loPI   GL2 7382  10.412  -0.089   9.381 -0.2435 -0.2831 -0.0714
  462loPI   C1A 7383  10.825   0.085   8.878 -0.2952 -0.2487  0.1135
  462loPI   C2A 7384  10.837   0.134   8.418 -0.2382 -0.2871 -0.0534
  462loPI   C3A 7385  11.058   0.075   8.122  0.0858 -0.0238 -0.1430
  462loPI   C4A 7386  10.992  -0.032   7.725  0.0666  0.0868 -0.3641
  462loPI   C5A 7387  10.881  -0.122   7.361 -0.3063  0.2203 -0.0303
  462loPI   C6A 7388  10.695  -0.508   7.250  0.3420  0.0029  0.0449
  462loPI   C1B 7389  10.282  -0.163   8.998  0.0326 -0.0477  0.2268
  462loPI   C2B 7390  10.359  -0.023   8.562 -0.0222 -0.2557  0.4169
  462loPI   C3B 7391  10.459  -0.074   8.117  0.3736 -0.4753  0.4099
  462loPI   C4B 7392  10.406  -0.147   7.638 -0.0331  0.2191  0.1546
  463loPI    C1 7393   6.132  11.032   9.797  0.3150 -0.0429 -0.2538
  463loPI    C2 7394   5.836  11.296   9.751  0.1332 -0.1890  0.0442
  463loPI    C3 7395   6.123  11.362  10.022  0.0667 -0.3127  0.1458
  463loPI   PO4 7396   6.225  10.998   9.508 -0.0633  0.1698 -0.0200
  463loPI   GL1 7397   6.193  11.166   9.130  0.0266 -0.0326  0.1512
  463loPI   GL2 7398   6.208  10.859   9.021 -0.2299 -0.1258  0.1263
  463loPI   C1A 7399   6.228  11.233   8.693  0.1330  0.0275 -0.0247
  463loPI   C2A 7400   6.428  11.517   8.425  0.2609  0.3947 -0.0190
  463loPI   C3A 7401   6.373  11.846   8.131  0.0779  0.1529 -0.1250
  463loPI   C4A 7402   6.330  12.324   7.916  0.5153 -0.0027  0.0807
  463loPI   C5A 7403   6.321  12.688   7.724  0.2315 -0.0472 -0.0343
  463loPI   C6A 7404   6.523  12.891   7.481  0.0262 -0.3295  0.1125
  463loPI   C1B 7405   6.140  10.774   8.580 -0.2240 -0.2075 -0.2256
  463loPI   C2B 7406   5.955  10.537   8.209  0.0019  0.0975  0.1248
  463loPI   C3B 7407   5.996  10.351   7.825 -0.0180  0.1808 -0.1411
  463loPI   C4B 7408   5.793  10.018   7.572 -0.1139 -0.2427  0.0569
  464loPI    C1 7409  18.815   7.745   9.674 -0.0850 -0.2372  0.0493
  464loPI    C2 7410  18.889   7.755  10.067 -0.1675  0.0292  0.0602
  464loPI    C3 7411  18.847   7.404   9.880  0.1704 -0.1071  0.2306
  464loPI   PO4 7412  18.995   7.906   9.504 -0.3429 -0.1362  0.0141
  464loPI   GL1 7413  18.898   8.068   9.147  0.0438 -0.0060 -0.2617
  464loPI   GL2 7414  19.241   7.841   9.064 -0.0322 -0.0670  0.0859
  464loPI   C1A 7415  18.611   8.343   8.895  0.0191  0.1297 -0.0767
  464loPI   C2A 7416  18.484   8.624   8.554 -0.0507  0.0950  0.2588
  464loPI   C3A 7417  18.360   8.578   8.140  0.3322 -0.0745  0.1186
  464loPI   C4A 7418  18.164   8.364   7.833  0.3428 -0.1772 -0.0067
  464loPI   C5A 7419  18.101   8.274   7.408  0.0347 -0.0430  0.1263
  464loPI   C6A 7420  18.445   8.162   6.956  0.0221 -0.0361 -0.0319
  464loPI   C1B 7421  19.059   7.778   8.653  0.1138  0.2254 -0.2726
  464loPI   C2B 7422  19.145   7.587   8.251  0.0363 -0.0666  0.1479
  464loPI   C3B 7423  18.964   7.550   7.833  0.2583  0.4098 -0.1069
  464loPI   C4B 7424  18.660   7.439   7.451  0.1873  0.4564 -0.2977
  465loPI    C1 7425   9.945  14.891  10.091 -0.0458  0.0155 -0.2631
  465loPI    C2 7426  10.127  15.176  10.306 -0.0892 -0.1305 -0.0294
  465loPI    C3 7427   9.816  14.977  10.460 -0.0885 -0.2733 -0.2086
  465loPI   PO4 7428   9.808  14.931   9.875  0.1749  0.0868  0.0387
  465loPI   GL1 7429   9.564  15.070   9.617 -0.0448 -0.2127 -0.0443
  465loPI   GL2 7430   9.324  15.002   9.317 -0.1767  0.0111 -0.3484
  465loPI   C1A 7431   9.821  15.146   9.231  0.1669  0.2681 -0.0309
  465loPI   C2A 7432   9.845  15.046   8.805  0.3355  0.0321 -0.0641
  465loPI   C3A 7433  10.052  15.038   8.541 -0.2313 -0.0579 -0.2677
  465loPI   C4A 7434  10.110  14.709   8.144  0.5434 -0.1374  0.2450
  465loPI   C5A 7435  10.032  14.559   7.728  0.3369 -0.2583 -0.2936
  465loPI   C6A 7436   9.853  14.699   7.317 -0.0327 -0.2766  0.1135
  465loPI   C1B 7437   9.536  14.677   9.137  0.0662 -0.0579  0.3081
  465loPI   C2B 7438   9.547  14.679   8.617  0.0821  0.1507  0.1026
  465loPI   C3B 7439   9.523  14.614   8.160  0.1744  0.0934  0.0163
  465loPI   C4B 7440   9.626  14.844   7.720  0.2441  0.2152  0.0294
  466loPI    C1 7441  14.626  13.242   9.119 -0.0325 -0.1091 -0.1186
  466loPI    C2 7442  14.810  13.562   9.274 -0.1737 -0.0757 -0.0183
  466loPI    C3 7443  14.747  13.539   8.880  0.2153 -0.1753 -0.0782
  466loPI   PO4 7444  14.794  12.988   9.169  0.0658 -0.5206 -0.1046
  466loPI   GL1 7445  14.744  12.717   8.894 -0.0352 -0.0760  0.0168
  466loPI   GL2 7446  14.860  12.951   8.656 -0.2229  0.1286 -0.1057
  466loPI   C1A 7447  14.508  12.738   8.460  0.2222  0.1483  0.1280
  466loPI   C2A 7448  14.366  12.873   8.027  0.1483 -0.0710  0.0495
  466loPI   C3A 7449  14.347  12.916   7.630  0.1584  0.2026 -0.1662
  466loPI   C4A 7450  14.293  12.721   7.155 -0.0890 -0.3900  0.0607
  466loPI   C5A 7451  14.113  12.541   6.787 -0.3115 -0.0627 -0.0796
  466loPI   C6A 7452  14.059  12.313   6.440 -0.0324  0.1271 -0.1896
  466loPI   C1B 7453  14.860  12.981   8.241 -0.3377 -0.0166  0.0357
  466loPI   C2B 7454  14.654  13.226   7.932 -0.0120 -0.3418  0.0164
  466loPI   C3B 7455  14.657  13.387   7.635 -0.0583  0.0096  0.0038
  466loPI   C4B 7456  15.062  13.554   7.365 -0.4034 -0.0029  0.1909
  467loPI    C1 7457   7.448   9.165  10.503  0.0673 -0.0990 -0.0405
  467loPI    C2 7458   7.318   9.442  10.760  0.0864 -0.2409  0.1238
  467loPI    C3 7459   7.688   9.466  10.611  0.0163 -0.0638 -0.0249
  467loPI   PO4 7460   7.278   9.167  10.232 -0.0395  0.1725  0.0938
  467loPI   GL1 7461   7.327   9.093   9.914 -0.1561  0.0124 -0.0531
  467loPI   GL2 7462   7.016   9.217   9.747 -0.0866  0.1757  0.1072
  467loPI   C1A 7463   7.491   9.182   9.379  0.1078 -0.0285 -0.1177
  467loPI   C2A 7464   7.486   9.141   8.910 -0.0661  0.2334 -0.0855
  467loPI   C3A 7465   7.186   8.994   8.496  0.0183  0.0229 -0.1891
  467loPI   C4A 7466   6.980   8.726   8.163  0.3034 -0.0612 -0.3405
  467loPI   C5A 7467   6.695   8.484   7.916  0.4141  0.0463 -0.0542
  467loPI   C6A 7468   6.849   8.108   7.808 -0.2640 -0.0072  0.2313
  467loPI   C1B 7469   6.776   9.187   9.317  0.0519  0.4076 -0.1143
  467loPI   C2B 7470   6.341   8.999   9.147 -0.0245  0.1879 -0.2785
  467loPI   C3B 7471   6.123   8.637   8.924 -0.0736 -0.1646  0.1033
  467loPI   C4B 7472   6.125   8.323   8.654  0.1326 -0.1201  0.1268
  468loPI    C1 7473   8.118   8.557  10.589 -0.2892 -0.0147 -0.0368
  468loPI    C2 7474   7.909   8.267  10.766 -0.1352  0.0722  0.2946
  468loPI    C3 7475   8.308   8.263  10.783 -0.1122  0.0183 -0.1575
  468loPI   PO4 7476   8.011   8.568  10.403  0.0937  0.0644  0.2387
  468loPI   GL1 7477   7.993   8.291   9.929  0.1549  0.1393  0.4602
  468loPI   GL2 7478   7.631   8.317   9.897  0.3329 -0.1568 -0.0914
  468loPI   C1A 7479   8.031   8.072   9.461  0.1322  0.2187 -0.1135
  468loPI   C2A 7480   8.186   7.980   9.062 -0.2168  0.0205 -0.3182
  468loPI   C3A 7481   8.049   7.887   8.607 -0.3130  0.2213  0.0726
  468loPI   C4A 7482   8.058   8.090   8.173 -0.1326  0.0235  0.3524
  468loPI   C5A 7483   7.929   8.362   8.019  0.1331 -0.2703 -0.1712
  468loPI   C6A 7484   7.971   8.816   8.017  0.0002  0.0892  0.3405
  468loPI   C1B 7485   7.598   8.318   9.502  0.2736  0.2750 -0.1622
  468loPI   C2B 7486   7.329   8.270   9.249  0.0271  0.1245  0.0809
  468loPI   C3B 7487   7.150   7.916   9.110 -0.3285 -0.3296 -0.0590
  468loPI   C4B 7488   7.007   7.859   8.730 -0.0081  0.1953  0.1504
  469loPI    C1 7489  17.020   2.132   9.586 -0.0644 -0.1293  0.0742
  469loPI    C2 7490  16.830   2.344   9.867  0.0694  0.0381  0.0400
  469loPI    C3 7491  17.059   2.033   9.972  0.0077  0.0143  0.1044
  469loPI   PO4 7492  17.132   2.359   9.420 -0.0537 -0.2835  0.1261
  469loPI   GL1 7493  17.278   2.130   9.036 -0.2717 -0.0820  0.0413
  469loPI   GL2 7494  17.521   2.231   8.877 -0.3970 -0.2980 -0.0302
  469loPI   C1A 7495  17.039   2.264   8.688 -0.2997  0.1105  0.0731
  469loPI   C2A 7496  16.733   2.274   8.504 -0.1403 -0.0026 -0.2944
  469loPI   C3A 7497  16.614   2.314   8.077 -0.1272  0.2143 -0.0463
  469loPI   C4A 7498  16.466   2.390   7.675  0.0866 -0.0509 -0.2247
  469loPI   C5A 7499  16.306   2.465   7.257 -0.1271  0.0346 -0.0976
  469loPI   C6A 7500  16.277   2.464   6.904  0.1080 -0.0625  0.0879
  469loPI   C1B 7501  17.448   2.327   8.394  0.4679  0.1640 -0.2502
  469loPI   C2B 7502  17.591   2.500   8.015 -0.4837 -0.0602 -0.1556
  469loPI   C3B 7503  17.588   2.527   7.649 -0.1046 -0.0873  0.2422
  469loPI   C4B 7504  17.353   2.457   7.315  0.1259 -0.1089  0.1932
  470loPI    C1 7505  18.130  12.856   9.681  0.1910 -0.2417 -0.0451
  470loPI    C2 7506  18.242  13.138   9.942 -0.1365 -0.0560 -0.1001
  470loPI    C3 7507  18.506  12.865   9.818  0.1256  0.0901  0.1248
  470loPI   PO4 7508  17.941  13.054   9.524  0.0822  0.0226 -0.0566
  470loPI   GL1 7509  17.976  13.169   9.166 -0.1126  0.0420  0.0412
  470loPI   GL2 7510  18.138  12.927   9.026  0.1554  0.0452  0.1190
  470loPI   C1A 7511  18.260  13.358   8.824  0.1236 -0.2486 -0.2288
  470loPI   C2A 7512  18.454  13.305   8.402 -0.0338 -0.2160 -0.3372
  470loPI   C3A 7513  18.426  13.357   8.003 -0.0680  0.5188 -0.0141
  470loPI   C4A 7514  18.478  13.027   7.630  0.2154  0.2660 -0.0826
  470loPI   C5A 7515  18.302  12.812   7.322  0.0453  0.0811  0.1004
  470loPI   C6A 7516  18.202  12.539   6.972 -0.1392 -0.1159 -0.2143
  470loPI   C1B 7517  18.117  12.851   8.641  0.0585 -0.1182 -0.0011
  470loPI   C2B 7518  17.824  12.941   8.335  0.0802 -0.0371 -0.2328
  470loPI   C3B 7519  17.577  13.048   8.007  0.1520 -0.4036  0.0509
  470loPI   C4B 7520  17.400  13.155   7.709  0.0898 -0.0398  0.4386
  471loPI    C1 7521   7.274   7.337  10.504 -0.0470 -0.2216  0.0624
  471loPI    C2 7522   7.320   7.589  10.811  0.1331  0.0863 -0.2100
  471loPI    C3 7523   7.428   7.205  10.848  0.1645  0.1227  0.1044
  471loPI   PO4 7524   6.976   7.439  10.436  0.0773 -0.4032 -0.0035
  471loPI   GL1 7525   6.718   7.268  10.161 -0.0707  0.1335 -0.4161
  471loPI   GL2 7526   7.022   7.102  10.075  0.0015 -0.2464 -0.0170
  471loPI   C1A 7527   6.609   7.151   9.649  0.0970 -0.1724  0.0249
  471loPI   C2A 7528   6.509   7.089   9.176  0.3784 -0.0564 -0.3209
  471loPI   C3A 7529   6.357   6.998   8.786 -0.1377 -0.4999 -0.2512
  471loPI   C4A 7530   6.333   7.305   8.434 -0.2964  0.0970 -0.1996
  471loPI   C5A 7531   6.012   7.554   8.122  0.2493 -0.3152 -0.2370
  471loPI   C6A 7532   5.816   7.365   7.890  0.2075 -0.0137 -0.0101
  471loPI   C1B 7533   7.031   7.371   9.801 -0.0378 -0.4201  0.1395
  471loPI   C2B 7534   7.123   7.560   9.393  0.2863 -0.0267  0.1906
  471loPI   C3B 7535   6.809   7.503   9.136  0.1916 -0.0782 -0.2367
  471loPI   C4B 7536   6.611   7.520   8.764  0.2234 -0.0394  0.0004
  472loPI    C1 7537  11.436  10.118   9.985 -0.1301  0.2161 -0.0186
  472loPI    C2 7538  11.384  10.514   9.973 -0.0096  0.2416  0.2424
  472loPI    C3 7539  11.545  10.343  10.297 -0.1427 -0.0312  0.1673
  472loPI   PO4 7540  11.517  10.092   9.693  0.0129 -0.1145  0.0832
  472loPI   GL1 7541  11.399  10.185   9.299 -0.0822  0.4662 -0.1295
  472loPI   GL2 7542  11.760  10.142   9.224  0.1281 -0.1402 -0.1783
  472loPI   C1A 7543  11.155  10.093   9.001  0.2454 -0.0525  0.0743
  472loPI   C2A 7544  10.930  10.087   8.669  0.4041 -0.0277  0.2297
  472loPI   C3A 7545  11.040   9.957   8.252  0.3563  0.1686  0.0869
  472loPI   C4A 7546  11.016   9.721   7.885 -0.1333  0.2785  0.1604
  472loPI   C5A 7547  10.826   9.639   7.542 -0.2261 -0.0455 -0.2890
  472loPI   C6A 7548  10.819   9.307   7.264  0.1025  0.0755 -0.0628
  472loPI   C1B 7549  11.615  10.253   8.880  0.1218 -0.2460  0.1213
  472loPI   C2B 7550  11.384  10.172   8.483 -0.0222 -0.0778  0.0459
  472loPI   C3B 7551  11.337  10.336   8.027  0.0629 -0.0279 -0.2011
  472loPI   C4B 7552  10.893  10.304   7.803 -0.1718 -0.0124 -0.0925
  473loPI    C1 7553   2.462   4.456  10.116 -0.0124 -0.0667 -0.1353
  473loPI    C2 7554   2.675   4.499  10.452  0.0307  0.0307 -0.1747
  473loPI    C3 7555   2.289   4.397  10.472  0.0625 -0.0765 -0.1003
  473loPI   PO4 7556   2.612   4.339   9.962  0.1150 -0.1155 -0.0815
  473loPI   GL1 7557   2.800   4.461   9.626  0.1895 -0.0023  0.0373
  473loPI   GL2 7558   3.088   4.410   9.520 -0.3490  0.1256 -0.1245
  473loPI   C1A 7559   2.771   4.813   9.349 -0.1927 -0.0155 -0.3288
  473loPI   C2A 7560   2.766   4.989   8.840 -0.1320 -0.1421 -0.1758
  473loPI   C3A 7561   2.891   4.991   8.424  0.1037  0.2787  0.4781
  473loPI   C4A 7562   2.700   4.956   8.059 -0.1124 -0.0933 -0.1683
  473loPI   C5A 7563   2.458   5.020   7.577 -0.2048  0.1797  0.0611
  473loPI   C6A 7564   2.401   5.284   7.231  0.0736  0.1267  0.0470
  473loPI   C1B 7565   3.056   4.503   9.110  0.0675  0.1784  0.1515
  473loPI   C2B 7566   2.920   4.386   8.825  0.0974  0.2253 -0.3473
  473loPI   C3B 7567   3.038   4.560   8.510 -0.1907  0.0588  0.1220
  473loPI   C4B 7568   3.210   4.634   8.045 -0.1552  0.1910 -0.0111
  474loPI    C1 7569   7.914  15.864  10.141  0.2456 -0.2754 -0.0238
  474loPI    C2 7570   8.154  16.124  10.329 -0.0897 -0.1216  0.2005
  474loPI    C3 7571   8.043  15.785  10.511 -0.1258 -0.1435  0.1382
  474loPI   PO4 7572   7.725  15.881  10.091  0.0135 -0.1073  0.0444
  474loPI   GL1 7573   7.643  15.919   9.706 -0.2775  0.1864 -0.1890
  474loPI   GL2 7574   7.942  15.752   9.636 -0.0739 -0.1365  0.1699
  474loPI   C1A 7575   7.472  15.957   9.360 -0.2092  0.1757 -0.0173
  474loPI   C2A 7576   7.346  15.859   8.997  0.0291  0.2973  0.2276
  474loPI   C3A 7577   7.460  15.843   8.608  0.1918 -0.3988  0.0592
  474loPI   C4A 7578   7.426  15.645   8.159  0.1635  0.0680 -0.2159
  474loPI   C5A 7579   7.120  15.741   7.787 -0.0387 -0.0274 -0.4363
  474loPI   C6A 7580   6.911  15.561   7.508  0.0163  0.0124 -0.2134
  474loPI   C1B 7581   7.955  15.967   9.254  0.0739 -0.1102 -0.1532
  474loPI   C2B 7582   7.906  15.870   8.859  0.4809  0.2533 -0.4396
  474loPI   C3B 7583   7.977  15.655   8.435 -0.1324  0.1036  0.3675
  474loPI   C4B 7584   7.844  15.527   7.961  0.0441  0.0645  0.3992
  475loPI    C1 7585  14.250   0.194   9.507  0.1661 -0.0656 -0.1211
  475loPI    C2 7586  14.019  -0.109   9.626  0.1527 -0.0218 -0.0345
  475loPI    C3 7587  14.181   0.137   9.897 -0.0878  0.2341 -0.1182
  475loPI   PO4 7588  14.131   0.250   9.223  0.2257 -0.2897 -0.1889
  475loPI   GL1 7589  14.062   0.449   8.831  0.1406  0.0966  0.1985
  475loPI   GL2 7590  14.355   0.525   8.809  0.2137  0.0733 -0.3630
  475loPI   C1A 7591  14.209   0.411   8.344  0.2768 -0.0812  0.1431
  475loPI   C2A 7592  14.489   0.406   8.004  0.0607 -0.0832 -0.0936
  475loPI   C3A 7593  14.550   0.513   7.621 -0.0181 -0.0253  0.1350
  475loPI   C4A 7594  14.541   0.430   7.217  0.0381  0.2571 -0.1223
  475loPI   C5A 7595  14.571   0.101   7.011 -0.0876  0.0556  0.5669
  475loPI   C6A 7596  14.825  -0.194   6.890 -0.0429  0.0843  0.0466
  475loPI   C1B 7597  14.376   0.783   8.586  0.1897  0.3809 -0.2616
  475loPI   C2B 7598  14.410   0.816   8.255 -0.0063  0.1386  0.0173
  475loPI   C3B 7599  14.406   0.931   7.900 -0.0007 -0.1770 -0.0379
  475loPI   C4B 7600  14.523   1.020   7.434  0.1057  0.2175  0.2116
  476loPI    C1 7601   6.770   6.393  10.836 -0.2425  0.1660  0.1338
  476loPI    C2 7602   6.641   6.413  11.215 -0.1508  0.2720  0.1601
  476loPI    C3 7603   6.895   6.124  11.105 -0.1569  0.2569  0.1858
  476loPI   PO4 7604   6.535   6.428  10.654  0.0591  0.2964  0.3230
  476loPI   GL1 7605   6.395   6.303  10.231 -0.0455 -0.3659 -0.0977
  476loPI   GL2 7606   6.770   6.223  10.195  0.0331 -0.1339  0.1924
  476loPI   C1A 7607   6.499   6.159   9.782  0.1838  0.1242  0.1854
  476loPI   C2A 7608   6.598   6.073   9.349  0.0160  0.0493 -0.1593
  476loPI   C3A 7609   6.655   6.078   8.952 -0.2836  0.1458  0.1785
  476loPI   C4A 7610   6.772   6.097   8.474 -0.0820  0.2204 -0.0952
  476loPI   C5A 7611   6.624   6.407   8.106  0.2250 -0.5343 -0.0572
  476loPI   C6A 7612   6.502   6.803   8.085 -0.0007 -0.0858  0.3558
  476loPI   C1B 7613   7.032   6.317   9.829  0.3522  0.2195  0.0163
  476loPI   C2B 7614   7.041   6.113   9.462  0.0682 -0.4833  0.1450
  476loPI   C3B 7615   7.262   5.993   9.188  0.0446  0.1114 -0.0833
  476loPI   C4B 7616   7.504   6.216   9.137  0.1435 -0.0305  0.0050
  477loPI    C1 7617   2.191   7.779   9.651 -0.1910  0.0615 -0.0803
  477loPI    C2 7618   1.977   8.046   9.858 -0.1359  0.0318  0.0155
  477loPI    C3 7619   2.376   8.072   9.850 -0.1442  0.1133 -0.1993
  477loPI   PO4 7620   2.008   7.683   9.504  0.3212  0.2219 -0.3724
  477loPI   GL1 7621   1.759   7.694   9.210 -0.3183 -0.3985  0.2022
  477loPI   GL2 7622   1.999   7.871   8.961  0.1581 -0.2654 -0.1486
  477loPI   C1A 7623   1.566   7.868   8.707 -0.2445 -0.0963 -0.0784
  477loPI   C2A 7624   1.392   7.940   8.321 -0.0574 -0.0871 -0.1990
  477loPI   C3A 7625   1.377   7.975   7.902  0.1498 -0.0489 -0.0797
  477loPI   C4A 7626   1.555   8.048   7.511  0.1629  0.2894  0.2849
  477loPI   C5A 7627   1.899   8.145   7.287 -0.1231  0.2583 -0.1578
  477loPI   C6A 7628   2.054   8.597   7.317 -0.2069 -0.3555 -0.0572
  477loPI   C1B 7629   2.049   7.740   8.518 -0.0261 -0.0420 -0.1004
  477loPI   C2B 7630   2.100   7.567   8.102  0.0545  0.0245  0.0798
  477loPI   C3B 7631   2.138   7.355   7.772  0.0961  0.1108  0.0406
  477loPI   C4B 7632   2.303   7.149   7.364  0.1042  0.0871  0.0096
  478loPI    C1 7633   5.931  16.901   9.937 -0.3369 -0.0904  0.0482
  478loPI    C2 7634   6.114  16.556  10.022  0.0563  0.1196  0.0731
  478loPI    C3 7635   5.810  16.681  10.249 -0.0882 -0.2057  0.0653
  478loPI   PO4 7636   5.785  16.869   9.735 -0.0467 -0.1601 -0.1246
  478loPI   GL1 7637   5.779  16.855   9.374 -0.1555 -0.1186  0.1858
  478loPI   GL2 7638   6.028  17.017   9.326  0.3717 -0.1896 -0.0794
  478loPI   C1A 7639   5.744  16.635   9.057  0.1800 -0.1487 -0.3219
  478loPI   C2A 7640   5.722  16.598   8.691  0.2785 -0.3764  0.2020
  478loPI   C3A 7641   5.656  16.638   8.283  0.0554 -0.1022  0.0112
  478loPI   C4A 7642   5.508  16.702   7.822 -0.4650 -0.2863  0.1641
  478loPI   C5A 7643   5.223  16.703   7.381  0.1905  0.1877 -0.1224
  478loPI   C6A 7644   4.969  16.831   6.983  0.1005  0.3873 -0.1428
  478loPI   C1B 7645   5.931  17.184   8.941  0.2403  0.1452  0.0167
  478loPI   C2B 7646   5.873  17.120   8.477 -0.0834 -0.3322  0.0126
  478loPI   C3B 7647   5.850  17.046   8.132  0.0906  0.0154  0.1054
  478loPI   C4B 7648   5.759  17.088   7.592  0.2517 -0.0350 -0.3688
  479loPI    C1 7649  14.074   8.427   9.972  0.1310 -0.4679 -0.1606
  479loPI    C2 7650  14.274   8.479  10.314  0.0127 -0.1904 -0.1315
  479loPI    C3 7651  14.143   8.115  10.213  0.0534 -0.2753  0.1147
  479loPI   PO4 7652  14.169   8.352   9.777  0.3303 -0.5127 -0.1224
  479loPI   GL1 7653  14.088   8.154   9.408 -0.0847  0.1940  0.1041
  479loPI   GL2 7654  14.326   7.940   9.594 -0.0615  0.1451  0.2143
  479loPI   C1A 7655  14.142   8.440   9.066 -0.3935  0.2407  0.1468
  479loPI   C2A 7656  14.234   8.539   8.546  0.4152  0.0443 -0.2025
  479loPI   C3A 7657  14.167   8.616   8.123  0.0224 -0.0345 -0.1913
  479loPI   C4A 7658  14.115   8.754   7.682 -0.0092 -0.0091 -0.1491
  479loPI   C5A 7659  14.492   8.813   7.388  0.2171  0.1842  0.3053
  479loPI   C6A 7660  14.822   9.057   7.053 -0.0210 -0.1732  0.1401
  479loPI   C1B 7661  14.314   7.962   9.070 -0.2444 -0.1744 -0.1340
  479loPI   C2B 7662  14.227   7.953   8.621  0.1544 -0.5823 -0.2512
  479loPI   C3B 7663  14.017   8.122   8.317 -0.1251 -0.0817  0.2002
  479loPI   C4B 7664  13.956   8.223   7.810 -0.0426 -0.1603 -0.0933
  480loPI    C1 7665   9.717   9.941  10.322 -0.0173 -0.2062  0.1109
  480loPI    C2 7666  10.081   9.844  10.456 -0.0652 -0.3120  0.1652
  480loPI    C3 7667   9.812  10.003  10.706  0.0810  0.1614  0.0315
  480loPI   PO4 7668   9.770   9.811  10.059  0.4245 -0.2030 -0.0594
  480loPI   GL1 7669   9.837   9.664   9.620 -0.1944 -0.0186 -0.2486
  480loPI   GL2 7670  10.157   9.763   9.681  0.1691  0.0786 -0.1815
  480loPI   C1A 7671   9.919   9.696   9.215 -0.2599  0.0092 -0.1080
  480loPI   C2A 7672   9.905   9.819   8.864 -0.0790  0.2168  0.1163
  480loPI   C3A 7673   9.709   9.645   8.508 -0.2051  0.0533 -0.2821
  480loPI   C4A 7674   9.668   9.562   8.027  0.0933  0.2075 -0.4670
  480loPI   C5A 7675   9.721   9.752   7.599  0.1014 -0.1562  0.0268
  480loPI   C6A 7676   9.960   9.844   7.162 -0.3388  0.0236 -0.0600
  480loPI   C1B 7677  10.233  10.088   9.319  0.0921 -0.1753  0.2131
  480loPI   C2B 7678  10.224  10.428   9.077 -0.1957  0.1615 -0.1465
  480loPI   C3B 7679  10.064  10.547   8.615  0.3981 -0.1751 -0.0160
  480loPI   C4B 7680   9.789  10.829   8.496 -0.0263  0.2347  0.0388
  481loPI    C1 7681   1.087   0.197   9.710 -0.0433  0.0671  0.0102
  481loPI    C2 7682   1.409   0.004   9.848  0.0040 -0.0254 -0.2250
  481loPI    C3 7683   1.389   0.402   9.873  0.0437 -0.0350 -0.0214
  481loPI   PO4 7684   1.112   0.149   9.515 -0.0499  0.1501  0.3949
  481loPI   GL1 7685   1.345   0.077   9.066  0.0684  0.2514 -0.1206
  481loPI   GL2 7686   1.139  -0.210   9.009  0.2641  0.0118 -0.0332
  481loPI   C1A 7687   1.349   0.137   8.602  0.3607  0.3555 -0.0312
  481loPI   C2A 7688   1.514   0.103   8.125  0.0752 -0.2094 -0.1452
  481loPI   C3A 7689   1.632   0.131   7.637 -0.2537 -0.0934 -0.0984
  481loPI   C4A 7690   1.451   0.086   7.298 -0.1762  0.1905 -0.1515
  481loPI   C5A 7691   1.596  -0.021   6.921  0.1469  0.0271 -0.3155
  481loPI   C6A 7692   1.503  -0.236   6.647 -0.3537  0.0604 -0.1113
  481loPI   C1B 7693   1.313  -0.402   8.690 -0.0841 -0.0954 -0.1436
  481loPI   C2B 7694   1.454  -0.378   8.245 -0.1014  0.1056  0.1135
  481loPI   C3B 7695   1.391  -0.337   7.833 -0.1972  0.0715  0.1922
  481loPI   C4B 7696   1.384  -0.389   7.378  0.4421  0.2617 -0.3641
  482loPI    C1 7697  13.772  15.811   9.583 -0.3645 -0.2141 -0.0956
  482loPI    C2 7698  13.598  16.133   9.744  0.1414  0.1748 -0.2989
  482loPI    C3 7699  13.695  15.822   9.975 -0.2427  0.2126 -0.0782
  482loPI   PO4 7700  13.643  15.706   9.440  0.0194 -0.2452 -0.1667
  482loPI   GL1 7701  13.368  15.693   9.107 -0.1559 -0.1096  0.2481
  482loPI   GL2 7702  13.600  15.671   8.948 -0.2914  0.0071  0.0927
  482loPI   C1A 7703  13.077  15.818   8.804  0.0439 -0.2636 -0.4647
  482loPI   C2A 7704  13.009  15.597   8.448 -0.0661 -0.1031  0.0985
  482loPI   C3A 7705  12.988  15.454   8.031 -0.1885  0.2839 -0.3065
  482loPI   C4A 7706  13.198  15.399   7.653  0.1385 -0.1775 -0.1382
  482loPI   C5A 7707  13.356  15.627   7.237  0.1149 -0.2337  0.2191
  482loPI   C6A 7708  13.698  15.518   6.900  0.1082  0.1048 -0.0475
  482loPI   C1B 7709  13.430  15.414   8.613  0.0737 -0.4972 -0.1179
  482loPI   C2B 7710  13.480  15.408   8.157  0.2317  0.0766 -0.1889
  482loPI   C3B 7711  13.688  15.216   7.755 -0.1562 -0.1158 -0.0388
  482loPI   C4B 7712  13.558  15.198   7.409  0.0403 -0.0595  0.3161
  483loPI    C1 7713  15.176   4.042  10.512 -0.2681 -0.0247 -0.1588
  483loPI    C2 7714  15.064   3.668  10.595 -0.1979 -0.0218 -0.0481
  483loPI    C3 7715  15.189   3.909  10.888  0.2560 -0.0779 -0.1875
  483loPI   PO4 7716  15.375   3.957  10.279 -0.0952  0.0518 -0.1190
  483loPI   GL1 7717  15.586   4.134   9.925  0.1742  0.1417 -0.2941
  483loPI   GL2 7718  15.763   4.345   9.697  0.3230 -0.2964 -0.0273
  483loPI   C1A 7719  15.175   4.204   9.654 -0.2485  0.0601  0.1817
  483loPI   C2A 7720  15.072   4.014   9.218  0.3089  0.0131  0.2891
  483loPI   C3A 7721  14.971   4.002   8.866  0.2147 -0.1975 -0.1962
  483loPI   C4A 7722  15.008   3.885   8.532 -0.0632 -0.1128 -0.1251
  483loPI   C5A 7723  14.865   4.055   8.093 -0.0680  0.2264  0.0935
  483loPI   C6A 7724  14.657   3.967   7.671 -0.3527 -0.0606 -0.2150
  483loPI   C1B 7725  15.437   4.642   9.536  0.0437 -0.0901  0.0400
  483loPI   C2B 7726  15.187   4.934   9.277  0.0885  0.0552  0.0691
  483loPI   C3B 7727  14.788   4.985   9.042  0.1392  0.0197  0.2734
  483loPI   C4B 7728  14.659   4.831   8.629  0.1153  0.0900 -0.1147
  484loPI    C1 7729  18.126  16.125   9.647 -0.0042  0.1099  0.1186
  484loPI    C2 7730  17.890  16.422   9.775 -0.1202  0.1545 -0.1884
  484loPI    C3 7731  17.728  16.086   9.631  0.0077  0.0909 -0.1861
  484loPI   PO4 7732  18.404  16.301   9.492  0.0932 -0.3773  0.1167
  484loPI   GL1 7733  18.489  16.294   9.033 -0.3133  0.0912 -0.0720
  484loPI   GL2 7734  18.779  16.475   8.845 -0.2535 -0.0100 -0.3434
  484loPI   C1A 7735  18.419  16.261   8.628  0.2908 -0.2289 -0.0831
  484loPI   C2A 7736  18.438  16.270   8.159 -0.0869  0.2581 -0.0397
  484loPI   C3A 7737  18.558  16.133   7.668  0.3195  0.1509 -0.1946
  484loPI   C4A 7738  18.413  16.424   7.284 -0.3378 -0.3135 -0.0607
  484loPI   C5A 7739  18.306  16.547   6.864 -0.0283  0.2203 -0.0521
  484loPI   C6A 7740  18.469  16.695   6.527  0.0669  0.0038 -0.0495
  484loPI   C1B 7741  18.650  16.609   8.380 -0.0218  0.0008 -0.1349
  484loPI   C2B 7742  18.720  16.631   7.930 -0.2334  0.1799 -0.1415
  484loPI   C3B 7743  18.911  16.562   7.596 -0.0571 -0.0403  0.2524
  484loPI   C4B 7744  19.133  16.504   7.161  0.3163 -0.1890  0.3276
  485loPI    C1 7745   6.180   3.297  10.489 -0.0485  0.0705  0.0244
  485loPI    C2 7746   6.314   2.940  10.368 -0.2331 -0.0580  0.1925
  485loPI    C3 7747   6.571   3.214  10.505 -0.0513 -0.0041 -0.2401
  485loPI   PO4 7748   6.036   3.394  10.333  0.0949  0.1547 -0.0917
  485loPI   GL1 7749   5.958   3.494   9.995 -0.0528 -0.1025 -0.1696
  485loPI   GL2 7750   6.027   3.210   9.808  0.1906 -0.0806  0.0803
  485loPI   C1A 7751   5.664   3.462   9.702  0.1375  0.1070 -0.0185
  485loPI   C2A 7752   5.547   3.389   9.274  0.4666  0.0051 -0.1823
  485loPI   C3A 7753   5.779   3.461   8.957 -0.0886  0.0943 -0.1806
  485loPI   C4A 7754   6.011   3.662   8.590  0.3116  0.3280 -0.0569
  485loPI   C5A 7755   5.936   3.762   8.128 -0.0637  0.3262 -0.1393
  485loPI   C6A 7756   5.611   3.871   7.803 -0.3094 -0.0699 -0.1017
  485loPI   C1B 7757   6.031   3.434   9.432 -0.2701 -0.3487  0.0037
  485loPI   C2B 7758   6.289   3.448   9.041 -0.1044 -0.1288 -0.3320
  485loPI   C3B 7759   6.635   3.637   8.843 -0.0321 -0.3607 -0.1754
  485loPI   C4B 7760   6.823   3.825   8.379  0.1497  0.1127 -0.0406
  486loPI    C1 7761   9.101   0.041   9.994  0.0675  0.0760 -0.1403
  486loPI    C2 7762   9.333  -0.054  10.305  0.3008  0.0719 -0.3134
  486loPI    C3 7763   9.062   0.238  10.340  0.3091  0.0558 -0.1000
  486loPI   PO4 7764   9.333   0.068   9.795 -0.2824 -0.0206 -0.3741
  486loPI   GL1 7765   9.366   0.088   9.385 -0.1473 -0.0219 -0.0775
  486loPI   GL2 7766   9.310   0.395   9.409  0.1598  0.3078  0.1434
  486loPI   C1A 7767   9.322  -0.206   9.151 -0.1566  0.2972 -0.3723
  486loPI   C2A 7768   9.394  -0.650   8.863 -0.1254 -0.0515 -0.1188
  486loPI   C3A 7769   9.568  -0.667   8.360  0.0033 -0.0206 -0.2345
  486loPI   C4A 7770   9.596  -0.432   8.019 -0.6142 -0.1225  0.0147
  486loPI   C5A 7771   9.721  -0.432   7.589 -0.0186  0.1315 -0.1682
  486loPI   C6A 7772   9.616  -0.445   7.185 -0.0764  0.0231 -0.1212
  486loPI   C1B 7773   9.368   0.372   9.005  0.0088 -0.0512 -0.0080
  486loPI   C2B 7774   9.306   0.316   8.607  0.1311 -0.0450  0.1861
  486loPI   C3B 7775   9.120   0.295   8.158  0.0320 -0.2241  0.0860
  486loPI   C4B 7776   9.050   0.140   7.819 -0.3412 -0.0623  0.1615
  487loPI    C1 7777   3.363   9.149  10.153  0.0847  0.0904 -0.0813
  487loPI    C2 7778   3.209   8.838  10.352  0.0347  0.1307 -0.0570
  487loPI    C3 7779   3.241   9.195  10.531  0.3001  0.0860 -0.0100
  487loPI   PO4 7780   3.583   9.136   9.939 -0.0774  0.0842  0.1728
  487loPI   GL1 7781   3.686   9.180   9.549  0.5975 -0.0197  0.0174
  487loPI   GL2 7782   3.457   8.914   9.457 -0.0927  0.2625  0.2486
  487loPI   C1A 7783   3.538   9.335   9.125 -0.2514  0.3207  0.3663
  487loPI   C2A 7784   3.164   9.433   8.758  0.1700  0.1603 -0.0771
  487loPI   C3A 7785   2.941   9.302   8.406  0.1192 -0.2156 -0.0193
  487loPI   C4A 7786   2.997   9.319   8.039  0.0240 -0.1415 -0.0952
  487loPI   C5A 7787   3.142   9.154   7.586 -0.2499  0.3304 -0.0917
  487loPI   C6A 7788   3.302   9.506   7.320 -0.2854  0.1253 -0.1553
  487loPI   C1B 7789   3.524   8.800   9.038  0.0963 -0.0343  0.1921
  487loPI   C2B 7790   3.494   9.057   8.709 -0.1845 -0.0768 -0.1186
  487loPI   C3B 7791   3.448   9.239   8.270  0.1516 -0.0463  0.1073
  487loPI   C4B 7792   3.672   9.193   7.871 -0.1153 -0.1554  0.1089
  488loPI    C1 7793   6.204  10.625  10.195  0.0212 -0.0926 -0.0610
  488loPI    C2 7794   5.885  10.488  10.394 -0.0579  0.2449  0.0522
  488loPI    C3 7795   6.250  10.349  10.480 -0.1728 -0.1669 -0.0998
  488loPI   PO4 7796   6.099  10.591   9.968 -0.0532 -0.0545 -0.2623
  488loPI   GL1 7797   6.070  10.470   9.502 -0.2739 -0.0186 -0.4234
  488loPI   GL2 7798   5.778  10.545   9.453 -0.2314  0.3169 -0.2348
  488loPI   C1A 7799   6.090  10.367   9.118 -0.2485  0.1236  0.0365
  488loPI   C2A 7800   6.068  10.185   8.641  0.2499 -0.2773  0.0873
  488loPI   C3A 7801   5.890   9.957   8.215 -0.0889  0.2652 -0.0916
  488loPI   C4A 7802   6.209   9.793   7.898  0.0503 -0.0021  0.2341
  488loPI   C5A 7803   6.230   9.797   7.428  0.0057 -0.0778 -0.0293
  488loPI   C6A 7804   6.030  10.050   7.113 -0.1070 -0.0717 -0.2767
  488loPI   C1B 7805   5.654  10.563   9.035  0.0172 -0.2709  0.0245
  488loPI   C2B 7806   5.699  10.540   8.674  0.2939 -0.3521 -0.0703
  488loPI   C3B 7807   5.431  10.397   8.300 -0.0034  0.0301  0.2671
  488loPI   C4B 7808   5.471  10.093   7.943 -0.3825 -0.2305 -0.2316
  489loPI    C1 7809   8.733   8.704  10.444  0.0221  0.1947 -0.1524
  489loPI    C2 7810   8.747   9.053  10.638 -0.1767  0.1379 -0.0323
  489loPI    C3 7811   8.534   8.750  10.788 -0.1333  0.0146 -0.2160
  489loPI   PO4 7812   8.826   8.789  10.209 -0.1826 -0.1751  0.1507
  489loPI   GL1 7813   8.708   8.792   9.838  0.2339 -0.1503  0.2125
  489loPI   GL2 7814   8.613   8.477   9.630 -0.0504  0.0874  0.0024
  489loPI   C1A 7815   9.037   8.635   9.619 -0.2092 -0.0697  0.1031
  489loPI   C2A 7816   8.931   8.588   9.171  0.0710  0.2125  0.2197
  489loPI   C3A 7817   8.752   8.750   8.702 -0.0284 -0.1759 -0.0222
  489loPI   C4A 7818   8.762   8.854   8.228 -0.3384  0.0556 -0.2628
  489loPI   C5A 7819   8.836   9.308   7.889 -0.0718 -0.3784 -0.2801
  489loPI   C6A 7820   9.198   9.602   7.849  0.1025  0.1705  0.4632
  489loPI   C1B 7821   8.425   8.376   9.314  0.0718 -0.1580 -0.1795
  489loPI   C2B 7822   8.429   8.420   8.838  0.0101  0.1740  0.0269
  489loPI   C3B 7823   8.378   8.638   8.440  0.2136 -0.0148 -0.0697
  489loPI   C4B 7824   8.442   8.516   7.971  0.1870 -0.2774  0.1520
  490loPI    C1 7825  12.862   6.613  10.478 -0.1235  0.2299  0.0295
  490loPI    C2 7826  13.227   6.449  10.481 -0.1992  0.0584 -0.0213
  490loPI    C3 7827  13.153   6.775  10.700 -0.0114  0.1036 -0.0234
  490loPI   PO4 7828  12.804   6.703  10.183 -0.2186 -0.2736  0.0634
  490loPI   GL1 7829  13.001   6.881   9.861  0.2496 -0.3222  0.0013
  490loPI   GL2 7830  12.737   7.001   9.740  0.4077 -0.0818  0.1414
  490loPI   C1A 7831  13.037   6.933   9.412 -0.2405  0.1567  0.3177
  490loPI   C2A 7832  12.918   6.904   8.956 -0.0267 -0.1259  0.2378
  490loPI   C3A 7833  12.721   7.026   8.498 -0.1883 -0.0324 -0.1688
  490loPI   C4A 7834  12.422   6.977   8.125 -0.3345  0.4535 -0.3227
  490loPI   C5A 7835  12.343   7.104   7.708  0.1591 -0.0944  0.0706
  490loPI   C6A 7836  12.413   7.032   7.279  0.2632 -0.2484  0.0570
  490loPI   C1B 7837  12.577   7.061   9.324 -0.2030  0.2820  0.0018
  490loPI   C2B 7838  12.532   7.215   8.917 -0.0880 -0.1083 -0.2656
  490loPI   C3B 7839  12.254   7.100   8.609 -0.2003  0.0521 -0.1223
  490loPI   C4B 7840  12.000   6.960   8.299  0.1175  0.0918 -0.1288
  491loPI    C1 7841   9.151   5.454  10.409  0.0508 -0.4218  0.0280
  491loPI    C2 7842   8.897   5.658  10.640  0.0801 -0.2766 -0.0670
  491loPI    C3 7843   9.282   5.765  10.623  0.0806 -0.2946 -0.1726
  491loPI   PO4 7844   9.061   5.438  10.145 -0.0962  0.3102  0.1203
  491loPI   GL1 7845   8.655   5.614  10.003 -0.4163  0.3298 -0.3744
  491loPI   GL2 7846   8.487   5.828   9.981  0.1377  0.1472 -0.0977
  491loPI   C1A 7847   8.670   5.497   9.582 -0.5419 -0.0887  0.0611
  491loPI   C2A 7848   8.682   5.358   9.159 -0.1473 -0.3237 -0.5000
  491loPI   C3A 7849   8.660   5.430   8.720 -0.1638 -0.0614 -0.2702
  491loPI   C4A 7850   8.496   5.460   8.372 -0.4900 -0.2566  0.0110
  491loPI   C5A 7851   8.544   5.451   8.003  0.4450  0.1645 -0.0247
  491loPI   C6A 7852   8.524   5.740   7.763  0.1751 -0.1822  0.0695
  491loPI   C1B 7853   8.424   5.939   9.547  0.0540  0.3422 -0.0543
  491loPI   C2B 7854   8.369   5.800   9.046 -0.0643  0.2543 -0.2950
  491loPI   C3B 7855   8.402   5.883   8.608 -0.0514 -0.0181  0.0581
  491loPI   C4B 7856   8.613   5.978   8.204 -0.2225 -0.1700  0.0574
  492loPI    C1 7857  14.687   3.030  10.197 -0.0657 -0.0064  0.2136
  492loPI    C2 7858  14.380   3.170  10.411 -0.0261  0.1657  0.1596
  492loPI    C3 7859  14.728   3.367  10.409  0.0101  0.1013  0.0299
  492loPI   PO4 7860  14.689   3.087   9.896 -0.2249  0.0494  0.0895
  492loPI   GL1 7861  14.731   3.297   9.487  0.2085 -0.1228  0.0400
  492loPI   GL2 7862  15.095   3.429   9.279 -0.0249 -0.2612 -0.3313
  492loPI   C1A 7863  14.700   3.616   9.138 -0.1244 -0.5044 -0.1085
  492loPI   C2A 7864  14.590   3.692   8.675  0.1606 -0.1316  0.0813
  492loPI   C3A 7865  14.632   3.551   8.318 -0.0984 -0.5304 -0.1243
  492loPI   C4A 7866  14.873   3.521   7.865 -0.0568 -0.0125  0.4549
  492loPI   C5A 7867  14.744   3.413   7.472 -0.2268 -0.0330 -0.0067
  492loPI   C6A 7868  14.661   3.087   7.124 -0.5493 -0.0382 -0.4879
  492loPI   C1B 7869  15.069   3.455   8.822  0.1039 -0.1781  0.0097
  492loPI   C2B 7870  15.227   3.447   8.371 -0.2416 -0.2248 -0.0212
  492loPI   C3B 7871  15.241   3.756   8.057  0.4635 -0.1545  0.2886
  492loPI   C4B 7872  15.533   3.985   7.747  0.4192 -0.0224  0.4041
  493loPI    C1 7873  12.913   3.138   9.679 -0.0215  0.0452  0.1883
  493loPI    C2 7874  12.809   3.359   9.362 -0.0061  0.0546  0.1898
  493loPI    C3 7875  13.070   3.503   9.628 -0.0049  0.0392  0.1970
  493loPI   PO4 7876  12.642   3.017   9.762 -0.0821 -0.2751 -0.0045
  493loPI   GL1 7877  12.448   2.801   9.345 -0.0011  0.1094  0.2304
  493loPI   GL2 7878  12.799   2.698   9.434 -0.5594  0.0939  0.1798
  493loPI   C1A 7879  12.313   2.711   8.901 -0.2399  0.0648 -0.1889
  493loPI   C2A 7880  12.192   2.869   8.460 -0.0317 -0.0815 -0.0821
  493loPI   C3A 7881  12.101   2.995   8.076  0.1623 -0.0203  0.0124
  493loPI   C4A 7882  12.189   3.187   7.738 -0.0059  0.2394  0.2912
  493loPI   C5A 7883  12.453   3.439   7.450  0.2021 -0.1126 -0.1196
  493loPI   C6A 7884  12.396   3.820   7.040 -0.2398  0.3572 -0.1303
  493loPI   C1B 7885  12.821   2.963   8.984  0.3838  0.1571 -0.1317
  493loPI   C2B 7886  12.965   3.224   8.525  0.1056  0.0366  0.1412
  493loPI   C3B 7887  12.986   3.425   8.205 -0.1335  0.0392  0.5785
  493loPI   C4B 7888  13.041   3.794   7.874  0.0039 -0.0503  0.0838
  494loPI    C1 7889   6.611  11.529  10.031 -0.3119  0.0858  0.0226
  494loPI    C2 7890   6.709  11.432  10.406 -0.0446  0.2562 -0.0008
  494loPI    C3 7891   6.418  11.697  10.338 -0.3393 -0.0402  0.0754
  494loPI   PO4 7892   6.612  11.300   9.937 -0.0737  0.0138 -0.0383
  494loPI   GL1 7893   6.714  11.086   9.453 -0.3394 -0.0882  0.0290
  494loPI   GL2 7894   6.940  11.191   9.563  0.0201 -0.2393  0.4686
  494loPI   C1A 7895   6.661  11.030   8.949  0.0070 -0.3031  0.2099
  494loPI   C2A 7896   6.599  11.037   8.399  0.1911  0.0957 -0.0316
  494loPI   C3A 7897   6.567  11.262   8.008  0.2142  0.0893  0.2197
  494loPI   C4A 7898   6.235  11.505   7.779  0.1892  0.3739  0.0554
  494loPI   C5A 7899   6.197  11.988   7.647  0.1072 -0.0338  0.1580
  494loPI   C6A 7900   5.869  12.261   7.794 -0.1775 -0.1505 -0.0796
  494loPI   C1B 7901   7.146  11.418   9.195  0.0273 -0.0255  0.1834
  494loPI   C2B 7902   7.335  11.642   8.829  0.1361 -0.0092  0.0023
  494loPI   C3B 7903   7.556  11.565   8.608 -0.2437  0.0030 -0.1037
  494loPI   C4B 7904   7.566  11.343   8.359  0.3495  0.0137  0.2951
  495loPI    C1 7905  16.371  14.436   9.248  0.0846 -0.0145  0.0295
  495loPI    C2 7906  16.141  14.120   9.163  0.1867 -0.1789  0.3503
  495loPI    C3 7907  16.104  14.305   9.515 -0.0810  0.3571  0.0525
  495loPI   PO4 7908  16.631  14.418   9.168 -0.2882 -0.1202 -0.3747
  495loPI   GL1 7909  16.554  14.585   8.793  0.2164 -0.0721  0.0932
  495loPI   GL2 7910  16.675  14.201   8.755 -0.1514 -0.0752  0.0314
  495loPI   C1A 7911  16.695  14.586   8.365 -0.1107  0.3329  0.1436
  495loPI   C2A 7912  16.718  14.616   7.961 -0.1482  0.3277  0.1268
  495loPI   C3A 7913  16.816  14.576   7.562 -0.0016 -0.2441  0.0397
  495loPI   C4A 7914  16.721  14.352   7.174  0.1048 -0.0153  0.0780
  495loPI   C5A 7915  16.822  13.760   7.234  0.2065  0.0497  0.1567
  495loPI   C6A 7916  16.992  13.429   6.982 -0.1817  0.4922  0.2764
  495loPI   C1B 7917  16.808  13.902   8.526  0.3524  0.0386 -0.0538
  495loPI   C2B 7918  17.058  13.743   8.133 -0.2276 -0.1427  0.1271
  495loPI   C3B 7919  17.106  13.554   7.748  0.0714  0.0194 -0.1717
  495loPI   C4B 7920  17.218  13.521   7.415  0.3201 -0.1114  0.2337
  496loPI    C1 7921   4.063   5.698  10.440 -0.0006  0.0022  0.0507
  496loPI    C2 7922   3.977   5.824  10.071 -0.0761 -0.0272  0.0582
  496loPI    C3 7923   4.006   6.088  10.371 -0.0524 -0.0075  0.0386
  496loPI   PO4 7924   4.222   5.481  10.334  0.0289 -0.2253  0.0058
  496loPI   GL1 7925   4.549   5.395  10.044 -0.2144 -0.1455  0.0762
  496loPI   GL2 7926   4.254   5.454   9.872  0.0173 -0.0369 -0.2960
  496loPI   C1A 7927   4.708   5.184   9.716 -0.0428  0.0722 -0.0459
  496loPI   C2A 7928   4.754   5.042   9.270 -0.1225 -0.1334 -0.2050
  496loPI   C3A 7929   4.770   4.969   8.831 -0.2844 -0.1015  0.0927
  496loPI   C4A 7930   4.968   4.995   8.381  0.0718  0.1409 -0.0120
  496loPI   C5A 7931   5.002   4.844   7.933  0.0569  0.0454 -0.0716
  496loPI   C6A 7932   5.234   4.726   7.449  0.2423  0.1620 -0.0336
  496loPI   C1B 7933   4.215   5.345   9.455 -0.1000  0.0913  0.0204
  496loPI   C2B 7934   4.287   5.269   9.032 -0.4172  0.2201 -0.1009
  496loPI   C3B 7935   4.326   5.301   8.628  0.0762 -0.2574 -0.0326
  496loPI   C4B 7936   4.081   5.081   8.274 -0.1365  0.0288 -0.0969
  497loPI    C1 7937  11.262  16.000   9.565 -0.1128  0.0562  0.2209
  497loPI    C2 7938  11.542  16.242   9.415 -0.3199 -0.0676 -0.3961
  497loPI    C3 7939  11.641  15.876   9.541 -0.0349  0.2568  0.3882
  497loPI   PO4 7940  11.043  15.964   9.419  0.2300  0.0898  0.2394
  497loPI   GL1 7941  10.887  16.135   9.131  0.3067 -0.0500  0.0550
  497loPI   GL2 7942  11.124  16.406   9.148  0.1183 -0.3856 -0.1922
  497loPI   C1A 7943  10.764  16.179   8.777  0.4052  0.3067 -0.1496
  497loPI   C2A 7944  10.646  16.277   8.419 -0.0185  0.3068 -0.3020
  497loPI   C3A 7945  10.513  16.397   7.980  0.0386  0.1145 -0.1847
  497loPI   C4A 7946  10.654  16.375   7.621  0.1460 -0.4279  0.4081
  497loPI   C5A 7947  10.634  16.463   7.178 -0.1002 -0.0629  0.2419
  497loPI   C6A 7948  10.600  16.680   6.828  0.0968  0.1520  0.1532
  497loPI   C1B 7949  10.945  16.659   8.724 -0.4484  0.3842 -0.1874
  497loPI   C2B 7950  11.007  16.872   8.454 -0.1654  0.1430 -0.0279
  497loPI   C3B 7951  10.940  17.051   8.108 -0.0606 -0.2375 -0.1987
  497loPI   C4B 7952  11.167  17.027   7.768  0.3684 -0.4029  0.1035
  498loPI    C1 7953  12.519  18.421   9.872 -0.0556 -0.1263  0.0821
  498loPI    C2 7954  12.191  18.191   9.885 -0.0990 -0.0620  0.1280
  498loPI    C3 7955  12.224  18.507  10.128 -0.1106  0.0747 -0.0466
  498loPI   PO4 7956  12.550  18.442   9.581 -0.2592 -0.2759 -0.1664
  498loPI   GL1 7957  12.714  18.139   9.173  0.0007 -0.1647  0.0240
  498loPI   GL2 7958  12.960  18.171   8.867 -0.1574 -0.1998  0.1250
  498loPI   C1A 7959  12.500  18.221   8.722 -0.0918 -0.0700  0.0786
  498loPI   C2A 7960  12.615  18.399   8.358 -0.2107 -0.1323  0.1719
  498loPI   C3A 7961  12.691  18.214   7.905  0.0309 -0.1843 -0.3424
  498loPI   C4A 7962  12.622  18.373   7.442  0.0584  0.0527  0.1614
  498loPI   C5A 7963  12.410  18.360   7.099 -0.1132  0.4833 -0.0724
  498loPI   C6A 7964  12.219  18.103   6.814  0.0452 -0.1022 -0.2154
  498loPI   C1B 7965  13.108  18.069   8.506  0.1256  0.1640 -0.3137
  498loPI   C2B 7966  13.221  18.146   8.058 -0.1491  0.1323  0.1462
  498loPI   C3B 7967  13.239  18.425   7.706  0.0725  0.1257  0.0073
  498loPI   C4B 7968  13.231  18.161   7.310 -0.0851 -0.2107  0.2417
  499loPI    C1 7969  13.287  14.893   9.588 -0.0509  0.2106  0.2151
  499loPI    C2 7970  13.145  14.598   9.818 -0.0039  0.1973  0.2271
  499loPI    C3 7971  13.537  14.675   9.810  0.0093  0.1172  0.0570
  499loPI   PO4 7972  13.119  14.866   9.351 -0.1243  0.1615 -0.0577
  499loPI   GL1 7973  13.145  14.737   8.913 -0.3431  0.2149 -0.0120
  499loPI   GL2 7974  13.406  14.877   8.957 -0.2852  0.1876  0.3661
  499loPI   C1A 7975  13.217  14.604   8.522  0.0476 -0.3621  0.0766
  499loPI   C2A 7976  13.226  14.485   8.134  0.1398  0.2641  0.2294
  499loPI   C3A 7977  13.150  14.397   7.654  0.0433  0.0245  0.1747
  499loPI   C4A 7978  13.260  14.622   7.109  0.2255  0.1661 -0.4067
  499loPI   C5A 7979  13.310  14.761   6.693  0.3605  0.1932  0.0237
  499loPI   C6A 7980  13.198  15.177   6.514  0.1276  0.3735 -0.0828
  499loPI   C1B 7981  13.569  14.949   8.618 -0.2046 -0.1588  0.1041
  499loPI   C2B 7982  13.602  14.834   8.228  0.1749 -0.1038 -0.3777
  499loPI   C3B 7983  13.603  14.686   7.807 -0.1235  0.3347  0.4487
  499loPI   C4B 7984  13.707  14.764   7.510 -0.4111  0.1117 -0.0492
  500loPI    C1 7985  13.467   6.090  10.263  0.0453 -0.0209 -0.1277
  500loPI    C2 7986  13.860   6.088  10.335  0.0200 -0.2190  0.0121
  500loPI    C3 7987  13.629   5.793  10.476 -0.2426  0.1130  0.2912
  500loPI   PO4 7988  13.466   6.078  10.025  0.3542 -0.1896 -0.1445
  500loPI   GL1 7989  13.643   6.284   9.679 -0.2182 -0.0764 -0.0302
  500loPI   GL2 7990  13.596   6.676   9.615 -0.3214  0.1389  0.1413
  500loPI   C1A 7991  13.891   6.031   9.424  0.0491  0.1230  0.0815
  500loPI   C2A 7992  14.007   5.993   9.049 -0.0394 -0.1485  0.2919
  500loPI   C3A 7993  13.999   5.991   8.649 -0.2079  0.3532 -0.1278
  500loPI   C4A 7994  14.050   6.141   8.323 -0.0956  0.0299 -0.1082
  500loPI   C5A 7995  14.040   6.014   7.950 -0.0822  0.0619 -0.0629
  500loPI   C6A 7996  13.766   5.688   7.772  0.2634 -0.4641  0.0278
  500loPI   C1B 7997  13.669   6.613   9.176  0.1515 -0.4372 -0.0392
  500loPI   C2B 7998  13.859   6.424   8.849 -0.0373 -0.2757  0.3914
  500loPI   C3B 7999  14.120   6.589   8.491  0.0942 -0.4196  0.1670
  500loPI   C4B 8000  14.083   6.590   7.992 -0.2978 -0.0425 -0.1040
  501loPI    C1 8001  17.313  16.228   9.081 -0.1404  0.1726  0.2024
  501loPI    C2 8002  17.246  16.162   9.470 -0.1205 -0.1316  0.1567
  501loPI    C3 8003  17.034  15.964   9.194  0.0836 -0.1524  0.0124
  501loPI   PO4 8004  17.547  16.131   9.055  0.0859  0.5556 -0.1948
  501loPI   GL1 8005  17.725  16.218   8.725  0.0571  0.1066 -0.1620
  501loPI   GL2 8006  17.488  16.305   8.607 -0.0060 -0.1321 -0.0520
  501loPI   C1A 8007  18.006  16.064   8.374  0.0771 -0.0967  0.1280
  501loPI   C2A 8008  17.929  16.133   7.983  0.2213 -0.1420  0.4823
  501loPI   C3A 8009  18.092  16.172   7.564  0.1103  0.0896  0.4398
  501loPI   C4A 8010  18.151  16.003   7.129  0.1014  0.2674  0.0906
  501loPI   C5A 8011  18.037  15.878   6.675 -0.1506  0.2862  0.2623
  501loPI   C6A 8012  18.045  15.768   6.306  0.0293 -0.0088 -0.0353
  501loPI   C1B 8013  17.601  16.434   8.266 -0.0529 -0.2333  0.0688
  501loPI   C2B 8014  17.549  16.626   7.948  0.1220  0.1190 -0.0545
  501loPI   C3B 8015  17.692  16.559   7.526 -0.2806 -0.2434 -0.0384
  501loPI   C4B 8016  17.896  16.459   7.187  0.0462 -0.1551  0.0491
  502loPI    C1 8017   6.868   0.130   9.880  0.1930 -0.0714  0.0639
  502loPI    C2 8018   6.834   0.401  10.173  0.0914 -0.0999  0.0787
  502loPI    C3 8019   6.737   0.019  10.241 -0.3033 -0.0368 -0.0974
  502loPI   PO4 8020   6.750   0.253   9.672 -0.0027 -0.2231  0.0091
  502loPI   GL1 8021   6.559   0.556   9.344  0.0690 -0.0792 -0.1963
  502loPI   GL2 8022   6.849   0.556   9.278 -0.1728 -0.0006  0.2406
  502loPI   C1A 8023   6.428   0.071   9.050 -0.4526 -0.3008 -0.0222
  502loPI   C2A 8024   6.683   0.052   8.627  0.0951 -0.0693 -0.3534
  502loPI   C3A 8025   6.916  -0.130   8.241  0.2863 -0.1021 -0.1885
  502loPI   C4A 8026   6.722  -0.212   7.921 -0.0396 -0.0620 -0.2086
  502loPI   C5A 8027   6.609  -0.295   7.387 -0.2372  0.0484  0.0621
  502loPI   C6A 8028   6.238  -0.215   7.196  0.0161  0.1420 -0.3045
  502loPI   C1B 8029   6.585   0.533   8.850  0.1728 -0.0705 -0.1286
  502loPI   C2B 8030   6.608   0.509   8.442  0.3500 -0.0779 -0.4688
  502loPI   C3B 8031   6.902   0.455   8.167  0.1436  0.0167  0.2897
  502loPI   C4B 8032   7.019   0.186   7.902 -0.1470  0.1364  0.0254
  503loPI    C1 8033   5.491   7.977  10.174 -0.4136 -0.1478 -0.0854
  503loPI    C2 8034   5.264   8.203  10.414 -0.3022  0.0571 -0.1710
  503loPI    C3 8035   5.282   7.807  10.470 -0.4925  0.0692 -0.0149
  503loPI   PO4 8036   5.783   8.126  10.175  0.0675 -0.0837  0.2888
  503loPI   GL1 8037   5.932   7.703   9.851 -0.1840 -0.2480 -0.1582
  503loPI   GL2 8038   5.780   7.471   9.982 -0.0806  0.0133 -0.0916
  503loPI   C1A 8039   6.077   7.284   9.504  0.4140  0.3376 -0.2840
  503loPI   C2A 8040   6.028   6.899   9.200 -0.1180  0.1559  0.0292
  503loPI   C3A 8041   6.131   6.530   8.898  0.2761 -0.1455  0.0437
  503loPI   C4A 8042   6.197   6.577   8.426  0.2148  0.3943 -0.0050
  503loPI   C5A 8043   6.043   6.958   8.116 -0.2362 -0.2096 -0.1275
  503loPI   C6A 8044   6.338   7.246   7.865 -0.1393  0.4700  0.0263
  503loPI   C1B 8045   5.524   7.375   9.539 -0.0644 -0.0458 -0.0937
  503loPI   C2B 8046   5.633   7.426   9.098 -0.2751 -0.1850 -0.0472
  503loPI   C3B 8047   5.433   7.345   8.686 -0.0137 -0.0795 -0.1800
  503loPI   C4B 8048   5.488   7.172   8.217  0.4290  0.3901 -0.1187
  504loPI    C1 8049   1.589   9.244   9.427  0.0102 -0.1283 -0.2770
  504loPI    C2 8050   1.555   8.978   9.724 -0.1714 -0.1547 -0.3199
  504loPI    C3 8051   1.775   9.308   9.775 -0.1385 -0.1970 -0.1836
  504loPI   PO4 8052   1.400   9.215   9.177 -0.3204  0.2452  0.0054
  504loPI   GL1 8053   1.177   9.266   8.803  0.2518 -0.1238  0.0059
  504loPI   GL2 8054   1.497   9.342   8.663 -0.4871 -0.2185 -0.1260
  504loPI   C1A 8055   1.240   9.167   8.283  0.2596 -0.4047  0.1331
  504loPI   C2A 8056   1.125   9.342   7.799 -0.1595 -0.1947 -0.1580
  504loPI   C3A 8057   1.098   9.601   7.483  0.0691 -0.3035  0.5690
  504loPI   C4A 8058   0.953  10.052   7.258 -0.0483  0.0795  0.3510
  504loPI   C5A 8059   0.653  10.334   7.170 -0.1253  0.2176 -0.1474
  504loPI   C6A 8060   0.227  10.613   7.297  0.0749 -0.0045 -0.1771
  504loPI   C1B 8061   1.726   9.194   8.376 -0.2325 -0.2179 -0.0285
  504loPI   C2B 8062   1.746   9.284   7.990 -0.2612  0.0664 -0.0132
  504loPI   C3B 8063   1.792   9.444   7.617  0.0012  0.0318  0.1177
  504loPI   C4B 8064   1.634   9.474   7.228  0.1376 -0.1265 -0.0959
  505loPI    C1 8065  12.647   4.080   9.991 -0.1999 -0.0240 -0.2869
  505loPI    C2 8066  12.301   4.206  10.147 -0.0393  0.2446 -0.1395
  505loPI    C3 8067  12.613   4.454  10.128  0.2110 -0.0588 -0.0766
  505loPI   PO4 8068  12.611   3.954   9.736 -0.0175 -0.3608  0.2720
  505loPI   GL1 8069  12.645   4.100   9.293 -0.3038  0.0597 -0.2498
  505loPI   GL2 8070  12.927   3.843   9.310  0.3160  0.1582 -0.3804
  505loPI   C1A 8071  12.940   4.106   8.906  0.0208 -0.5086  0.1469
  505loPI   C2A 8072  12.894   4.371   8.561 -0.2617 -0.2529  0.0309
  505loPI   C3A 8073  12.871   4.637   8.216  0.0171 -0.2871 -0.4244
  505loPI   C4A 8074  12.778   4.904   7.834 -0.0994 -0.2394 -0.0698
  505loPI   C5A 8075  12.869   4.806   7.424 -0.2065  0.3270  0.2504
  505loPI   C6A 8076  13.294   5.067   7.457 -0.0671 -0.1950 -0.0042
  505loPI   C1B 8077  13.119   3.695   9.019 -0.2402 -0.1256  0.0046
  505loPI   C2B 8078  13.601   3.846   8.936 -0.2138  0.0257  0.1839
  505loPI   C3B 8079  13.687   3.979   8.483 -0.0802 -0.0976 -0.0695
  505loPI   C4B 8080  13.836   4.194   8.131  0.0505 -0.0701 -0.4544
  506loPI    C1 8081   1.428   8.072   9.850 -0.1427  0.1288  0.1605
  506loPI    C2 8082   1.168   7.813  10.008  0.0615 -0.0068  0.2782
  506loPI    C3 8083   1.103   8.206  10.041 -0.0214 -0.0368  0.4909
  506loPI   PO4 8084   1.474   7.954   9.551 -0.0496 -0.1671 -0.2509
  506loPI   GL1 8085   1.471   8.199   9.180 -0.2627 -0.2917 -0.0975
  506loPI   GL2 8086   1.230   8.033   9.062  0.0557  0.0799  0.2438
  506loPI   C1A 8087   1.714   8.466   8.820  0.0379  0.5140  0.0482
  506loPI   C2A 8088   1.721   8.264   8.444 -0.2492  0.1232 -0.1261
  506loPI   C3A 8089   1.847   8.016   8.078 -0.2263  0.1978  0.1014
  506loPI   C4A 8090   1.962   7.855   7.664 -0.0789  0.1614 -0.5009
  506loPI   C5A 8091   2.186   7.729   7.340 -0.3452  0.0069  0.1455
  506loPI   C6A 8092   2.432   7.535   7.089 -0.2384  0.3346 -0.2327
  506loPI   C1B 8093   0.992   7.991   8.697 -0.1312 -0.2642 -0.0785
  506loPI   C2B 8094   0.810   7.867   8.341 -0.0153 -0.0012 -0.0112
  506loPI   C3B 8095   0.779   7.858   7.912 -0.1122  0.1846 -0.0169
  506loPI   C4B 8096   0.819   7.378   7.674 -0.1888  0.1981  0.1852
  507loPI    C1 8097  11.792   3.622   9.999 -0.1156 -0.0876 -0.0189
  507loPI    C2 8098  12.159   3.773  10.050 -0.2076  0.2148 -0.2213
  507loPI    C3 8099  12.000   3.535  10.330  0.1203  0.1217 -0.1084
  507loPI   PO4 8100  11.774   3.553   9.746 -0.0996 -0.1670 -0.0233
  507loPI   GL1 8101  11.782   3.445   9.337  0.2409  0.0049  0.2788
  507loPI   GL2 8102  11.817   3.627   9.029  0.0308 -0.0461  0.0946
  507loPI   C1A 8103  11.447   3.200   9.106 -0.0589  0.2360  0.1390
  507loPI   C2A 8104  11.342   3.092   8.748 -0.0931 -0.0871  0.2735
  507loPI   C3A 8105  11.389   3.005   8.316  0.1042  0.4444  0.1656
  507loPI   C4A 8106  11.582   2.972   7.955  0.0623  0.2258  0.0104
  507loPI   C5A 8107  11.700   3.286   7.613  0.0181  0.0343  0.2901
  507loPI   C6A 8108  11.606   3.243   7.218 -0.0133 -0.3175 -0.0215
  507loPI   C1B 8109  11.582   3.618   8.649  0.2014 -0.0577  0.1097
  507loPI   C2B 8110  11.190   3.404   8.474 -0.2899 -0.0463 -0.0299
  507loPI   C3B 8111  10.880   3.528   8.073 -0.0557  0.0355 -0.2192
  507loPI   C4B 8112  10.717   3.669   7.686 -0.1496  0.0673 -0.1088
  508loPI    C1 8113   0.897  10.963  10.002 -0.1610  0.1157  0.0312
  508loPI    C2 8114   0.631  11.249  10.085 -0.0614  0.1785  0.1351
  508loPI    C3 8115   0.959  11.209  10.311 -0.1695 -0.1408  0.2407
  508loPI   PO4 8116   0.800  10.939   9.657 -0.3788  0.0117 -0.0800
  508loPI   GL1 8117   0.869  10.947   9.213 -0.3350  0.0072 -0.0439
  508loPI   GL2 8118   0.473  11.047   9.185 -0.1487 -0.0670 -0.2134
  508loPI   C1A 8119   0.796  11.019   8.760  0.1587  0.4288 -0.0988
  508loPI   C2A 8120   0.813  11.079   8.363  0.0061  0.1401  0.1320
  508loPI   C3A 8121   0.990  11.113   7.990 -0.0007  0.0260 -0.2476
  508loPI   C4A 8122   0.887  10.956   7.616 -0.4222  0.1578  0.2674
  508loPI   C5A 8123   0.715  10.817   7.261 -0.0675  0.0099 -0.0763
  508loPI   C6A 8124   0.707  10.717   6.815 -0.3075 -0.0688 -0.1046
  508loPI   C1B 8125   0.274  11.117   8.784  0.1990 -0.0694  0.0825
  508loPI   C2B 8126   0.167  11.235   8.413  0.0525  0.1454 -0.2226
  508loPI   C3B 8127   0.186  11.034   8.030 -0.1672 -0.4152 -0.2948
  508loPI   C4B 8128   0.424  10.913   7.680 -0.1954  0.1050  0.0926
  509loPI    C1 8129   3.606   1.257  10.457 -0.1067 -0.1321 -0.3550
  509loPI    C2 8130   3.720   0.903  10.309 -0.1776 -0.2651 -0.0982
  509loPI    C3 8131   3.850   1.020  10.669 -0.0787  0.0144 -0.2217
  509loPI   PO4 8132   3.644   1.395  10.269  0.1821 -0.1566  0.1873
  509loPI   GL1 8133   3.828   1.338   9.810  0.0835 -0.0991  0.3096
  509loPI   GL2 8134   4.076   1.555   9.740  0.4135 -0.0266  0.3692
  509loPI   C1A 8135   3.674   1.537   9.378  0.1067 -0.1331 -0.1361
  509loPI   C2A 8136   3.701   1.596   8.976  0.1647 -0.0950  0.2260
  509loPI   C3A 8137   3.867   1.621   8.445 -0.0211  0.1930  0.0030
  509loPI   C4A 8138   3.785   1.615   8.063 -0.2344  0.0969 -0.0120
  509loPI   C5A 8139   3.784   1.569   7.615 -0.0129 -0.0897  0.0530
  509loPI   C6A 8140   3.842   1.497   7.215  0.2601 -0.2225  0.1010
  509loPI   C1B 8141   4.173   1.448   9.407 -0.1468 -0.1821 -0.2529
  509loPI   C2B 8142   4.277   1.494   9.007 -0.1250 -0.3277 -0.2842
  509loPI   C3B 8143   4.303   1.570   8.646 -0.1400 -0.0693 -0.2613
  509loPI   C4B 8144   4.529   1.566   8.258 -0.2551  0.2445 -0.1422
  510loPI    C1 8145   8.317  15.449  10.033  0.2754  0.2100  0.0634
  510loPI    C2 8146   8.510  15.494  10.380  0.2512 -0.1785  0.1321
  510loPI    C3 8147   8.151  15.317  10.372 -0.0485  0.4090 -0.0130
  510loPI   PO4 8148   8.342  15.773   9.933  0.3871  0.4782  0.0007
  510loPI   GL1 8149   8.433  15.939   9.543 -0.1614 -0.3905  0.0814
  510loPI   GL2 8150   8.365  16.264   9.439  0.1958 -0.2340  0.2455
  510loPI   C1A 8151   8.678  16.062   9.086  0.1937  0.3590  0.1706
  510loPI   C2A 8152   8.760  16.075   8.580 -0.1962  0.0428 -0.0756
  510loPI   C3A 8153   8.811  15.948   8.186  0.0172  0.1123  0.0141
  510loPI   C4A 8154   8.713  15.711   7.803  0.0366 -0.1072  0.0328
  510loPI   C5A 8155   8.411  15.814   7.434 -0.4002 -0.0396  0.1377
  510loPI   C6A 8156   8.072  15.993   7.333  0.1196 -0.1626 -0.2197
  510loPI   C1B 8157   8.258  16.271   9.030  0.0853 -0.1826 -0.2264
  510loPI   C2B 8158   8.291  16.206   8.602  0.0756  0.0647 -0.0013
  510loPI   C3B 8159   8.306  16.019   8.207  0.0619 -0.1877  0.0232
  510loPI   C4B 8160   8.184  15.882   7.849  0.1881 -0.1421 -0.1494
  511loPI    C1 8161  17.927  10.862   9.723 -0.0335  0.2475  0.0977
  511loPI    C2 8162  17.640  10.695   9.947  0.0758 -0.0535  0.0188
  511loPI    C3 8163  17.975  10.830  10.119  0.1581 -0.2806  0.0400
  511loPI   PO4 8164  17.927  10.772   9.517  0.3320  0.2801  0.1649
  511loPI   GL1 8165  18.158  10.570   9.119  0.0833  0.1074 -0.0185
  511loPI   GL2 8166  17.991  10.474   8.976  0.1599 -0.0100 -0.0593
  511loPI   C1A 8167  18.333  10.856   8.839  0.0221 -0.0248  0.1313
  511loPI   C2A 8168  18.326  11.027   8.379 -0.2871  0.0293  0.0992
  511loPI   C3A 8169  18.290  11.007   7.873 -0.0729 -0.1421  0.1973
  511loPI   C4A 8170  18.310  10.832   7.486  0.1315 -0.3388  0.1251
  511loPI   C5A 8171  18.217  10.592   7.225 -0.1428  0.0172  0.1470
  511loPI   C6A 8172  18.171  10.169   7.082  0.2882 -0.3221 -0.1103
  511loPI   C1B 8173  18.186  10.400   8.604 -0.1190  0.0152  0.0595
  511loPI   C2B 8174  18.262  10.530   8.132 -0.2092 -0.0123 -0.0429
  511loPI   C3B 8175  18.354  10.388   7.755  0.4188 -0.0631 -0.1248
  511loPI   C4B 8176  18.581  10.267   7.437  0.4428  0.0556  0.0997
  512loPI    C1 8177   7.093  12.588   9.538  0.0942  0.1619 -0.1618
  512loPI    C2 8178   6.828  12.375   9.327 -0.0484 -0.0259  0.1979
  512loPI    C3 8179   6.986  12.223   9.661  0.2598  0.2214  0.1696
  512loPI   PO4 8180   7.035  12.845   9.552 -0.1671 -0.1599  0.1818
  512loPI   GL1 8181   6.972  13.240   9.341 -0.0627  0.1826  0.1298
  512loPI   GL2 8182   7.277  13.533   9.275 -0.1956 -0.0073  0.0518
  512loPI   C1A 8183   6.923  13.380   8.914  0.1001  0.1114 -0.2544
  512loPI   C2A 8184   6.771  13.181   8.564 -0.2126  0.1545  0.1602
  512loPI   C3A 8185   6.952  12.879   8.227  0.0583  0.2331 -0.1171
  512loPI   C4A 8186   6.797  12.527   7.982  0.0281 -0.0084  0.2478
  512loPI   C5A 8187   6.821  12.159   7.858  0.1462  0.0583 -0.0623
  512loPI   C6A 8188   6.725  11.777   7.829 -0.0926  0.2324 -0.0146
  512loPI   C1B 8189   7.730  13.588   9.083  0.0370  0.1845 -0.2254
  512loPI   C2B 8190   7.976  13.489   8.720  0.0476 -0.3634  0.1992
  512loPI   C3B 8191   8.082  13.453   8.240 -0.1508 -0.0396 -0.1163
  512loPI   C4B 8192   8.000  13.003   7.907 -0.1736 -0.2559 -0.1598
  513loPI    C1 8193   0.717   7.942   9.825  0.1257 -0.0827  0.2993
  513loPI    C2 8194   0.414   8.085  10.044 -0.1732 -0.3908  0.0958
  513loPI    C3 8195   0.708   7.879  10.220  0.0274  0.0747  0.3234
  513loPI   PO4 8196   0.715   8.067   9.655  0.1470 -0.1764  0.1073
  513loPI   GL1 8197   0.588   8.102   9.248 -0.1327  0.0061 -0.2920
  513loPI   GL2 8198   0.725   8.357   9.109 -0.4267 -0.0076 -0.3454
  513loPI   C1A 8199   0.513   7.902   8.912 -0.0981 -0.2494 -0.2857
  513loPI   C2A 8200   0.363   7.640   8.563  0.1561 -0.1576 -0.1004
  513loPI   C3A 8201   0.375   7.679   8.054 -0.0513 -0.2438  0.4320
  513loPI   C4A 8202   0.177   7.691   7.663  0.1023 -0.0846  0.2601
  513loPI   C5A 8203  -0.025   7.754   7.223 -0.3494  0.0572  0.3703
  513loPI   C6A 8204   0.030   7.607   6.808  0.4052 -0.1379 -0.0547
  513loPI   C1B 8205   0.628   8.343   8.695  0.3858  0.0760 -0.5866
  513loPI   C2B 8206   0.606   8.314   8.193  0.0057 -0.0744  0.1288
  513loPI   C3B 8207   1.017   8.294   7.874  0.1428 -0.0785  0.0500
  513loPI   C4B 8208   1.104   8.240   7.590  0.0924  0.0788 -0.1723
  514loPI    C1 8209   7.804   2.219  10.418 -0.2171  0.2284  0.1557
  514loPI    C2 8210   8.051   1.942  10.567 -0.1991 -0.0648 -0.3933
  514loPI    C3 8211   7.852   2.186  10.813  0.3320 -0.0829  0.0726
  514loPI   PO4 8212   7.834   2.293  10.146  0.0025 -0.0530 -0.3081
  514loPI   GL1 8213   7.789   2.350   9.645 -0.0839 -0.1788  0.1254
  514loPI   GL2 8214   8.246   2.229   9.487  0.1092  0.1073  0.0018
  514loPI   C1A 8215   7.572   2.305   9.232  0.3362 -0.1174  0.1277
  514loPI   C2A 8216   7.483   2.498   8.809 -0.0145  0.2186 -0.1395
  514loPI   C3A 8217   7.713   2.390   8.412 -0.0485 -0.1851  0.0819
  514loPI   C4A 8218   7.981   2.498   8.049 -0.0927  0.2610 -0.1141
  514loPI   C5A 8219   8.052   2.435   7.598 -0.0840  0.2213  0.0161
  514loPI   C6A 8220   8.141   2.103   7.332 -0.0483  0.0388  0.2765
  514loPI   C1B 8221   8.188   2.318   9.101  0.3568 -0.0544 -0.2480
  514loPI   C2B 8222   8.134   2.395   8.630 -0.1616 -0.1674  0.0874
  514loPI   C3B 8223   8.450   2.353   8.328  0.3634  0.1897 -0.4275
  514loPI   C4B 8224   8.513   2.442   7.839 -0.1919  0.1021 -0.2358
  515loPI    C1 8225  17.363   0.445   9.509  0.2625 -0.1554  0.1785
  515loPI    C2 8226  17.463   0.806   9.648 -0.0518  0.0044 -0.0006
  515loPI    C3 8227  17.103   0.652   9.732  0.1639 -0.3705  0.2673
  515loPI   PO4 8228  17.393   0.412   9.255 -0.1444 -0.3571 -0.1854
  515loPI   GL1 8229  17.701   0.438   9.011  0.0716  0.2186 -0.0544
  515loPI   GL2 8230  17.800   0.277   8.759 -0.0097 -0.1291  0.4185
  515loPI   C1A 8231  17.579   0.755   8.684 -0.1082  0.5544 -0.2946
  515loPI   C2A 8232  17.570   1.085   8.381  0.1096  0.0550  0.4362
  515loPI   C3A 8233  17.487   1.105   7.932 -0.0024 -0.1755  0.0706
  515loPI   C4A 8234  17.266   1.190   7.639 -0.0047 -0.1669  0.2403
  515loPI   C5A 8235  17.328   1.012   7.281  0.2243 -0.0733 -0.0941
  515loPI   C6A 8236  17.572   1.005   6.915 -0.1055 -0.0322  0.2997
  515loPI   C1B 8237  17.750   0.236   8.365 -0.0514  0.1180  0.1651
  515loPI   C2B 8238  17.777   0.213   7.924  0.1297 -0.1298 -0.3695
  515loPI   C3B 8239  17.787   0.117   7.492 -0.2019 -0.0359  0.1518
  515loPI   C4B 8240  17.741   0.046   7.011 -0.0770  0.1895 -0.1956
  516loPI    C1 8241   5.726  17.508  10.230 -0.2000  0.1927  0.0812
  516loPI    C2 8242   6.088  17.492  10.400  0.0576  0.5534 -0.4061
  516loPI    C3 8243   5.884  17.155  10.331  0.2135  0.3603  0.0418
  516loPI   PO4 8244   5.739  17.677  10.015  0.1255 -0.0626  0.0083
  516loPI   GL1 8245   5.645  17.689   9.586 -0.2740 -0.2997 -0.0524
  516loPI   GL2 8246   5.632  17.461   9.316  0.1221  0.0943  0.4299
  516loPI   C1A 8247   5.753  17.996   9.225 -0.1175 -0.0208 -0.1314
  516loPI   C2A 8248   5.783  18.118   8.728  0.2420  0.2360 -0.1240
  516loPI   C3A 8249   5.694  18.345   8.458 -0.1400  0.3602 -0.0321
  516loPI   C4A 8250   5.279  18.329   8.281  0.1108 -0.0012 -0.0222
  516loPI   C5A 8251   5.106  18.311   7.787 -0.0409  0.0807 -0.1657
  516loPI   C6A 8252   5.226  18.171   7.381  0.2222  0.3814 -0.0134
  516loPI   C1B 8253   5.604  17.595   8.799  0.6303  0.1819 -0.1640
  516loPI   C2B 8254   5.704  17.655   8.309 -0.1559 -0.0680  0.0881
  516loPI   C3B 8255   5.926  17.993   8.104  0.1103 -0.0318  0.0404
  516loPI   C4B 8256   6.024  18.129   7.588  0.3726  0.0248  0.4329
  517loPI    C1 8257  16.958  19.300   9.092 -0.0727 -0.0119  0.0242
  517loPI    C2 8258  17.220  19.255   9.392 -0.0362  0.0712  0.0050
  517loPI    C3 8259  16.897  19.487   9.441 -0.0930 -0.0105  0.0200
  517loPI   PO4 8260  17.101  19.394   8.895 -0.0056  0.2590 -0.0910
  517loPI   GL1 8261  17.461  19.298   8.634  0.0398 -0.0577  0.0695
  517loPI   GL2 8262  17.316  19.659   8.556  0.1171 -0.2289 -0.2741
  517loPI   C1A 8263  17.296  19.341   8.090  0.0250  0.0454 -0.2126
  517loPI   C2A 8264  17.387  19.153   7.652  0.2747 -0.2138 -0.3500
  517loPI   C3A 8265  17.389  19.112   7.342 -0.2045  0.3059 -0.3732
  517loPI   C4A 8266  17.390  19.028   6.888  0.1401  0.1022  0.3037
  517loPI   C5A 8267  17.145  18.769   6.642  0.3566 -0.1211 -0.3249
  517loPI   C6A 8268  16.785  18.595   6.405  0.0175  0.1217  0.0813
  517loPI   C1B 8269  17.438  19.856   8.121  0.0834 -0.1088  0.1638
  517loPI   C2B 8270  17.412  19.772   7.724 -0.0349  0.1478  0.2458
  517loPI   C3B 8271  17.394  19.616   7.251  0.2681  0.1078  0.0194
  517loPI   C4B 8272  17.367  19.576   6.776 -0.0610  0.2494  0.0008
  518loPI    C1 8273   2.652   1.791  10.430  0.3541  0.0371  0.0666
  518loPI    C2 8274   2.737   1.555  10.742  0.1144 -0.4587 -0.2309
  518loPI    C3 8275   2.360   1.674  10.678  0.2235 -0.0362 -0.1200
  518loPI   PO4 8276   2.768   1.667  10.183 -0.0803 -0.1063  0.0380
  518loPI   GL1 8277   2.643   1.431   9.871 -0.4190  0.2637  0.3453
  518loPI   GL2 8278   2.800   1.303   9.694 -0.1586  0.0316 -0.2275
  518loPI   C1A 8279   2.434   1.144   9.443 -0.2080  0.3222  0.1271
  518loPI   C2A 8280   2.525   0.925   9.007  0.3349  0.1368 -0.0072
  518loPI   C3A 8281   2.610   0.507   8.809 -0.1602  0.1982 -0.2777
  518loPI   C4A 8282   2.757   0.127   8.570  0.0745 -0.0664  0.0767
  518loPI   C5A 8283   2.717  -0.051   8.257 -0.1396 -0.0199 -0.0909
  518loPI   C6A 8284   2.418  -0.189   7.929  0.0387  0.0432 -0.2586
  518loPI   C1B 8285   2.910   1.156   9.285 -0.1671 -0.0149 -0.0590
  518loPI   C2B 8286   3.234   1.325   8.975 -0.2630 -0.2462 -0.3525
  518loPI   C3B 8287   3.467   1.292   8.579  0.2540 -0.2439  0.0660
  518loPI   C4B 8288   3.673   1.118   8.317 -0.0845  0.2247  0.0064
  519loPI    C1 8289  19.073   4.703   9.856  0.0192  0.0372 -0.1862
  519loPI    C2 8290  19.267   4.359   9.793  0.0165  0.0005  0.0007
  519loPI    C3 8291  19.106   4.435  10.151  0.2439  0.3091  0.0411
  519loPI   PO4 8292  18.991   4.710   9.572 -0.3698 -0.0607  0.1286
  519loPI   GL1 8293  18.704   4.476   9.357 -0.0530  0.0128  0.1649
  519loPI   GL2 8294  18.432   4.595   9.234 -0.1520 -0.0236  0.3693
  519loPI   C1A 8295  18.964   4.489   9.004  0.1967  0.0735 -0.0735
  519loPI   C2A 8296  18.898   4.491   8.495  0.3634 -0.0416  0.0277
  519loPI   C3A 8297  18.732   4.498   8.081  0.0400 -0.0063 -0.1011
  519loPI   C4A 8298  18.669   4.798   7.687 -0.0205 -0.1062  0.0896
  519loPI   C5A 8299  18.409   5.006   7.642 -0.2012 -0.0474 -0.0801
  519loPI   C6A 8300  18.155   5.266   7.763  0.1273  0.2883  0.0082
  519loPI   C1B 8301  18.578   4.741   8.784  0.3170  0.2645  0.1598
  519loPI   C2B 8302  18.404   5.181   8.626  0.4332  0.2192 -0.0019
  519loPI   C3B 8303  18.202   5.554   8.469 -0.0449 -0.2695 -0.0491
  519loPI   C4B 8304  18.327   5.781   8.134  0.0360  0.1838 -0.1188
  520loPI    C1 8305   0.330   5.584   9.862 -0.0991 -0.0567 -0.0034
  520loPI    C2 8306   0.191   5.930  10.005 -0.2802 -0.0728 -0.1380
  520loPI    C3 8307   0.432   5.704  10.230 -0.1160  0.1657 -0.0698
  520loPI   PO4 8308   0.454   5.674   9.682  0.0488 -0.0323  0.0222
  520loPI   GL1 8309   0.545   5.661   9.331 -0.4401  0.1735 -0.1216
  520loPI   GL2 8310   0.837   5.759   9.275 -0.0111 -0.0600 -0.2423
  520loPI   C1A 8311   0.520   5.472   8.940 -0.0896  0.0318  0.1386
  520loPI   C2A 8312   0.406   5.592   8.549  0.0153 -0.2883 -0.2163
  520loPI   C3A 8313   0.479   5.532   8.145 -0.3052  0.0829 -0.0987
  520loPI   C4A 8314   0.235   5.457   7.699 -0.4664 -0.2338  0.2601
  520loPI   C5A 8315   0.103   5.213   7.315 -0.1339 -0.5551  0.3002
  520loPI   C6A 8316  -0.030   5.130   6.921  0.0575  0.1739 -0.2251
  520loPI   C1B 8317   1.011   5.567   8.881 -0.0876 -0.1519 -0.0165
  520loPI   C2B 8318   0.911   5.459   8.449  0.1130 -0.0440  0.2270
  520loPI   C3B 8319   0.982   5.265   8.007  0.1392  0.0884 -0.3509
  520loPI   C4B 8320   1.224   5.338   7.592 -0.0509 -0.0672  0.3373
  521loPI    C1 8321   2.377  16.119   9.544  0.2352  0.0226 -0.0306
  521loPI    C2 8322   2.638  16.048   9.840 -0.0692 -0.1129  0.2112
  521loPI    C3 8323   2.291  16.232   9.918 -0.0074  0.1575 -0.1249
  521loPI   PO4 8324   2.379  15.924   9.398  0.0170  0.1290  0.1026
  521loPI   GL1 8325   2.620  15.965   8.961 -0.0577  0.2113  0.0680
  521loPI   GL2 8326   2.895  15.835   8.938 -0.1047 -0.2170  0.1707
  521loPI   C1A 8327   2.650  16.256   8.583  0.1732  0.0076  0.0266
  521loPI   C2A 8328   2.643  16.464   8.208  0.2975  0.0930 -0.1367
  521loPI   C3A 8329   2.643  16.394   7.831  0.3881  0.4389  0.0600
  521loPI   C4A 8330   3.053  16.399   7.630 -0.2975  0.2206  0.1428
  521loPI   C5A 8331   3.248  16.551   7.325 -0.1301 -0.0557 -0.3393
  521loPI   C6A 8332   3.358  16.689   6.844 -0.0737  0.3451  0.1474
  521loPI   C1B 8333   2.926  15.761   8.495 -0.0154  0.3924  0.1717
  521loPI   C2B 8334   2.922  15.620   8.182  0.1303  0.0984 -0.0940
  521loPI   C3B 8335   2.887  15.481   7.842  0.0744  0.0560  0.1176
  521loPI   C4B 8336   2.779  15.215   7.445 -0.1246  0.1910 -0.2544
  522loPI    C1 8337  18.103  18.218   9.620  0.1060 -0.0020  0.0239
  522loPI    C2 8338  18.050  18.578   9.454 -0.0757 -0.0345  0.0091
  522loPI    C3 8339  18.222  18.547   9.814  0.0689  0.0561 -0.0512
  522loPI   PO4 8340  18.222  18.076   9.345 -0.0800  0.0807  0.1096
  522loPI   GL1 8341  18.250  17.914   8.933 -0.5008  0.2041  0.0140
  522loPI   GL2 8342  18.470  17.690   8.878 -0.1561  0.0109 -0.1932
  522loPI   C1A 8343  18.126  17.731   8.539 -0.0096 -0.1077  0.4636
  522loPI   C2A 8344  18.067  17.464   8.291  0.0408  0.2464  0.2732
  522loPI   C3A 8345  18.052  17.497   7.878  0.1431  0.0749  0.0589
  522loPI   C4A 8346  17.870  17.680   7.626 -0.0944  0.3108  0.0362
  522loPI   C5A 8347  17.811  17.608   7.102 -0.1752 -0.1168  0.0398
  522loPI   C6A 8348  17.641  17.231   6.814 -0.2080  0.1887 -0.0210
  522loPI   C1B 8349  18.573  17.519   8.379  0.0566  0.2371 -0.2871
  522loPI   C2B 8350  18.535  17.668   7.960 -0.0312 -0.0861 -0.1443
  522loPI   C3B 8351  18.414  17.496   7.604  0.3551 -0.1999  0.0619
  522loPI   C4B 8352  18.228  17.320   7.272  0.4054  0.0185 -0.3682
  523loPI    C1 8353   2.302   3.222  10.196  0.2106 -0.0473  0.0643
  523loPI    C2 8354   2.405   3.404  10.537  0.0173  0.0754  0.0586
  523loPI    C3 8355   2.137   3.108  10.542 -0.0145  0.1031  0.0089
  523loPI   PO4 8356   2.507   3.150  10.018 -0.3039  0.1186 -0.2255
  523loPI   GL1 8357   2.461   2.913   9.675 -0.1651  0.1055  0.2091
  523loPI   GL2 8358   2.329   2.589   9.585 -0.1348  0.3125 -0.1638
  523loPI   C1A 8359   2.774   2.914   9.269 -0.1174 -0.1053  0.0405
  523loPI   C2A 8360   2.627   3.101   8.771  0.0365 -0.2178  0.1155
  523loPI   C3A 8361   2.727   3.031   8.375  0.2334  0.2781 -0.3728
  523loPI   C4A 8362   2.760   3.207   7.986  0.0578  0.0606  0.2790
  523loPI   C5A 8363   2.914   3.006   7.641 -0.1531  0.1547 -0.0413
  523loPI   C6A 8364   2.729   2.851   7.277 -0.2574 -0.2027 -0.0062
  523loPI   C1B 8365   2.496   2.532   9.191 -0.2784  0.0155 -0.1699
  523loPI   C2B 8366   2.691   2.585   8.857 -0.0556 -0.1175 -0.1901
  523loPI   C3B 8367   2.989   2.529   8.488 -0.0077  0.0864  0.0388
  523loPI   C4B 8368   3.094   2.766   8.078 -0.2164 -0.3888  0.2224
  524loPI    C1 8369  16.840   8.536   9.991  0.4038 -0.1492  0.1361
  524loPI    C2 8370  16.563   8.645  10.259 -0.0322 -0.1654 -0.2923
  524loPI    C3 8371  16.740   8.287  10.288 -0.0553 -0.1572 -0.0165
  524loPI   PO4 8372  16.726   8.592   9.777 -0.1005 -0.1245  0.4299
  524loPI   GL1 8373  16.600   8.460   9.448  0.0894 -0.1760 -0.2004
  524loPI   GL2 8374  16.393   8.770   9.392  0.1049  0.2711 -0.0362
  524loPI   C1A 8375  16.541   8.478   8.983  0.0447  0.0884  0.0934
  524loPI   C2A 8376  16.406   8.498   8.551 -0.3762  0.1796  0.0471
  524loPI   C3A 8377  16.346   8.283   8.147 -0.2770 -0.0285 -0.1618
  524loPI   C4A 8378  16.391   8.201   7.716 -0.3943  0.2753  0.2787
  524loPI   C5A 8379  16.504   7.996   7.390  0.2845 -0.1825  0.1705
  524loPI   C6A 8380  16.238   7.763   6.962  0.0838 -0.0782  0.1380
  524loPI   C1B 8381  16.444   8.997   8.963 -0.1441 -0.1651 -0.3970
  524loPI   C2B 8382  16.400   9.003   8.533  0.0071 -0.0045 -0.3929
  524loPI   C3B 8383  16.315   8.993   8.133 -0.2987  0.0881  0.1476
  524loPI   C4B 8384  15.900   8.968   7.842  0.3070 -0.1274  0.0530
  525loPI    C1 8385   8.810   0.916   9.991 -0.3291 -0.1529 -0.0673
  525loPI    C2 8386   8.959   0.547   9.949  0.0808 -0.0077  0.0556
  525loPI    C3 8387   8.762   0.646  10.283 -0.1589 -0.1543 -0.0394
  525loPI   PO4 8388   8.713   0.885   9.722 -0.5223  0.0091  0.0071
  525loPI   GL1 8389   8.797   0.713   9.406  0.0822  0.0378  0.3309
  525loPI   GL2 8390   9.110   0.763   9.174 -0.0691 -0.0733 -0.2200
  525loPI   C1A 8391   8.724   0.480   9.054 -0.1798 -0.0906 -0.0881
  525loPI   C2A 8392   8.934   0.157   8.959  0.1362  0.0535 -0.0919
  525loPI   C3A 8393   9.084  -0.209   8.621  0.0101  0.0867  0.0773
  525loPI   C4A 8394   9.122  -0.299   8.113  0.2000  0.1575  0.0266
  525loPI   C5A 8395   8.934  -0.413   7.667 -0.3705  0.0287  0.0150
  525loPI   C6A 8396   8.546  -0.439   7.305  0.0436  0.3872 -0.1111
  525loPI   C1B 8397   9.022   0.828   8.699  0.0074 -0.1139 -0.0029
  525loPI   C2B 8398   9.199   0.804   8.247  0.0858 -0.1230 -0.0121
  525loPI   C3B 8399   9.528   0.896   7.787  0.0949  0.0012 -0.0460
  525loPI   C4B 8400   9.629   1.144   7.457  0.4423  0.2172  0.0751
  526loPI    C1 8401   3.339  17.124  10.266 -0.0506  0.1763 -0.2129
  526loPI    C2 8402   3.365  16.730  10.327  0.1750  0.2126 -0.0607
  526loPI    C3 8403   3.013  16.895  10.231  0.0947 -0.0347 -0.2006
  526loPI   PO4 8404   3.534  17.095  10.003 -0.1539  0.1047 -0.4284
  526loPI   GL1 8405   3.575  17.350   9.551  0.2359 -0.1609 -0.0408
  526loPI   GL2 8406   3.784  17.643   9.562 -0.1427 -0.0865 -0.0055
  526loPI   C1A 8407   3.369  17.380   9.098  0.0233 -0.0391  0.3097
  526loPI   C2A 8408   3.314  17.525   8.662 -0.2954 -0.1542  0.0385
  526loPI   C3A 8409   3.341  17.729   8.296  0.3426  0.1027 -0.1277
  526loPI   C4A 8410   3.054  17.703   7.890  0.1157 -0.0291  0.3695
  526loPI   C5A 8411   2.985  17.855   7.496  0.2619  0.3025 -0.1289
  526loPI   C6A 8412   2.665  18.277   7.370 -0.1357  0.0305 -0.2307
  526loPI   C1B 8413   3.889  17.334   9.207  0.0013  0.2578 -0.2159
  526loPI   C2B 8414   3.909  17.394   8.733  0.2476 -0.0553 -0.3920
  526loPI   C3B 8415   3.962  17.256   8.314  0.0926 -0.1223  0.1683
  526loPI   C4B 8416   4.092  17.299   7.844 -0.2584  0.3190 -0.0293
  527loPI    C1 8417  13.486   1.993  10.028 -0.0943  0.0385  0.0586
  527loPI    C2 8418  13.164   1.755  10.016 -0.1065  0.0524  0.1075
  527loPI    C3 8419  13.119   2.153  10.019 -0.0950  0.0533  0.2889
  527loPI   PO4 8420  13.608   1.850   9.771 -0.1776 -0.0281  0.1314
  527loPI   GL1 8421  13.595   1.573   9.319 -0.1043 -0.1513 -0.3026
  527loPI   GL2 8422  13.582   1.888   9.249 -0.1353  0.3121  0.1343
  527loPI   C1A 8423  13.858   1.495   8.951  0.1816  0.2031  0.2200
  527loPI   C2A 8424  14.059   1.722   8.638  0.3119  0.0071 -0.1961
  527loPI   C3A 8425  13.933   1.679   8.292 -0.3810 -0.5676 -0.2231
  527loPI   C4A 8426  14.064   1.443   7.976  0.2549 -0.1442  0.1561
  527loPI   C5A 8427  13.957   1.255   7.634 -0.1540 -0.2140 -0.1083
  527loPI   C6A 8428  14.079   1.292   7.177  0.1057  0.2720  0.1299
  527loPI   C1B 8429  13.643   1.869   8.843 -0.0692 -0.4005  0.0226
  527loPI   C2B 8430  13.488   1.553   8.555  0.0843  0.3201  0.1826
  527loPI   C3B 8431  13.169   1.672   8.244 -0.1854  0.0422 -0.0803
  527loPI   C4B 8432  13.079   2.054   7.960  0.0218 -0.1639 -0.2293
  528loPI    C1 8433   4.488   1.994  10.324  0.1975  0.1976  0.0574
  528loPI    C2 8434   4.580   2.269  10.599  0.1413 -0.0283  0.3063
  528loPI    C3 8435   4.812   1.946  10.554  0.1340 -0.0067  0.1065
  528loPI   PO4 8436   4.516   2.079  10.085 -0.1473 -0.3441 -0.0595
  528loPI   GL1 8437   4.226   2.027   9.842  0.0327  0.1754 -0.0372
  528loPI   GL2 8438   4.214   2.261   9.720  0.1730  0.1197 -0.2046
  528loPI   C1A 8439   4.394   1.921   9.422  0.1167 -0.1223  0.1066
  528loPI   C2A 8440   4.482   1.998   9.043  0.1583 -0.2615  0.2508
  528loPI   C3A 8441   4.646   1.991   8.508  0.2958  0.2777 -0.1441
  528loPI   C4A 8442   4.754   1.969   8.079  0.4232 -0.1190  0.0118
  528loPI   C5A 8443   4.798   1.823   7.721  0.2811  0.0219 -0.1483
  528loPI   C6A 8444   5.148   1.987   7.548  0.2791 -0.1502 -0.0486
  528loPI   C1B 8445   4.384   2.529   9.334 -0.1617  0.0772 -0.1262
  528loPI   C2B 8446   4.494   2.473   8.888  0.2096  0.1374  0.1499
  528loPI   C3B 8447   4.541   2.668   8.455  0.4284  0.1067 -0.1996
  528loPI   C4B 8448   4.786   2.517   8.174 -0.2791  0.0659  0.3139
  529loPI    C1 8449  19.099   0.840   9.643  0.1141  0.2713  0.1139
  529loPI    C2 8450  18.868   0.841   9.971  0.1299 -0.1441  0.1326
  529loPI    C3 8451  19.145   0.557   9.922  0.1915 -0.0323 -0.2003
  529loPI   PO4 8452  18.912   0.906   9.492  0.2156 -0.0458  0.3670
  529loPI   GL1 8453  18.951   1.053   9.124  0.0787 -0.0503 -0.0992
  529loPI   GL2 8454  18.665   1.005   9.033 -0.2902 -0.0263  0.0370
  529loPI   C1A 8455  19.238   1.308   8.755  0.1502  0.2128  0.0033
  529loPI   C2A 8456  19.322   1.164   8.409 -0.2685 -0.3279 -0.1354
  529loPI   C3A 8457  19.304   1.219   7.942 -0.2018  0.2161 -0.0294
  529loPI   C4A 8458  19.382   1.149   7.518 -0.5189  0.2127  0.2525
  529loPI   C5A 8459  19.370   1.172   7.097 -0.3234 -0.3606 -0.3467
  529loPI   C6A 8460  19.688   1.115   6.761  0.2565  0.0604 -0.1389
  529loPI   C1B 8461  18.802   1.135   8.522  0.0058  0.3803  0.1217
  529loPI   C2B 8462  18.841   1.263   8.118 -0.1216 -0.0817  0.3345
  529loPI   C3B 8463  18.844   1.236   7.658 -0.0483 -0.0299  0.0480
  529loPI   C4B 8464  18.931   1.064   7.327 -0.2027  0.1095 -0.1162
  530loPI    C1 8465   6.977   1.704  10.445  0.1576 -0.0083  0.1644
  530loPI    C2 8466   6.659   1.591  10.230  0.2221 -0.2033  0.1691
  530loPI    C3 8467   6.619   1.671  10.620  0.1123  0.1135  0.0956
  530loPI   PO4 8468   7.133   1.892  10.198 -0.0518 -0.3413  0.2163
  530loPI   GL1 8469   7.163   1.837   9.769  0.0188 -0.2607  0.4795
  530loPI   GL2 8470   6.866   1.653   9.730  0.0307  0.2530 -0.0078
  530loPI   C1A 8471   7.287   1.891   9.343  0.1473 -0.4461  0.0336
  530loPI   C2A 8472   7.322   1.962   8.835  0.2196 -0.3898 -0.0692
  530loPI   C3A 8473   7.215   1.745   8.445 -0.1315 -0.4428 -0.0823
  530loPI   C4A 8474   6.867   1.557   8.236  0.0557 -0.0218 -0.1583
  530loPI   C5A 8475   6.892   1.828   7.883 -0.0904  0.1881  0.1801
  530loPI   C6A 8476   7.069   2.081   7.553  0.1140  0.0045 -0.3524
  530loPI   C1B 8477   6.723   1.968   9.437 -0.0424 -0.3949 -0.0388
  530loPI   C2B 8478   6.733   1.599   9.125 -0.1359 -0.1602 -0.0203
  530loPI   C3B 8479   6.456   1.585   8.596 -0.0784  0.1186  0.2318
  530loPI   C4B 8480   6.373   1.423   8.171  0.0826 -0.1033 -0.2167
  531loPI    C1 8481   2.704   6.183  10.274  0.3411 -0.2880 -0.1569
  531loPI    C2 8482   2.491   5.861  10.378 -0.0019 -0.0748 -0.1840
  531loPI    C3 8483   2.667   6.085  10.660  0.2990 -0.3232 -0.1698
  531loPI   PO4 8484   2.552   6.294  10.137  0.0043  0.1449  0.1821
  531loPI   GL1 8485   2.650   6.316   9.765  0.0488 -0.1307  0.0923
  531loPI   GL2 8486   2.729   6.628   9.839 -0.0267 -0.1358 -0.3299
  531loPI   C1A 8487   2.351   6.383   9.379  0.3469 -0.1713 -0.0681
  531loPI   C2A 8488   2.208   6.428   8.857 -0.1456 -0.3689  0.1891
  531loPI   C3A 8489   2.325   6.590   8.418  0.1383  0.0447  0.0616
  531loPI   C4A 8490   2.460   6.396   8.010  0.0446  0.2053  0.0764
  531loPI   C5A 8491   2.815   6.245   7.787 -0.2796  0.1231 -0.3165
  531loPI   C6A 8492   3.131   6.118   7.542 -0.2678  0.1263  0.0132
  531loPI   C1B 8493   2.907   6.627   9.490  0.2320  0.0077 -0.2492
  531loPI   C2B 8494   2.792   6.509   9.122  0.0805 -0.1755 -0.0432
  531loPI   C3B 8495   2.709   6.421   8.634  0.4083  0.1256  0.0303
  531loPI   C4B 8496   2.858   6.404   8.286 -0.1863  0.1333  0.1432
  532loPI    C1 8497   9.752   7.056  10.254 -0.3003 -0.2400 -0.0550
  532loPI    C2 8498   9.891   7.176  10.609  0.0459 -0.0807 -0.2391
  532loPI    C3 8499   9.502   7.094  10.564 -0.0450  0.1350  0.1121
  532loPI   PO4 8500   9.758   7.303  10.042  0.1048 -0.2977  0.0689
  532loPI   GL1 8501   9.471   7.255   9.819  0.1674  0.1992 -0.0703
  532loPI   GL2 8502   9.302   7.058  10.048 -0.0204 -0.0520  0.0945
  532loPI   C1A 8503   9.192   7.242   9.463  0.0866 -0.0236  0.0816
  532loPI   C2A 8504   8.933   7.268   9.165 -0.0861 -0.0249 -0.0231
  532loPI   C3A 8505   8.967   7.303   8.757  0.3107 -0.0227 -0.0276
  532loPI   C4A 8506   8.810   7.286   8.406  0.2331 -0.3536  0.0289
  532loPI   C5A 8507   8.706   7.269   8.045  0.1390 -0.2218  0.1251
  532loPI   C6A 8508   8.561   7.161   7.665 -0.1774  0.2446 -0.0984
  532loPI   C1B 8509   9.033   6.752   9.732 -0.0982  0.0655 -0.1560
  532loPI   C2B 8510   9.167   6.703   9.353  0.1949  0.1507 -0.2669
  532loPI   C3B 8511   9.269   6.876   8.926 -0.0572  0.3592 -0.0919
  532loPI   C4B 8512   9.350   6.689   8.552  0.2244 -0.1214  0.3766
  533loPI    C1 8513  14.492  16.019   9.708 -0.1457 -0.2174  0.0531
  533loPI    C2 8514  14.819  15.793   9.667 -0.1873 -0.2459 -0.1298
  533loPI    C3 8515  14.674  15.871  10.031  0.0653 -0.1717 -0.0435
  533loPI   PO4 8516  14.243  15.896   9.469 -0.2164  0.0569  0.1200
  533loPI   GL1 8517  14.316  16.140   9.029  0.2548 -0.1546  0.1998
  533loPI   GL2 8518  14.026  16.069   8.946  0.1508  0.0095  0.0646
  533loPI   C1A 8519  14.435  16.121   8.567  0.1559  0.1965 -0.4194
  533loPI   C2A 8520  14.598  16.244   8.062  0.0360  0.4787 -0.1249
  533loPI   C3A 8521  14.563  16.359   7.670 -0.0868  0.0203  0.1900
  533loPI   C4A 8522  14.766  16.242   7.398  0.0551 -0.2828  0.0657
  533loPI   C5A 8523  14.672  16.062   7.027 -0.0318 -0.0366  0.2012
  533loPI   C6A 8524  14.582  15.732   6.690 -0.0788 -0.5232 -0.0870
  533loPI   C1B 8525  14.079  15.759   8.667  0.3851  0.0501  0.0128
  533loPI   C2B 8526  13.831  15.749   8.261  0.3324  0.2538  0.1026
  533loPI   C3B 8527  14.040  15.563   7.937  0.1490 -0.0655  0.2133
  533loPI   C4B 8528  13.995  15.541   7.507 -0.2695  0.0354  0.0326
  534loPI    C1 8529   7.336  15.154  10.179  0.0708 -0.0832  0.0170
  534loPI    C2 8530   7.686  15.095  10.363 -0.0206  0.0143  0.2261
  534loPI    C3 8531   7.353  15.149  10.579 -0.1096  0.2538  0.0333
  534loPI   PO4 8532   7.371  15.425  10.084  0.2406  0.0807 -0.3026
  534loPI   GL1 8533   7.106  15.567   9.732  0.0596  0.4985 -0.0074
  534loPI   GL2 8534   6.995  15.807   9.647  0.1843 -0.1173  0.0246
  534loPI   C1A 8535   7.084  15.445   9.248  0.2651 -0.0032  0.0156
  534loPI   C2A 8536   7.161  15.402   8.975  0.2383 -0.2198 -0.0246
  534loPI   C3A 8537   7.071  15.466   8.598  0.2138  0.1490  0.0707
  534loPI   C4A 8538   7.013  15.382   8.201 -0.2679  0.1847 -0.0796
  534loPI   C5A 8539   6.904  15.064   8.085  0.0825 -0.2397 -0.0883
  534loPI   C6A 8540   6.511  14.981   7.907  0.0144 -0.0150  0.1538
  534loPI   C1B 8541   6.769  15.843   9.274  0.2063  0.3420  0.0147
  534loPI   C2B 8542   6.845  15.880   8.805 -0.2598  0.1624  0.0620
  534loPI   C3B 8543   6.934  15.911   8.331 -0.0376 -0.2400  0.1310
  534loPI   C4B 8544   6.692  15.996   7.913  0.2477  0.0157  0.2256
  535loPI    C1 8545  16.868   9.416   9.410  0.1019  0.1403 -0.0039
  535loPI    C2 8546  16.815   9.071   9.215 -0.0425  0.0666  0.1618
  535loPI    C3 8547  16.758   9.088   9.610  0.0377  0.2638  0.1663
  535loPI   PO4 8548  17.072   9.477   9.387  0.1302 -0.1256 -0.1925
  535loPI   GL1 8549  17.236   9.413   9.078  0.0914  0.1951  0.0238
  535loPI   GL2 8550  17.449   9.600   8.956 -0.1756  0.2244 -0.0211
  535loPI   C1A 8551  16.904   9.335   8.726  0.2150  0.1721  0.0117
  535loPI   C2A 8552  16.846   9.210   8.392  0.0243  0.2136 -0.1575
  535loPI   C3A 8553  16.672   9.278   7.952  0.0110  0.1297 -0.4011
  535loPI   C4A 8554  16.370   9.288   7.671  0.2775 -0.0712  0.0783
  535loPI   C5A 8555  16.201   9.400   7.257  0.1304 -0.2190  0.2286
  535loPI   C6A 8556  15.955   9.184   6.959 -0.1089 -0.0756 -0.2363
  535loPI   C1B 8557  17.295   9.587   8.568  0.1883  0.3144  0.0940
  535loPI   C2B 8558  17.215   9.452   8.095 -0.1043 -0.0651  0.2825
  535loPI   C3B 8559  17.412   9.502   7.733  0.1234 -0.0402  0.0498
  535loPI   C4B 8560  17.548   9.472   7.330  0.2424  0.1325  0.0465
  536loPI    C1 8561   3.009   5.706  10.472 -0.0496  0.0655  0.0174
  536loPI    C2 8562   2.725   5.522  10.685  0.0734 -0.2546 -0.0887
  536loPI    C3 8563   3.103   5.392  10.701  0.1933  0.0881 -0.0484
  536loPI   PO4 8564   2.988   5.735  10.252  0.1467 -0.0411 -0.1841
  536loPI   GL1 8565   3.004   5.635   9.839 -0.0320  0.0041  0.1577
  536loPI   GL2 8566   2.756   5.402   9.772 -0.0844  0.1418  0.0784
  536loPI   C1A 8567   3.240   5.674   9.420  0.0598  0.0331  0.1265
  536loPI   C2A 8568   3.352   5.646   8.968  0.1272  0.0107  0.3045
  536loPI   C3A 8569   3.427   5.895   8.646 -0.0151 -0.0427 -0.1786
  536loPI   C4A 8570   3.362   6.418   8.518  0.2544 -0.1486 -0.1042
  536loPI   C5A 8571   3.331   6.606   8.069  0.1229  0.2281 -0.1352
  536loPI   C6A 8572   3.479   6.480   7.650  0.2730  0.0632  0.0862
  536loPI   C1B 8573   2.772   5.341   9.348  0.2446  0.3094  0.1361
  536loPI   C2B 8574   3.105   5.242   9.065 -0.0437  0.2351  0.3936
  536loPI   C3B 8575   3.196   5.209   8.699 -0.3794  0.2971 -0.0609
  536loPI   C4B 8576   3.460   4.881   8.447 -0.3043  0.1744  0.0924
  537loPI    C1 8577  17.344   6.600  10.282 -0.0951  0.1881  0.0566
  537loPI    C2 8578  17.479   6.223  10.265  0.1446  0.2808 -0.1829
  537loPI    C3 8579  17.727   6.520  10.366 -0.1217  0.3397  0.3309
  537loPI   PO4 8580  17.221   6.588  10.041  0.1541 -0.0264 -0.2617
  537loPI   GL1 8581  16.847   6.467   9.730  0.0116 -0.1557 -0.0709
  537loPI   GL2 8582  16.865   6.736   9.631 -0.0297  0.1402  0.3793
  537loPI   C1A 8583  17.077   6.290   9.335  0.3069  0.0375 -0.0725
  537loPI   C2A 8584  17.231   5.850   9.129 -0.2426 -0.3733  0.0268
  537loPI   C3A 8585  16.905   5.671   8.877 -0.1562 -0.0374 -0.1457
  537loPI   C4A 8586  16.741   5.711   8.486 -0.2568  0.2454  0.1894
  537loPI   C5A 8587  16.823   5.744   8.020 -0.0873  0.6299 -0.0345
  537loPI   C6A 8588  16.981   5.883   7.654  0.0385  0.1648  0.0564
  537loPI   C1B 8589  17.028   6.805   9.273 -0.1285  0.1812 -0.0927
  537loPI   C2B 8590  17.100   6.700   8.863  0.3304 -0.0991 -0.2139
  537loPI   C3B 8591  17.153   6.668   8.368 -0.3876  0.1641 -0.1353
  537loPI   C4B 8592  17.214   6.865   7.932 -0.0771  0.2170  0.1290
  538loPI    C1 8593   2.828   9.709   9.688  0.1795 -0.0647  0.1028
  538loPI    C2 8594   2.608   9.581   9.996  0.0702 -0.0433  0.0344
  538loPI    C3 8595   3.002   9.515   9.990  0.0711 -0.0533  0.1732
  538loPI   PO4 8596   2.843  10.001   9.632 -0.1836 -0.1875  0.0545
  538loPI   GL1 8597   2.721  10.097   9.261 -0.2162  0.3692  0.0288
  538loPI   GL2 8598   2.719   9.731   9.188 -0.1040 -0.1943  0.1554
  538loPI   C1A 8599   2.829  10.317   8.931  0.0907 -0.1038  0.0245
  538loPI   C2A 8600   2.850  10.255   8.519  0.1329 -0.0590 -0.1963
  538loPI   C3A 8601   2.836  10.235   8.175  0.2983 -0.0956  0.0814
  538loPI   C4A 8602   2.965  10.231   7.782 -0.0947 -0.2176 -0.0180
  538loPI   C5A 8603   3.003  10.414   7.434  0.0006  0.4101  0.1473
  538loPI   C6A 8604   2.891  10.407   7.026 -0.1671 -0.1657  0.0772
  538loPI   C1B 8605   2.860   9.853   8.812 -0.0299  0.2023 -0.0981
  538loPI   C2B 8606   3.154   9.879   8.484 -0.4377  0.1050  0.0447
  538loPI   C3B 8607   3.073   9.808   8.079  0.0108 -0.3407  0.1134
  538loPI   C4B 8608   3.099   9.758   7.664  0.0956  0.2872  0.0886
  539loPI    C1 8609  17.432  15.634   9.239  0.1823 -0.0220 -0.0830
  539loPI    C2 8610  17.163  15.639   9.535  0.0974 -0.0226 -0.1596
  539loPI    C3 8611  17.554  15.638   9.620  0.0736  0.0110 -0.0482
  539loPI   PO4 8612  17.423  15.478   9.064  0.0244  0.2946 -0.4457
  539loPI   GL1 8613  17.341  15.416   8.659 -0.0826  0.1814 -0.1292
  539loPI   GL2 8614  17.350  15.837   8.712  0.0743  0.0608 -0.4022
  539loPI   C1A 8615  17.182  15.478   8.314  0.0574 -0.0538  0.5002
  539loPI   C2A 8616  17.263  15.563   7.914  0.0287  0.0619  0.0027
  539loPI   C3A 8617  17.204  15.737   7.560 -0.1080 -0.0995 -0.2027
  539loPI   C4A 8618  17.199  15.855   7.134  0.0165  0.1113 -0.0359
  539loPI   C5A 8619  16.913  15.824   6.854  0.3336 -0.0328  0.3042
  539loPI   C6A 8620  16.951  16.035   6.416 -0.1121 -0.3244 -0.4968
  539loPI   C1B 8621  17.376  15.928   8.273 -0.0871  0.0492 -0.0483
  539loPI   C2B 8622  17.446  16.126   7.909 -0.0556  0.0187 -0.0766
  539loPI   C3B 8623  17.612  16.089   7.414 -0.1542 -0.3857  0.0719
  539loPI   C4B 8624  17.618  16.098   6.933  0.2312 -0.0095  0.2893
  540loPI    C1 8625   5.168  13.054   9.859  0.1408  0.0893  0.0446
  540loPI    C2 8626   5.174  12.818  10.182  0.1345  0.1505  0.0899
  540loPI    C3 8627   4.987  13.171  10.197  0.1486  0.1607  0.0243
  540loPI   PO4 8628   5.125  12.863   9.691 -0.3387  0.1337  0.1634
  540loPI   GL1 8629   5.363  12.690   9.293  0.1186 -0.0849 -0.2941
  540loPI   GL2 8630   5.271  12.628   9.093 -0.0789  0.0537  0.2125
  540loPI   C1A 8631   5.260  13.065   8.875  0.0322  0.1736  0.1237
  540loPI   C2A 8632   5.239  13.428   8.856 -0.0507 -0.0827  0.0671
  540loPI   C3A 8633   5.390  13.650   8.648 -0.2070  0.1066 -0.0657
  540loPI   C4A 8634   5.416  13.593   8.122 -0.0828  0.3652  0.0743
  540loPI   C5A 8635   5.481  13.495   7.620  0.1321  0.3226  0.0307
  540loPI   C6A 8636   5.491  13.203   7.295 -0.1115  0.0363 -0.1386
  540loPI   C1B 8637   4.911  12.681   8.807  0.0452  0.3744  0.3880
  540loPI   C2B 8638   4.691  12.810   8.490  0.1399 -0.0185  0.1403
  540loPI   C3B 8639   4.599  13.103   8.057  0.3619 -0.0329 -0.2455
  540loPI   C4B 8640   4.535  13.493   8.224 -0.0159  0.1146  0.5334
  541loPI    C1 8641  13.247  18.601   9.240  0.1860  0.2484 -0.1665
  541loPI    C2 8642  13.413  18.577   9.603  0.1088  0.4968 -0.1128
  541loPI    C3 8643  13.586  18.394   9.292 -0.0066 -0.0071  0.1085
  541loPI   PO4 8644  12.993  18.719   9.361  0.2099  0.1704 -0.0404
  541loPI   GL1 8645  12.832  18.993   9.125 -0.1879 -0.0656  0.2777
  541loPI   GL2 8646  12.768  18.650   8.929 -0.0219  0.3072  0.2219
  541loPI   C1A 8647  13.067  19.035   8.730 -0.1357  0.1026  0.4447
  541loPI   C2A 8648  13.066  19.056   8.271 -0.2231 -0.2231  0.0759
  541loPI   C3A 8649  13.054  19.289   7.931 -0.2673  0.3928 -0.1618
  541loPI   C4A 8650  12.620  19.390   7.738 -0.2289 -0.1839 -0.0068
  541loPI   C5A 8651  12.432  19.642   7.530 -0.1833  0.2242  0.0579
  541loPI   C6A 8652  12.208  19.646   7.122 -0.2503  0.0619  0.0295
  541loPI   C1B 8653  12.548  18.800   8.688  0.0751  0.0612 -0.0680
  541loPI   C2B 8654  12.600  19.218   8.582 -0.0712 -0.2300 -0.1530
  541loPI   C3B 8655  12.329  19.509   8.352  0.2605  0.0038  0.0512
  541loPI   C4B 8656  12.370  19.791   8.026  0.1279 -0.3280  0.1535
  542loPI    C1 8657   1.941  18.128   9.797 -0.1016  0.1179  0.2764
  542loPI    C2 8658   1.976  17.769   9.970  0.0228  0.0116  0.0351
  542loPI    C3 8659   2.267  18.041  10.011  0.0369 -0.0015  0.0211
  542loPI   PO4 8660   1.865  18.037   9.561 -0.0249  0.1908  0.1090
  542loPI   GL1 8661   1.977  17.818   9.113  0.2417  0.1234  0.4177
  542loPI   GL2 8662   2.190  17.944   9.089 -0.2148 -0.3725 -0.0767
  542loPI   C1A 8663   1.920  17.955   8.581 -0.4473  0.0515  0.1099
  542loPI   C2A 8664   1.796  17.997   8.136  0.0698 -0.1493 -0.4365
  542loPI   C3A 8665   1.747  18.090   7.749 -0.3334  0.0522  0.1283
  542loPI   C4A 8666   1.738  17.912   7.448  0.1970  0.3768 -0.1838
  542loPI   C5A 8667   1.752  18.112   7.059 -0.0604  0.0200 -0.0877
  542loPI   C6A 8668   1.457  18.226   6.799 -0.1389  0.0895 -0.2740
  542loPI   C1B 8669   2.547  17.782   9.038  0.0171 -0.1397  0.0023
  542loPI   C2B 8670   2.746  17.864   8.631 -0.3035  0.0805 -0.0765
  542loPI   C3B 8671   2.630  17.670   8.254 -0.1409 -0.0154  0.2432
  542loPI   C4B 8672   2.571  17.503   7.892 -0.4669  0.1328  0.3116
  543loPI    C1 8673   3.393   0.542  10.133 -0.1552  0.3737  0.5994
  543loPI    C2 8674   3.259   0.212  10.314  0.0095 -0.0230  0.0254
  543loPI    C3 8675   3.002   0.455  10.128 -0.0367 -0.2164 -0.1672
  543loPI   PO4 8676   3.611   0.407   9.985 -0.0207  0.1243  0.1041
  543loPI   GL1 8677   3.786   0.355   9.479 -0.3587  0.3849  0.0124
  543loPI   GL2 8678   3.629   0.618   9.582  0.0685 -0.2358  0.1592
  543loPI   C1A 8679   3.906   0.152   9.230 -0.2261 -0.1766 -0.2017
  543loPI   C2A 8680   3.956   0.252   8.780  0.0256  0.2802  0.0073
  543loPI   C3A 8681   3.780   0.362   8.422  0.1970 -0.0524  0.3674
  543loPI   C4A 8682   3.601   0.145   8.077  0.1116 -0.1767 -0.0643
  543loPI   C5A 8683   3.530  -0.154   7.753  0.7245  0.1166  0.2115
  543loPI   C6A 8684   3.160  -0.430   7.616  0.0995 -0.0234 -0.2321
  543loPI   C1B 8685   3.352   0.613   9.223  0.0587 -0.3750  0.0865
  543loPI   C2B 8686   3.074   0.299   8.945  0.3023  0.0017 -0.1287
  543loPI   C3B 8687   3.171   0.265   8.415 -0.2858 -0.3962 -0.0079
  543loPI   C4B 8688   3.271   0.527   8.043 -0.2270 -0.3745  0.0834
  544loPI    C1 8689   4.527   7.047  10.470 -0.2940  0.2127 -0.0462
  544loPI    C2 8690   4.748   7.232  10.747 -0.2326 -0.1205  0.1324
  544loPI    C3 8691   4.376   7.112  10.834 -0.2902 -0.0394  0.0020
  544loPI   PO4 8692   4.583   7.142  10.233 -0.1538  0.1778 -0.1999
  544loPI   GL1 8693   4.828   7.065   9.983 -0.2045  0.1586 -0.4623
  544loPI   GL2 8694   5.073   6.915   9.979  0.0234  0.0434  0.1125
  544loPI   C1A 8695   4.675   6.789   9.635  0.0219  0.2772  0.0741
  544loPI   C2A 8696   4.793   6.681   9.230  0.2112  0.0683  0.2386
  544loPI   C3A 8697   4.676   6.575   8.762 -0.1115  0.0279 -0.1465
  544loPI   C4A 8698   4.755   6.570   8.296 -0.0711 -0.1720 -0.1254
  544loPI   C5A 8699   4.425   6.465   8.005 -0.1307  0.1305  0.0130
  544loPI   C6A 8700   4.012   6.443   7.775  0.2517  0.2309  0.4556
  544loPI   C1B 8701   5.201   6.861   9.568  0.1889  0.0509  0.0630
  544loPI   C2B 8702   5.447   6.977   9.233 -0.2157  0.0730 -0.1592
  544loPI   C3B 8703   5.560   6.849   8.838  0.3769 -0.0566 -0.2327
  544loPI   C4B 8704   5.674   6.759   8.410 -0.1199 -0.2988  0.2762
  545loPI    C1 8705  15.076   1.288   9.354 -0.3184 -0.1122 -0.0729
  545loPI    C2 8706  14.734   1.322   9.559 -0.2166 -0.2013  0.1144
  545loPI    C3 8707  15.049   1.137   9.723 -0.0241  0.0267  0.0089
  545loPI   PO4 8708  15.073   1.578   9.250  0.2920  0.1239 -0.0755
  545loPI   GL1 8709  15.132   1.838   8.953  0.1989  0.0234  0.2157
  545loPI   GL2 8710  15.184   2.053   8.830  0.0803 -0.0441  0.0429
  545loPI   C1A 8711  14.647   1.824   8.682 -0.2199 -0.0805 -0.2263
  545loPI   C2A 8712  14.422   1.836   8.298  0.1185  0.0632 -0.0170
  545loPI   C3A 8713  14.391   1.903   7.941  0.3283 -0.0720 -0.3684
  545loPI   C4A 8714  14.371   1.604   7.638  0.1316  0.0705 -0.0561
  545loPI   C5A 8715  14.566   1.624   7.195 -0.1332 -0.0621 -0.0415
  545loPI   C6A 8716  14.968   1.298   7.037  0.3213 -0.0588 -0.1808
  545loPI   C1B 8717  15.331   2.340   8.458  0.1535  0.2131 -0.0341
  545loPI   C2B 8718  15.500   2.469   8.103  0.1231 -0.3101  0.0256
  545loPI   C3B 8719  15.529   2.636   7.668 -0.2082  0.1446 -0.0256
  545loPI   C4B 8720  15.861   2.634   7.352  0.0546 -0.1199 -0.3104
  546loPI    C1 8721  18.431   1.736   9.338 -0.0029 -0.1376 -0.0550
  546loPI    C2 8722  18.072   1.844   9.477  0.0788  0.0966 -0.0214
  546loPI    C3 8723  18.328   1.651   9.715  0.0031 -0.0077 -0.0236
  546loPI   PO4 8724  18.463   1.973   9.178 -0.1566  0.1805  0.0515
  546loPI   GL1 8725  18.441   2.117   8.700  0.2636  0.2840  0.0947
  546loPI   GL2 8726  18.702   2.409   8.766  0.2383  0.2520  0.0227
  546loPI   C1A 8727  18.449   2.078   8.259 -0.0761 -0.0579  0.0852
  546loPI   C2A 8728  18.491   1.902   7.836  0.1306 -0.2386  0.2450
  546loPI   C3A 8729  18.555   1.775   7.459 -0.0731  0.1181 -0.1972
  546loPI   C4A 8730  18.534   1.421   7.268 -0.1499  0.2817 -0.2908
  546loPI   C5A 8731  18.476   1.045   7.099 -0.0396 -0.2349  0.1630
  546loPI   C6A 8732  18.073   0.940   7.024  0.2559 -0.2050 -0.0541
  546loPI   C1B 8733  18.489   2.548   8.385 -0.1252 -0.1373 -0.0711
  546loPI   C2B 8734  18.557   2.738   8.100 -0.0055 -0.1077  0.0671
  546loPI   C3B 8735  18.490   2.792   7.664  0.2345  0.1665 -0.0318
  546loPI   C4B 8736  18.333   2.752   7.200 -0.2166 -0.2951  0.2645
  547loPI    C1 8737  13.552   0.641   9.469 -0.0886  0.0900  0.2457
  547loPI    C2 8738  13.799   0.402   9.674  0.0826  0.0366 -0.0180
  547loPI    C3 8739  13.782   0.792   9.760  0.1283  0.0089  0.1191
  547loPI   PO4 8740  13.641   0.516   9.157 -0.1108  0.1815  0.1483
  547loPI   GL1 8741  13.590   0.517   8.730  0.1070 -0.2069  0.0161
  547loPI   GL2 8742  13.852   0.849   8.668 -0.0112 -0.1631 -0.5380
  547loPI   C1A 8743  13.618   0.518   8.317 -0.2373  0.0194  0.1289
  547loPI   C2A 8744  13.554   0.455   7.756  0.1722  0.3010  0.0897
  547loPI   C3A 8745  13.512   0.523   7.270  0.0629 -0.0506 -0.0062
  547loPI   C4A 8746  13.526   0.732   6.843 -0.1635 -0.0238 -0.3506
  547loPI   C5A 8747  13.199   0.865   6.611 -0.3499  0.0591  0.0338
  547loPI   C6A 8748  12.806   0.742   6.758  0.2569 -0.0554  0.2171
  547loPI   C1B 8749  13.865   1.228   8.496  0.3054 -0.3347 -0.5083
  547loPI   C2B 8750  13.633   1.263   8.129  0.2781  0.0436  0.3581
  547loPI   C3B 8751  13.341   1.415   7.855 -0.0207 -0.0511 -0.1527
  547loPI   C4B 8752  13.225   1.787   7.543 -0.1778  0.2302 -0.3200
  548loPI    C1 8753  18.197  15.671   9.484  0.0918 -0.0909 -0.1121
  548loPI    C2 8754  18.036  15.702   9.849  0.1855  0.0305 -0.0805
  548loPI    C3 8755  18.282  15.399   9.764  0.0837 -0.0543 -0.0739
  548loPI   PO4 8756  17.969  15.669   9.373  0.0091  0.2884 -0.0882
  548loPI   GL1 8757  17.968  15.564   9.039 -0.0681  0.1266 -0.0319
  548loPI   GL2 8758  17.847  15.719   8.797  0.1446 -0.0759 -0.0579
  548loPI   C1A 8759  18.268  15.246   8.729 -0.1055  0.0559  0.3032
  548loPI   C2A 8760  18.187  15.257   8.339  0.0893 -0.3766  0.1773
  548loPI   C3A 8761  18.061  14.979   8.047 -0.1316  0.2030  0.0666
  548loPI   C4A 8762  17.841  14.707   7.961  0.0336 -0.2403  0.1254
  548loPI   C5A 8763  17.976  14.505   7.607  0.3388  0.2541  0.2088
  548loPI   C6A 8764  17.772  14.229   7.305  0.1345 -0.0581 -0.0137
  548loPI   C1B 8765  17.784  15.613   8.491 -0.0519  0.0472  0.1230
  548loPI   C2B 8766  17.751  15.592   8.129  0.2868  0.1028  0.1670
  548loPI   C3B 8767  17.815  15.692   7.671 -0.1066 -0.4697  0.0246
  548loPI   C4B 8768  17.676  15.603   7.290 -0.0037 -0.0498 -0.0109
  549loPI    C1 8769   6.375   8.104  10.467  0.0663  0.0715 -0.2243
  549loPI    C2 8770   6.118   7.857  10.648 -0.2003  0.4087 -0.1322
  549loPI    C3 8771   6.498   7.744  10.592 -0.2998  0.0083 -0.0336
  549loPI   PO4 8772   6.228   8.310  10.208  0.0025  0.0499 -0.0561
  549loPI   GL1 8773   6.117   8.511   9.788  0.0124 -0.3448 -0.2471
  549loPI   GL2 8774   6.051   8.132   9.728 -0.0399  0.0694 -0.1019
  549loPI   C1A 8775   6.434   8.528   9.408 -0.3047 -0.0015 -0.2992
  549loPI   C2A 8776   6.567   8.505   9.002 -0.2804 -0.3521 -0.1465
  549loPI   C3A 8777   6.642   8.520   8.561 -0.0262  0.1856 -0.0181
  549loPI   C4A 8778   6.270   8.308   8.205 -0.4824 -0.4649  0.1451
  549loPI   C5A 8779   6.310   7.987   7.987 -0.0894  0.1433  0.2169
  549loPI   C6A 8780   6.058   7.730   7.707 -0.4536  0.0716  0.2006
  549loPI   C1B 8781   6.246   7.930   9.396 -0.3016  0.0431 -0.0816
  549loPI   C2B 8782   6.382   7.578   9.249 -0.0708 -0.2121 -0.1084
  549loPI   C3B 8783   6.139   7.412   8.941 -0.1915  0.1556  0.0551
  549loPI   C4B 8784   5.871   7.175   8.656  0.1696 -0.1206  0.0730
  550loPI    C1 8785  15.746  16.397   9.555  0.0947  0.0159 -0.1411
  550loPI    C2 8786  16.094  16.566   9.657 -0.1295  0.3601  0.0722
  550loPI    C3 8787  15.913  16.313   9.909 -0.0937  0.2734  0.0114
  550loPI   PO4 8788  15.706  16.556   9.330 -0.0077  0.2700  0.0664
  550loPI   GL1 8789  15.490  16.634   8.940 -0.1103 -0.3170 -0.0030
  550loPI   GL2 8790  15.856  16.718   8.829  0.1777  0.2042  0.0175
  550loPI   C1A 8791  15.386  16.368   8.636 -0.1089  0.2308 -0.2007
  550loPI   C2A 8792  15.467  16.138   8.267 -0.1381 -0.0148  0.0726
  550loPI   C3A 8793  15.505  16.102   7.802  0.0527 -0.0031  0.2662
  550loPI   C4A 8794  15.350  16.047   7.350 -0.1687 -0.1339  0.2735
  550loPI   C5A 8795  15.111  16.248   7.114  0.1677 -0.0712 -0.4148
  550loPI   C6A 8796  15.030  16.550   6.652  0.0803  0.1884 -0.0723
  550loPI   C1B 8797  15.763  16.695   8.452 -0.1167  0.2233  0.6958
  550loPI   C2B 8798  15.453  16.664   8.195 -0.1305 -0.1006 -0.0568
  550loPI   C3B 8799  15.357  16.816   7.842  0.0998 -0.0048  0.1649
  550loPI   C4B 8800  15.243  17.040   7.479 -0.0684 -0.0516 -0.2788
  551loPI    C1 8801   6.935  17.748   9.748  0.0199  0.0207  0.0401
  551loPI    C2 8802   6.873  17.486   9.452  0.0296 -0.2063  0.2358
  551loPI    C3 8803   6.562  17.641   9.650  0.0088  0.1606 -0.0728
  551loPI   PO4 8804   7.024  17.899   9.686 -0.3474 -0.0124 -0.1614
  551loPI   GL1 8805   6.874  17.963   9.284 -0.1114 -0.0840  0.2272
  551loPI   GL2 8806   6.733  17.806   9.082  0.3246  0.4269 -0.1290
  551loPI   C1A 8807   6.767  18.271   8.952 -0.0927 -0.0467  0.0291
  551loPI   C2A 8808   6.836  18.349   8.580  0.1518  0.2249 -0.0553
  551loPI   C3A 8809   6.864  18.280   8.136  0.2302  0.1222 -0.1121
  551loPI   C4A 8810   7.169  18.283   7.803  0.2148 -0.4709 -0.2855
  551loPI   C5A 8811   7.017  18.449   7.466 -0.2354 -0.0011  0.0088
  551loPI   C6A 8812   6.988  18.403   7.038 -0.0674  0.0972 -0.1022
  551loPI   C1B 8813   6.671  17.734   8.589  0.0061 -0.1548  0.0532
  551loPI   C2B 8814   6.780  17.691   8.174 -0.2535 -0.0930 -0.0828
  551loPI   C3B 8815   6.570  17.575   7.898  0.2634 -0.0752 -0.2253
  551loPI   C4B 8816   6.645  17.567   7.458  0.3030 -0.1276  0.3294
  552loPI    C1 8817  14.689   7.017  10.292  0.0644 -0.0629  0.0904
  552loPI    C2 8818  14.307   7.134  10.297  0.0971  0.0460  0.0672
  552loPI    C3 8819  14.447   6.895  10.586  0.0338  0.0772  0.1241
  552loPI   PO4 8820  14.702   6.965  10.081  0.1261 -0.0235 -0.2238
  552loPI   GL1 8821  14.432   7.044   9.783 -0.2314  0.0644 -0.2481
  552loPI   GL2 8822  14.391   7.321   9.613 -0.0392  0.0460  0.0821
  552loPI   C1A 8823  14.471   6.894   9.329 -0.0287 -0.4190 -0.1398
  552loPI   C2A 8824  14.530   6.779   8.858 -0.1524 -0.1741 -0.0653
  552loPI   C3A 8825  14.795   6.560   8.559  0.0828 -0.1072  0.0064
  552loPI   C4A 8826  14.565   6.523   8.108  0.4217  0.1216  0.1501
  552loPI   C5A 8827  14.647   6.704   7.753 -0.3937 -0.2547  0.2785
  552loPI   C6A 8828  14.894   7.025   7.562  0.0585 -0.0274 -0.1078
  552loPI   C1B 8829  14.559   7.523   9.277  0.0463  0.0526  0.1635
  552loPI   C2B 8830  14.646   7.702   8.877 -0.2603  0.0794 -0.0429
  552loPI   C3B 8831  14.611   7.641   8.578  0.1635  0.4079  0.2564
  552loPI   C4B 8832  14.411   7.447   8.222  0.2881 -0.0214 -0.2994
  553loPI    C1 8833   2.478  12.315   9.775  0.0845  0.0435 -0.0664
  553loPI    C2 8834   2.380  12.119  10.110  0.1586 -0.1517 -0.1573
  553loPI    C3 8835   2.144  12.412   9.973 -0.0063 -0.2441 -0.0742
  553loPI   PO4 8836   2.547  12.027   9.626  0.2423  0.2672 -0.1882
  553loPI   GL1 8837   2.844  11.987   9.288  0.0118  0.1159 -0.0266
  553loPI   GL2 8838   2.698  11.855   9.098 -0.1516  0.1736  0.0308
  553loPI   C1A 8839   2.955  12.293   8.892 -0.1146  0.2346 -0.0170
  553loPI   C2A 8840   2.891  12.347   8.457 -0.1223 -0.1814  0.4111
  553loPI   C3A 8841   2.930  12.521   8.120  0.1911  0.0562  0.1362
  553loPI   C4A 8842   2.687  12.306   7.779  0.1615  0.0713  0.1047
  553loPI   C5A 8843   2.735  12.116   7.281 -0.1753 -0.1410  0.1274
  553loPI   C6A 8844   2.752  11.677   7.096  0.0087 -0.1939  0.1721
  553loPI   C1B 8845   2.975  11.826   8.658 -0.3290  0.0634  0.0702
  553loPI   C2B 8846   3.098  11.867   8.213 -0.1097  0.1539 -0.2509
  553loPI   C3B 8847   3.153  12.163   7.911 -0.0463  0.0103  0.0247
  553loPI   C4B 8848   3.437  12.188   7.564  0.0404  0.1522 -0.2642
  554loPI    C1 8849  10.647   6.859  10.230  0.0276  0.0719  0.2799
  554loPI    C2 8850  11.037   6.914  10.161 -0.0035 -0.1112 -0.0665
  554loPI    C3 8851  10.853   7.122  10.450  0.2947  0.1575 -0.0648
  554loPI   PO4 8852  10.548   6.773  10.046 -0.3302 -0.0661 -0.1680
  554loPI   GL1 8853  10.617   6.842   9.621  0.1373 -0.0325 -0.0652
  554loPI   GL2 8854  10.462   7.037   9.499 -0.2691 -0.0743  0.1993
  554loPI   C1A 8855  10.658   6.779   9.155  0.0439 -0.4468 -0.0175
  554loPI   C2A 8856  10.805   6.620   8.869 -0.1018  0.1777 -0.0979
  554loPI   C3A 8857  10.813   6.443   8.356  0.3226  0.0258  0.3391
  554loPI   C4A 8858  10.842   6.500   7.890 -0.1636 -0.1805  0.2589
  554loPI   C5A 8859  11.087   6.711   7.604  0.0174 -0.2306  0.2413
  554loPI   C6A 8860  11.292   6.849   7.177  0.1873  0.0498 -0.0050
  554loPI   C1B 8861  10.187   7.075   9.170  0.0764  0.0825  0.0356
  554loPI   C2B 8862  10.172   7.369   8.889 -0.1270 -0.0537  0.1269
  554loPI   C3B 8863  10.196   7.390   8.472  0.2125 -0.2276 -0.3096
  554loPI   C4B 8864  10.356   7.259   8.074 -0.1074  0.4074  0.0814
  555loPI    C1 8865  18.867   5.094  10.064 -0.0068  0.0959  0.1187
  555loPI    C2 8866  18.492   5.049  10.196 -0.0096 -0.0810  0.0518
  555loPI    C3 8867  18.757   4.753  10.242  0.0457 -0.0646 -0.1517
  555loPI   PO4 8868  18.800   5.182   9.730 -0.2934 -0.0704  0.1537
  555loPI   GL1 8869  18.845   5.156   9.353 -0.0576  0.1938 -0.2312
  555loPI   GL2 8870  18.800   5.463   9.329  0.1171  0.1134  0.0730
  555loPI   C1A 8871  18.751   5.137   8.924  0.2901 -0.0042 -0.0297
  555loPI   C2A 8872  18.887   5.030   8.547  0.0822 -0.3382  0.0779
  555loPI   C3A 8873  18.952   4.966   8.118  0.1945 -0.3518  0.1286
  555loPI   C4A 8874  18.952   5.319   7.812  0.0550  0.2275 -0.1832
  555loPI   C5A 8875  18.716   5.654   7.773 -0.1151  0.2862  0.2490
  555loPI   C6A 8876  18.588   6.087   7.584 -0.1422 -0.0426 -0.0675
  555loPI   C1B 8877  18.801   5.814   9.288 -0.1432  0.0926  0.2858
  555loPI   C2B 8878  18.679   5.979   8.970 -0.1775 -0.3473  0.1362
  555loPI   C3B 8879  18.719   6.103   8.617  0.0632 -0.1424  0.3343
  555loPI   C4B 8880  18.760   6.040   8.153  0.0187  0.2480 -0.0510
  556loPI    C1 8881   0.560  16.333   9.203 -0.0716  0.0520  0.0993
  556loPI    C2 8882   0.812  16.562   8.994 -0.0324  0.0355  0.1281
  556loPI    C3 8883   0.590  16.723   9.286 -0.1032  0.0629  0.0593
  556loPI   PO4 8884   0.636  16.142   9.339 -0.4377  0.3432 -0.4248
  556loPI   GL1 8885   0.786  15.758   9.081  0.3725 -0.0975  0.1576
  556loPI   GL2 8886   0.984  16.033   8.994 -0.5076 -0.2302 -0.2472
  556loPI   C1A 8887   0.822  15.634   8.632  0.2553 -0.4319  0.3160
  556loPI   C2A 8888   0.920  15.651   8.161 -0.0354  0.1089  0.2680
  556loPI   C3A 8889   1.147  15.540   7.714  0.2094  0.0450  0.1989
  556loPI   C4A 8890   1.406  15.622   7.292 -0.1138 -0.0582 -0.2721
  556loPI   C5A 8891   1.551  15.649   6.880  0.3907  0.1139 -0.3360
  556loPI   C6A 8892   1.613  15.543   6.446  0.1445 -0.2507  0.1164
  556loPI   C1B 8893   0.783  16.242   8.609  0.0671 -0.2176  0.2982
  556loPI   C2B 8894   0.846  16.240   8.255  0.1590  0.0666  0.0360
  556loPI   C3B 8895   0.822  16.049   7.895 -0.1527  0.0969  0.1788
  556loPI   C4B 8896   0.907  15.940   7.527 -0.2499  0.1368  0.1163
  557loPI    C1 8897  13.239   8.733  10.075  0.1899 -0.1670  0.1269
  557loPI    C2 8898  13.032   8.903  10.372  0.0957 -0.1123  0.0305
  557loPI    C3 8899  13.198   8.542  10.425  0.2643 -0.0087  0.2233
  557loPI   PO4 8900  13.009   8.915   9.881 -0.1624  0.2746  0.3962
  557loPI   GL1 8901  13.037   8.896   9.420 -0.0862  0.3285 -0.1059
  557loPI   GL2 8902  12.680   8.850   9.499 -0.1522 -0.2220  0.0911
  557loPI   C1A 8903  13.167   8.951   8.950 -0.1972  0.1933  0.0284
  557loPI   C2A 8904  13.152   9.051   8.467  0.3030 -0.0210  0.0294
  557loPI   C3A 8905  12.907   9.122   8.073 -0.1838 -0.1165  0.0304
  557loPI   C4A 8906  12.699   9.106   7.603 -0.2812 -0.2284 -0.1580
  557loPI   C5A 8907  12.772   8.901   7.190  0.0210 -0.2931 -0.1455
  557loPI   C6A 8908  12.810   9.076   6.815 -0.2734 -0.4036  0.0005
  557loPI   C1B 8909  12.610   8.662   9.130  0.0609  0.1372  0.1361
  557loPI   C2B 8910  12.627   8.592   8.676  0.1106  0.0172  0.0264
  557loPI   C3B 8911  12.650   8.513   8.254  0.2390  0.2177 -0.0687
  557loPI   C4B 8912  12.568   8.645   7.815 -0.0374 -0.3552  0.0543
  558loPI    C1 8913  15.124   9.903   9.947 -0.0798  0.3028  0.0642
  558loPI    C2 8914  14.840   9.732  10.172  0.0079 -0.0528 -0.0884
  558loPI    C3 8915  15.072  10.020  10.326 -0.1103 -0.1045  0.1902
  558loPI   PO4 8916  14.938  10.001   9.724 -0.0014  0.1505 -0.0056
  558loPI   GL1 8917  14.886   9.986   9.320  0.1824  0.0010  0.1261
  558loPI   GL2 8918  14.803   9.702   9.271 -0.0900  0.0376 -0.3250
  558loPI   C1A 8919  14.822  10.077   8.799  0.1901  0.0422  0.1113
  558loPI   C2A 8920  14.909   9.983   8.311  0.2815 -0.0200  0.0256
  558loPI   C3A 8921  14.747  10.031   7.914 -0.1682  0.0499 -0.0890
  558loPI   C4A 8922  14.559  10.014   7.505 -0.1023  0.0371  0.1441
  558loPI   C5A 8923  14.417   9.913   7.269 -0.0458  0.0592 -0.2790
  558loPI   C6A 8924  14.139   9.660   6.958  0.1908 -0.0332 -0.0207
  558loPI   C1B 8925  15.035   9.611   8.878  0.3779 -0.1243 -0.1892
  558loPI   C2B 8926  14.920   9.509   8.506 -0.1613  0.1290 -0.2742
  558loPI   C3B 8927  14.696   9.542   8.079  0.0197  0.1973 -0.1181
  558loPI   C4B 8928  14.781   9.528   7.673  0.3028 -0.2961  0.1646
  559loPI    C1 8929   0.173   0.063   9.373 -0.2931 -0.0114 -0.0798
  559loPI    C2 8930   0.239   0.214   9.737 -0.4113  0.2526 -0.1653
  559loPI    C3 8931  -0.095   0.006   9.664 -0.2611 -0.0341 -0.0546
  559loPI   PO4 8932   0.212   0.288   9.148  0.1717  0.0777 -0.1823
  559loPI   GL1 8933   0.168   0.150   8.730 -0.0336  0.1943 -0.0586
  559loPI   GL2 8934  -0.029   0.330   8.597 -0.0500  0.1343 -0.0178
  559loPI   C1A 8935   0.493   0.383   8.449 -0.1321  0.0630  0.2463
  559loPI   C2A 8936   0.620   0.439   8.004 -0.0222  0.0365 -0.1978
  559loPI   C3A 8937   0.725   0.554   7.657  0.4021  0.2662 -0.2008
  559loPI   C4A 8938   0.961   0.772   7.299  0.0183 -0.1822  0.2142
  559loPI   C5A 8939   1.363   0.820   7.066  0.1592 -0.1799  0.4127
  559loPI   C6A 8940   1.518   0.497   6.850 -0.0317  0.0244 -0.2295
  559loPI   C1B 8941   0.105   0.365   8.114 -0.3192 -0.2320 -0.1509
  559loPI   C2B 8942   0.191   0.460   7.760  0.2729  0.1715  0.1573
  559loPI   C3B 8943   0.076   0.515   7.504  0.0738 -0.2839 -0.1735
  559loPI   C4B 8944  -0.055   0.717   7.197 -0.1732 -0.0625 -0.0960
  560loPI    C1 8945  16.122   3.331   9.904 -0.3150  0.0228 -0.0649
  560loPI    C2 8946  16.015   3.132  10.234 -0.2885  0.0999 -0.0096
  560loPI    C3 8947  16.290   2.978   9.988 -0.1160  0.1634  0.1410
  560loPI   PO4 8948  15.955   3.447   9.648 -0.0963  0.0696 -0.1645
  560loPI   GL1 8949  16.127   3.692   9.364 -0.2070  0.0908  0.0264
  560loPI   GL2 8950  15.726   3.822   9.392  0.0697 -0.0163 -0.0583
  560loPI   C1A 8951  15.977   3.737   8.900  0.1002 -0.3067  0.0564
  560loPI   C2A 8952  16.010   4.101   8.637  0.2537  0.1173 -0.0288
  560loPI   C3A 8953  15.946   4.127   8.208 -0.1928 -0.0802  0.0137
  560loPI   C4A 8954  16.118   4.327   7.908  0.0377  0.0054 -0.1776
  560loPI   C5A 8955  16.135   4.364   7.460 -0.0080  0.2330 -0.0960
  560loPI   C6A 8956  15.953   4.354   7.097  0.0837  0.0536  0.0857
  560loPI   C1B 8957  15.680   4.137   9.229 -0.0526 -0.2322  0.0011
  560loPI   C2B 8958  15.396   4.494   9.055  0.2983 -0.0428 -0.0045
  560loPI   C3B 8959  15.244   4.868   8.785 -0.1122  0.1824  0.1300
  560loPI   C4B 8960  15.122   5.034   8.374 -0.2099  0.1103 -0.0110
  561loPI    C1 8961  19.191  18.971   9.264 -0.1523 -0.0705 -0.0764
  561loPI    C2 8962  19.000  18.621   9.230 -0.0528 -0.1336  0.0053
  561loPI    C3 8963  19.125  18.746   9.589  0.3466 -0.2475 -0.0880
  561loPI   PO4 8964  19.325  18.971   9.039 -0.1816  0.0940 -0.0099
  561loPI   GL1 8965  19.053  18.966   8.702  0.0958 -0.3222  0.0709
  561loPI   GL2 8966  18.937  18.718   8.750  0.0113 -0.0889  0.1616
  561loPI   C1A 8967  19.234  19.181   8.329  0.1666 -0.0637  0.1866
  561loPI   C2A 8968  19.248  19.158   7.888  0.0477 -0.2311 -0.0885
  561loPI   C3A 8969  19.234  19.307   7.463  0.0200 -0.1637  0.0586
  561loPI   C4A 8970  19.674  19.539   7.219  0.0908 -0.0505 -0.0015
  561loPI   C5A 8971  20.053  19.570   7.083  0.0690 -0.2136 -0.1278
  561loPI   C6A 8972  20.383  19.617   6.991 -0.1625  0.0043  0.4798
  561loPI   C1B 8973  18.957  18.687   8.287 -0.0353 -0.1963  0.0374
  561loPI   C2B 8974  18.742  18.452   7.898  0.2233  0.0282 -0.1855
  561loPI   C3B 8975  18.769  18.384   7.519 -0.2437  0.2906 -0.1870
  561loPI   C4B 8976  18.753  18.012   7.387 -0.4385  0.2603 -0.0775
  562loPI    C1 8977  15.928   9.719   9.485 -0.2803  0.1055 -0.0144
  562loPI    C2 8978  15.694   9.744   9.808  0.0115 -0.2026  0.2288
  562loPI    C3 8979  16.005   9.493   9.806  0.1125 -0.0827 -0.2336
  562loPI   PO4 8980  15.852   9.935   9.319 -0.0588  0.2396 -0.2085
  562loPI   GL1 8981  15.564   9.905   8.957  0.2997 -0.1621  0.2717
  562loPI   GL2 8982  15.948   9.686   8.904 -0.3513  0.0618 -0.3304
  562loPI   C1A 8983  15.302   9.918   8.581 -0.1031 -0.0129  0.0427
  562loPI   C2A 8984  15.385  10.245   8.257  0.2993 -0.1553  0.2882
  562loPI   C3A 8985  15.154  10.360   7.939  0.0723 -0.0842 -0.1238
  562loPI   C4A 8986  14.999  10.380   7.512  0.0660 -0.0760  0.3138
  562loPI   C5A 8987  14.785  10.426   7.129  0.1324 -0.3743 -0.0415
  562loPI   C6A 8988  14.499  10.703   6.913  0.1733  0.0498 -0.4323
  562loPI   C1B 8989  15.853   9.860   8.512  0.4731  0.1905 -0.2883
  562loPI   C2B 8990  15.759   9.955   8.021 -0.0546 -0.1325  0.1481
  562loPI   C3B 8991  15.688  10.082   7.552 -0.3983 -0.2289 -0.0109
  562loPI   C4B 8992  15.516  10.146   7.101  0.0449 -0.0541 -0.2186
  563loPI    C1 8993  15.364  13.589   9.026  0.2420 -0.0083 -0.1979
  563loPI    C2 8994  15.156  13.796   8.754 -0.2989 -0.0889  0.1399
  563loPI    C3 8995  15.220  13.951   9.117  0.1021 -0.1342  0.0929
  563loPI   PO4 8996  15.219  13.300   8.995 -0.1123 -0.1321  0.1988
  563loPI   GL1 8997  15.269  13.218   8.601 -0.0112 -0.1964  0.3989
  563loPI   GL2 8998  15.565  13.166   8.615 -0.1951  0.5218 -0.0612
  563loPI   C1A 8999  14.991  13.494   8.393 -0.1143  0.1572  0.3188
  563loPI   C2A 9000  15.116  13.642   7.875  0.0028 -0.2126 -0.1985
  563loPI   C3A 9001  15.042  14.010   7.711 -0.0973 -0.1522 -0.0586
  563loPI   C4A 9002  15.019  14.188   7.272 -0.0477 -0.1510 -0.1270
  563loPI   C5A 9003  15.052  14.535   7.069 -0.2319  0.0747  0.1796
  563loPI   C6A 9004  15.130  14.932   6.983 -0.1115 -0.1218 -0.1486
  563loPI   C1B 9005  15.527  13.552   8.378  0.0291 -0.2554 -0.3927
  563loPI   C2B 9006  15.673  13.858   7.970  0.0955  0.1800  0.4330
  563loPI   C3B 9007  15.433  13.861   7.542 -0.1311 -0.2287 -0.0874
  563loPI   C4B 9008  15.627  13.793   7.133  0.1115 -0.1441 -0.2250
  564loPI    C1 9009   1.328   4.443  10.055 -0.1183 -0.3579 -0.0220
  564loPI    C2 9010   1.002   4.287  10.227  0.0409 -0.2512  0.3878
  564loPI    C3 9011   1.199   4.586  10.405  0.2231 -0.1470  0.0221
  564loPI   PO4 9012   1.255   4.489   9.763 -0.1238  0.1300  0.0731
  564loPI   GL1 9013   1.401   4.439   9.296 -0.1992  0.1494  0.1125
  564loPI   GL2 9014   1.689   4.221   9.403  0.3869  0.0124 -0.1109
  564loPI   C1A 9015   1.555   4.275   8.921 -0.0086  0.1018  0.0494
  564loPI   C2A 9016   1.638   4.194   8.462  0.0869  0.1980 -0.2438
  564loPI   C3A 9017   1.694   3.995   8.101  0.1208  0.2080  0.2679
  564loPI   C4A 9018   2.056   3.790   7.911 -0.2280  0.0366 -0.0028
  564loPI   C5A 9019   2.088   3.391   7.727  0.1273  0.0921 -0.1193
  564loPI   C6A 9020   2.342   3.163   7.470 -0.0357 -0.0402  0.1719
  564loPI   C1B 9021   1.998   4.180   9.049  0.0328 -0.4776 -0.0253
  564loPI   C2B 9022   2.037   4.059   8.674 -0.2479 -0.0629  0.2475
  564loPI   C3B 9023   2.140   4.114   8.280  0.0625 -0.0656 -0.1240
  564loPI   C4B 9024   1.989   4.278   7.781 -0.6257 -0.1638  0.0937
  565loPI    C1 9025   0.183  18.525   9.348 -0.1307 -0.0404  0.2094
  565loPI    C2 9026   0.529  18.523   9.550 -0.0081 -0.0856  0.0016
  565loPI    C3 9027   0.184  18.459   9.743  0.0574  0.3591  0.2811
  565loPI   PO4 9028   0.210  18.384   9.204  0.0617 -0.1311  0.2746
  565loPI   GL1 9029   0.261  18.571   8.823  0.1597 -0.1608  0.0450
  565loPI   GL2 9030   0.436  18.944   8.755 -0.0014 -0.0143 -0.0173
  565loPI   C1A 9031   0.157  18.685   8.396  0.2235 -0.1555  0.2067
  565loPI   C2A 9032   0.132  18.610   7.982  0.2278  0.0811 -0.1259
  565loPI   C3A 9033   0.142  18.289   7.586 -0.1885 -0.1457 -0.4077
  565loPI   C4A 9034   0.361  18.211   7.171  0.0944  0.0950 -0.0939
  565loPI   C5A 9035   0.601  17.890   7.002  0.0530 -0.3228 -0.0125
  565loPI   C6A 9036   0.685  17.539   7.297 -0.1312  0.1097  0.3049
  565loPI   C1B 9037   0.425  19.190   8.360  0.0046  0.0638 -0.1825
  565loPI   C2B 9038   0.438  19.258   7.967 -0.4133  0.3002 -0.1695
  565loPI   C3B 9039   0.391  19.156   7.538 -0.1184  0.1024  0.1921
  565loPI   C4B 9040   0.194  19.097   7.055 -0.0469  0.3789  0.1656
  566loPI    C1 9041  15.486   6.570  10.506  0.0538 -0.1159  0.0122
  566loPI    C2 9042  15.359   6.512  10.881  0.3043 -0.1044  0.1003
  566loPI    C3 9043  15.358   6.880  10.724 -0.1159 -0.1555 -0.0293
  566loPI   PO4 9044  15.357   6.408  10.187 -0.0263 -0.0269  0.2748
  566loPI   GL1 9045  15.374   6.454   9.778 -0.1226  0.0234  0.1136
  566loPI   GL2 9046  15.417   6.078   9.800 -0.2224  0.0856  0.1365
  566loPI   C1A 9047  15.341   6.548   9.388 -0.0180  0.1128 -0.1834
  566loPI   C2A 9048  15.430   6.430   8.895  0.0064 -0.0677  0.1949
  566loPI   C3A 9049  15.239   6.284   8.528 -0.2294 -0.5988  0.0520
  566loPI   C4A 9050  15.028   6.196   8.270  0.1788  0.1575  0.0134
  566loPI   C5A 9051  15.251   6.204   7.926 -0.0340 -0.3689  0.1100
  566loPI   C6A 9052  15.568   6.181   7.596 -0.1163 -0.1026 -0.1023
  566loPI   C1B 9053  15.653   6.127   9.383 -0.2241  0.2253  0.5648
  566loPI   C2B 9054  15.621   5.930   9.008 -0.0654 -0.0495 -0.2249
  566loPI   C3B 9055  15.475   5.829   8.647 -0.0012  0.2213  0.0243
  566loPI   C4B 9056  15.362   5.699   8.267 -0.0448 -0.1038 -0.1016
  567loPI    C1 9057   3.270  10.129  10.035  0.1132 -0.1039  0.1698
  567loPI    C2 9058   3.307  10.475   9.839 -0.2180 -0.2139 -0.0978
  567loPI    C3 9059   2.974  10.398  10.046  0.0342 -0.1958  0.3262
  567loPI   PO4 9060   3.315   9.962   9.820 -0.0604  0.0511  0.1716
  567loPI   GL1 9061   3.372  10.272   9.399  0.0003 -0.1537  0.3169
  567loPI   GL2 9062   3.542  10.440   9.399 -0.1259 -0.3329 -0.0138
  567loPI   C1A 9063   3.369   9.967   8.928 -0.0890 -0.1387 -0.3818
  567loPI   C2A 9064   3.613  10.127   8.589  0.1200  0.2941 -0.0361
  567loPI   C3A 9065   4.039  10.033   8.301  0.2846 -0.1974 -0.2447
  567loPI   C4A 9066   4.069   9.704   7.961 -0.1108 -0.0873  0.0472
  567loPI   C5A 9067   4.042   9.428   7.684  0.1447 -0.1590  0.0384
  567loPI   C6A 9068   4.374   9.324   7.449 -0.0189 -0.0458  0.0088
  567loPI   C1B 9069   3.841  10.198   9.142 -0.1566  0.0525 -0.1045
  567loPI   C2B 9070   4.157  10.215   8.731 -0.0307 -0.1519  0.0461
  567loPI   C3B 9071   4.291  10.459   8.327 -0.2128  0.1554 -0.2438
  567loPI   C4B 9072   4.327  10.442   7.884  0.3692 -0.1999 -0.2384
  568loPI    C1 9073   2.903  18.912   9.893 -0.2024 -0.1836 -0.2657
  568loPI    C2 9074   2.744  18.821  10.249 -0.0888  0.1541 -0.1244
  568loPI    C3 9075   3.036  18.595  10.097  0.0840  0.1896  0.1480
  568loPI   PO4 9076   2.790  19.180   9.850  0.1243  0.2952 -0.0520
  568loPI   GL1 9077   2.905  19.394   9.444  0.1757  0.2336 -0.0638
  568loPI   GL2 9078   3.058  19.125   9.381  0.1928 -0.1970 -0.0703
  568loPI   C1A 9079   2.619  19.299   9.053 -0.0221 -0.0132 -0.2461
  568loPI   C2A 9080   2.354  18.990   8.802 -0.3657 -0.2265  0.0549
  568loPI   C3A 9081   2.410  18.725   8.436  0.1253 -0.2427  0.0531
  568loPI   C4A 9082   2.211  18.633   8.030 -0.0515 -0.0184  0.2009
  568loPI   C5A 9083   2.200  18.326   7.791 -0.1310  0.2024  0.1642
  568loPI   C6A 9084   2.169  18.167   7.460  0.1697 -0.1097 -0.0956
  568loPI   C1B 9085   3.346  19.117   9.035  0.0695  0.2313  0.3071
  568loPI   C2B 9086   3.537  19.038   8.636 -0.3561  0.1998  0.1552
  568loPI   C3B 9087   3.880  19.165   8.430  0.1127 -0.1765 -0.0247
  568loPI   C4B 9088   3.952  19.046   8.038 -0.2807 -0.1476 -0.0146
  569loPI    C1 9089  17.836  15.213   9.577 -0.0639 -0.1994 -0.1670
  569loPI    C2 9090  18.070  14.896   9.646  0.0699 -0.0748 -0.0419
  569loPI    C3 9091  17.853  15.054   9.943  0.1796  0.0907 -0.0486
  569loPI   PO4 9092  17.727  15.146   9.275 -0.1384  0.1342 -0.1201
  569loPI   GL1 9093  17.786  15.023   8.870 -0.1653 -0.5216  0.0440
  569loPI   GL2 9094  17.753  15.203   8.734 -0.1776 -0.0280 -0.4888
  569loPI   C1A 9095  17.896  14.666   8.520  0.0155  0.0159 -0.0923
  569loPI   C2A 9096  18.220  14.351   8.205  0.0834  0.1285  0.0503
  569loPI   C3A 9097  18.407  14.207   7.866 -0.3038  0.1852  0.1901
  569loPI   C4A 9098  18.606  14.064   7.411 -0.1915  0.2280 -0.4434
  569loPI   C5A 9099  18.570  13.824   7.107  0.0495 -0.0337  0.1112
  569loPI   C6A 9100  18.449  13.500   6.678 -0.4084  0.1193 -0.0814
  569loPI   C1B 9101  17.614  15.106   8.267 -0.1069 -0.1083  0.1164
  569loPI   C2B 9102  17.464  14.700   8.284 -0.1485 -0.1194 -0.2190
  569loPI   C3B 9103  17.631  14.265   8.269  0.3168 -0.0140  0.3237
  569loPI   C4B 9104  17.822  14.173   7.952 -0.0167  0.1531  0.1231
  570loPI    C1 9105  18.706  19.046   9.132 -0.2219  0.0418  0.2486
  570loPI    C2 9106  18.597  19.413   9.249  0.2779  0.2522  0.0836
  570loPI    C3 9107  18.760  19.159   9.512  0.1237  0.2216  0.1506
  570loPI   PO4 9108  18.594  18.914   9.024  0.2865  0.0999 -0.1201
  570loPI   GL1 9109  18.478  18.822   8.636  0.0489 -0.2383 -0.2550
  570loPI   GL2 9110  18.303  18.464   8.558  0.2776  0.1015  0.0338
  570loPI   C1A 9111  18.591  19.034   8.294 -0.1522 -0.1584  0.0792
  570loPI   C2A 9112  18.722  19.059   7.915  0.2642 -0.0005 -0.0223
  570loPI   C3A 9113  19.017  18.850   7.598  0.1371  0.1931 -0.0350
  570loPI   C4A 9114  19.364  18.741   7.340  0.1023 -0.2182 -0.2084
  570loPI   C5A 9115  19.178  18.341   7.102 -0.1365  0.3643 -0.2400
  570loPI   C6A 9116  18.909  17.962   6.883  0.2594  0.2865 -0.4401
  570loPI   C1B 9117  18.384  18.234   8.233 -0.0495 -0.1439  0.1418
  570loPI   C2B 9118  18.385  18.120   7.787  0.1745  0.0551  0.1187
  570loPI   C3B 9119  18.285  17.899   7.406  0.1821 -0.2825  0.0109
  570loPI   C4B 9120  18.271  17.897   7.010 -0.2553 -0.2037  0.2022
  571loPI    C1 9121   8.976   6.153  10.645 -0.1137 -0.1098  0.0780
  571loPI    C2 9122   8.784   6.493  10.731 -0.0043 -0.0523  0.0952
  571loPI    C3 9123   8.972   6.290  11.020 -0.0871 -0.1387  0.0889
  571loPI   PO4 9124   9.179   6.270  10.482  0.0467  0.1736  0.2452
  571loPI   GL1 9125   9.200   6.295   9.986 -0.2412  0.1427 -0.0943
  571loPI   GL2 9126   8.962   5.983  10.107 -0.4892 -0.1665  0.3015
  571loPI   C1A 9127   9.254   6.218   9.643  0.0639  0.0396 -0.2337
  571loPI   C2A 9128   9.257   6.182   9.285 -0.1689  0.0407  0.0225
  571loPI   C3A 9129   8.987   6.452   8.961  0.3327  0.1176 -0.0288
  571loPI   C4A 9130   8.620   6.347   8.614  0.0662 -0.1296  0.1444
  571loPI   C5A 9131   8.415   6.399   8.278 -0.2460 -0.3256  0.2597
  571loPI   C6A 9132   8.107   6.067   8.021  0.1611 -0.1103  0.1770
  571loPI   C1B 9133   8.900   5.920   9.681 -0.0259 -0.1345 -0.1684
  571loPI   C2B 9134   8.812   5.946   9.238 -0.0940 -0.0348 -0.1180
  571loPI   C3B 9135   8.871   5.930   8.666  0.0301  0.1202 -0.1349
  571loPI   C4B 9136   8.990   5.707   8.280 -0.1165  0.1494  0.0041
  572loPI    C1 9137   2.876   3.834  10.643 -0.2960  0.0695 -0.3916
  572loPI    C2 9138   2.721   4.125  10.868  0.0160  0.0334 -0.1218
  572loPI    C3 9139   2.548   3.765  10.861  0.0009  0.0360  0.0588
  572loPI   PO4 9140   2.946   4.038  10.422  0.1178 -0.0458 -0.1662
  572loPI   GL1 9141   2.938   3.887  10.017  0.1012 -0.1449  0.2652
  572loPI   GL2 9142   3.165   3.568   9.873  0.1369  0.0644  0.1399
  572loPI   C1A 9143   2.916   3.883   9.590 -0.0883 -0.0881  0.1551
  572loPI   C2A 9144   3.010   4.007   9.143  0.0547  0.0748  0.1473
  572loPI   C3A 9145   3.210   3.952   8.779 -0.0621 -0.2191  0.2170
  572loPI   C4A 9146   3.051   4.084   8.396 -0.1606 -0.0069 -0.0288
  572loPI   C5A 9147   3.157   4.150   7.924 -0.0685  0.1376  0.0405
  572loPI   C6A 9148   3.494   4.366   7.596  0.1819 -0.0799 -0.0517
  572loPI   C1B 9149   2.926   3.428   9.512  0.0790 -0.2531 -0.2086
  572loPI   C2B 9150   2.877   3.467   9.083  0.2859 -0.0308 -0.0327
  572loPI   C3B 9151   2.839   3.571   8.649 -0.1929  0.1248 -0.2441
  572loPI   C4B 9152   2.825   3.678   8.180  0.2432 -0.0984  0.1456
  573loPI    C1 9153  17.536   3.086   9.946  0.1487  0.0494  0.1124
  573loPI    C2 9154  17.169   3.207  10.048  0.1615  0.1374  0.0556
  573loPI    C3 9155  17.460   3.195  10.323  0.0849 -0.0543  0.1295
  573loPI   PO4 9156  17.562   3.173   9.704  0.1905 -0.3368 -0.0640
  573loPI   GL1 9157  17.732   3.141   9.241 -0.1561 -0.3043  0.1867
  573loPI   GL2 9158  17.936   2.925   9.146  0.1455 -0.1755  0.0390
  573loPI   C1A 9159  17.826   3.276   8.793 -0.0553  0.1350  0.2170
  573loPI   C2A 9160  17.524   3.334   8.532  0.0349  0.1194 -0.0701
  573loPI   C3A 9161  17.258   3.468   8.237  0.2783  0.2418 -0.0445
  573loPI   C4A 9162  17.264   3.623   7.892 -0.3691  0.0390 -0.2237
  573loPI   C5A 9163  17.614   3.616   7.533 -0.0087  0.1797 -0.2812
  573loPI   C6A 9164  17.584   3.679   7.056 -0.2046  0.1629 -0.2125
  573loPI   C1B 9165  18.130   2.911   8.734 -0.0949  0.1681  0.0357
  573loPI   C2B 9166  18.294   3.091   8.400 -0.1162  0.1309  0.0654
  573loPI   C3B 9167  18.024   3.353   8.230  0.3391  0.1173 -0.0552
  573loPI   C4B 9168  17.734   3.312   7.943 -0.1174 -0.3786 -0.1599
  574loPI    C1 9169   1.979   5.150   9.664  0.0373 -0.0411 -0.1685
  574loPI    C2 9170   2.361   5.165   9.547  0.1352  0.0457  0.1522
  574loPI    C3 9171   2.237   4.871   9.789  0.0196  0.0697  0.1227
  574loPI   PO4 9172   1.875   5.221   9.446 -0.0369 -0.0195  0.1679
  574loPI   GL1 9173   1.871   5.241   9.024 -0.3006  0.0208  0.0590
  574loPI   GL2 9174   1.934   5.551   8.985 -0.0146  0.1410  0.3464
  574loPI   C1A 9175   1.777   5.131   8.679  0.2531 -0.0116  0.1967
  574loPI   C2A 9176   1.826   5.245   8.301 -0.2166 -0.1136 -0.0733
  574loPI   C3A 9177   1.760   5.489   7.998 -0.2934  0.3094 -0.1027
  574loPI   C4A 9178   1.697   5.511   7.463  0.4382  0.1008 -0.2571
  574loPI   C5A 9179   1.588   5.155   7.127 -0.1566 -0.1489  0.1437
  574loPI   C6A 9180   1.100   5.246   6.968  0.0595 -0.1421  0.0314
  574loPI   C1B 9181   2.152   5.526   8.591 -0.2551 -0.0690 -0.0570
  574loPI   C2B 9182   2.266   5.578   8.161  0.0457 -0.1786 -0.0044
  574loPI   C3B 9183   2.559   5.465   7.930  0.0142  0.2154  0.1615
  574loPI   C4B 9184   3.031   5.175   7.791 -0.0395 -0.2836  0.2762
  575loPI    C1 9185   5.536   7.092  10.220 -0.1714 -0.1205  0.0238
  575loPI    C2 9186   5.470   6.981  10.599  0.0475  0.0618  0.1180
  575loPI    C3 9187   5.845   7.023  10.465 -0.0294  0.3005 -0.0284
  575loPI   PO4 9188   5.357   7.274  10.188  0.0276 -0.2223 -0.1416
  575loPI   GL1 9189   5.269   7.546   9.932 -0.2019 -0.3530 -0.4348
  575loPI   GL2 9190   5.374   7.796   9.716 -0.0125  0.0673 -0.0624
  575loPI   C1A 9191   5.052   7.355   9.661 -0.0580 -0.1599  0.3416
  575loPI   C2A 9192   4.979   7.172   9.303 -0.1270 -0.3163  0.0113
  575loPI   C3A 9193   5.035   6.994   8.866  0.0383 -0.1628 -0.0968
  575loPI   C4A 9194   5.096   6.874   8.567 -0.0091 -0.1729  0.2074
  575loPI   C5A 9195   5.182   6.787   8.108 -0.1386  0.2866  0.3435
  575loPI   C6A 9196   4.940   6.583   7.750  0.0065  0.0759 -0.3232
  575loPI   C1B 9197   5.463   7.925   9.305  0.3979  0.5119  0.1065
  575loPI   C2B 9198   5.319   8.026   8.984 -0.1030  0.1843  0.4005
  575loPI   C3B 9199   5.285   7.822   8.604 -0.0696  0.0368  0.0573
  575loPI   C4B 9200   5.509   7.669   8.259 -0.0539  0.1611  0.3449
  576loPI    C1 9201   5.253  16.694   9.798 -0.2178  0.0057  0.1107
  576loPI    C2 9202   5.136  16.313   9.821 -0.1052 -0.0233  0.2157
  576loPI    C3 9203   5.433  16.445  10.054  0.1995  0.0013 -0.1756
  576loPI   PO4 9204   5.308  16.699   9.569  0.0982 -0.2426 -0.1964
  576loPI   GL1 9205   4.964  16.721   9.285 -0.1221  0.0991 -0.0085
  576loPI   GL2 9206   4.692  16.957   9.402 -0.0155 -0.2301 -0.0539
  576loPI   C1A 9207   5.147  16.712   8.854 -0.2699 -0.3568  0.2353
  576loPI   C2A 9208   5.234  16.797   8.371  0.0262  0.0213  0.3914
  576loPI   C3A 9209   4.985  16.659   7.994 -0.2975 -0.1576  0.0806
  576loPI   C4A 9210   4.720  16.720   7.604 -0.0516 -0.0177 -0.0206
  576loPI   C5A 9211   4.288  16.936   7.499  0.1659 -0.1727  0.5295
  576loPI   C6A 9212   3.910  17.260   7.373 -0.0266  0.2758  0.1879
  576loPI   C1B 9213   4.887  17.184   9.012  0.1343 -0.1674 -0.1313
  576loPI   C2B 9214   4.887  17.073   8.509 -0.0413  0.0848 -0.1197
  576loPI   C3B 9215   4.912  17.144   8.110  0.1791 -0.3006 -0.1060
  576loPI   C4B 9216   5.129  17.111   7.717 -0.2562  0.0665  0.0731
  577loPI    C1 9217  19.024  17.421   9.457 -0.3109  0.1261  0.0463
  577loPI    C2 9218  19.154  17.689   9.724 -0.0173 -0.0581  0.0924
  577loPI    C3 9219  19.123  17.304   9.826 -0.1540 -0.0890 -0.0619
  577loPI   PO4 9220  19.078  17.386   9.168  0.1974  0.1364 -0.0591
  577loPI   GL1 9221  18.909  17.534   8.803  0.0272 -0.0049  0.0991
  577loPI   GL2 9222  18.847  17.223   8.741 -0.0471  0.2054  0.0042
  577loPI   C1A 9223  19.052  17.536   8.420  0.0720  0.0250  0.3546
  577loPI   C2A 9224  19.146  17.571   7.983  0.3069 -0.1713  0.0402
  577loPI   C3A 9225  19.009  17.542   7.579 -0.1439  0.3596 -0.0538
  577loPI   C4A 9226  18.945  17.469   7.201  0.1262 -0.0632  0.1348
  577loPI   C5A 9227  18.873  17.129   6.827 -0.0581  0.0263  0.1745
  577loPI   C6A 9228  18.795  17.027   6.364  0.0188 -0.2172  0.2328
  577loPI   C1B 9229  18.884  17.106   8.324 -0.1817  0.0111  0.0133
  577loPI   C2B 9230  18.954  17.111   7.902  0.1905  0.3035  0.1659
  577loPI   C3B 9231  19.098  17.012   7.597 -0.2274 -0.1128  0.2413
  577loPI   C4B 9232  19.173  17.014   7.149  0.0590  0.0067 -0.3020
  578loPI    C1 9233  12.560   5.813  10.395 -0.0105 -0.0228  0.0643
  578loPI    C2 9234  12.335   5.483  10.423 -0.1351  0.0480 -0.0827
  578loPI    C3 9235  12.519   5.628  10.747 -0.0710 -0.1707 -0.0190
  578loPI   PO4 9236  12.616   5.860  10.093  0.0762 -0.0019  0.3466
  578loPI   GL1 9237  12.749   6.051   9.676  0.0271  0.2075  0.2487
  578loPI   GL2 9238  13.073   6.211   9.648 -0.1304  0.2889 -0.1946
  578loPI   C1A 9239  12.884   5.984   9.224  0.2190  0.2731  0.4225
  578loPI   C2A 9240  12.919   6.151   8.771 -0.0638 -0.0877 -0.5712
  578loPI   C3A 9241  12.950   6.505   8.479  0.1657 -0.1745  0.4323
  578loPI   C4A 9242  12.782   6.549   8.041 -0.0901 -0.0913  0.3873
  578loPI   C5A 9243  12.578   6.643   7.698 -0.0685 -0.1482 -0.1931
  578loPI   C6A 9244  12.207   6.622   7.508  0.1185  0.0502  0.0125
  578loPI   C1B 9245  13.150   6.472   9.370  0.3898  0.0179  0.0758
  578loPI   C2B 9246  13.234   6.435   8.997 -0.0508  0.0733 -0.3044
  578loPI   C3B 9247  13.384   6.517   8.703 -0.2476 -0.2042 -0.0449
  578loPI   C4B 9248  13.600   6.392   8.403  0.2896  0.1372 -0.2828
  579loPI    C1 9249   7.649   0.179   9.864  0.1141  0.1027 -0.0573
  579loPI    C2 9250   7.885   0.256   9.550 -0.0867  0.0687 -0.2188
  579loPI    C3 9251   7.804   0.545   9.815 -0.0435  0.1416 -0.2846
  579loPI   PO4 9252   7.389   0.061   9.751 -0.2073 -0.1983  0.3704
  579loPI   GL1 9253   7.262   0.302   9.525  0.0841 -0.0482 -0.0531
  579loPI   GL2 9254   7.403   0.543   9.559  0.3176  0.1726 -0.0150
  579loPI   C1A 9255   7.185   0.274   9.051 -0.0018  0.0076 -0.2818
  579loPI   C2A 9256   7.108   0.216   8.763  0.0786 -0.0471 -0.1014
  579loPI   C3A 9257   7.269   0.187   8.386 -0.1352  0.1497 -0.1889
  579loPI   C4A 9258   7.472  -0.039   8.107  0.1381  0.3583 -0.3674
  579loPI   C5A 9259   7.505   0.101   7.666  0.2282 -0.3219 -0.1922
  579loPI   C6A 9260   7.578   0.418   7.330 -0.0130 -0.0284  0.1111
  579loPI   C1B 9261   7.654   0.388   9.204  0.0648 -0.0897  0.1718
  579loPI   C2B 9262   8.002   0.199   9.096 -0.0350  0.1976 -0.0111
  579loPI   C3B 9263   8.418   0.106   8.846 -0.0798 -0.0854  0.0740
  579loPI   C4B 9264   8.737   0.252   8.547 -0.2228  0.0953  0.0745
  580loPI    C1 9265   8.736   1.445   9.825  0.2483 -0.0509 -0.0186
  580loPI    C2 9266   8.536   1.587  10.140  0.1245 -0.0983 -0.0749
  580loPI    C3 9267   8.348   1.359   9.871  0.2584 -0.1549 -0.1213
  580loPI   PO4 9268   8.943   1.686   9.756 -0.0340 -0.1635  0.2860
  580loPI   GL1 9269   9.203   1.711   9.403  0.1048  0.1306 -0.2282
  580loPI   GL2 9270   8.970   1.534   9.272 -0.1437 -0.1904  0.0644
  580loPI   C1A 9271   9.406   1.644   8.972 -0.0726 -0.2227  0.0698
  580loPI   C2A 9272   9.661   1.667   8.608 -0.1446  0.0082  0.1357
  580loPI   C3A 9273   9.722   1.703   8.116 -0.1684  0.0961  0.0253
  580loPI   C4A 9274   9.836   1.744   7.796 -0.3427 -0.1695 -0.0027
  580loPI   C5A 9275  10.159   1.638   7.502 -0.0915  0.1799 -0.0594
  580loPI   C6A 9276  10.105   1.274   7.204 -0.1146  0.0461  0.1076
  580loPI   C1B 9277   8.638   1.571   8.865  0.0162  0.0008 -0.1579
  580loPI   C2B 9278   8.572   1.304   8.514 -0.1314  0.4912 -0.0797
  580loPI   C3B 9279   8.727   0.960   8.109  0.0170 -0.0080  0.2462
  580loPI   C4B 9280   8.921   0.687   7.885  0.1159 -0.2332  0.0104
  581loPI    C1 9281  16.947   1.516   9.558 -0.2382  0.1816 -0.1932
  581loPI    C2 9282  16.656   1.762   9.680 -0.2443  0.1233 -0.0893
  581loPI    C3 9283  16.884   1.573   9.949 -0.0292  0.2640 -0.1702
  581loPI   PO4 9284  17.011   1.726   9.323  0.0073 -0.2770  0.0072
  581loPI   GL1 9285  16.860   1.830   8.884 -0.0199  0.2396 -0.4078
  581loPI   GL2 9286  16.493   1.866   8.727 -0.0572  0.2686  0.3277
  581loPI   C1A 9287  16.877   1.740   8.447  0.0339  0.3160 -0.2113
  581loPI   C2A 9288  16.702   1.824   8.013  0.1033  0.0431 -0.3071
  581loPI   C3A 9289  16.578   1.924   7.655 -0.3300 -0.2812  0.2360
  581loPI   C4A 9290  16.452   1.957   7.243  0.0279 -0.0304  0.1171
  581loPI   C5A 9291  16.295   1.885   6.784 -0.0279  0.1630 -0.2225
  581loPI   C6A 9292  16.480   1.740   6.406  0.1504  0.0448 -0.2518
  581loPI   C1B 9293  16.309   1.988   8.294  0.2175  0.2113 -0.0875
  581loPI   C2B 9294  16.170   2.023   7.856  0.3367  0.0439 -0.5578
  581loPI   C3B 9295  16.036   2.066   7.544  0.2336  0.0127 -0.2881
  581loPI   C4B 9296  15.980   2.136   7.103 -0.1477  0.0561 -0.1400
  582loPI    C1 9297  16.660  17.768   9.176 -0.3171  0.1988  0.0923
  582loPI    C2 9298  16.554  17.384   9.146 -0.2792  0.2006 -0.0735
  582loPI    C3 9299  16.909  17.482   9.303 -0.1769  0.1532 -0.2709
  582loPI   PO4 9300  16.648  17.874   8.890 -0.0099  0.1022  0.0815
  582loPI   GL1 9301  16.792  17.875   8.438 -0.0279 -0.0747 -0.0791
  582loPI   GL2 9302  16.524  17.690   8.367  0.3245  0.0054  0.1616
  582loPI   C1A 9303  16.896  18.232   8.157  0.0209 -0.2646 -0.0217
  582loPI   C2A 9304  16.968  18.110   7.687 -0.0386 -0.0976  0.1543
  582loPI   C3A 9305  17.121  18.078   7.328  0.0091  0.0601  0.0327
  582loPI   C4A 9306  17.355  17.724   6.991  0.4785  0.1276 -0.1306
  582loPI   C5A 9307  17.734  17.747   6.639  0.0790  0.0291 -0.0490
  582loPI   C6A 9308  18.085  17.561   6.701 -0.1284 -0.1562 -0.0289
  582loPI   C1B 9309  16.494  17.679   7.974 -0.0630  0.0885  0.2633
  582loPI   C2B 9310  16.709  17.649   7.640 -0.0130  0.2318  0.1234
  582loPI   C3B 9311  17.158  17.556   7.494  0.2164  0.1884 -0.2228
  582loPI   C4B 9312  17.414  17.499   7.728 -0.1430  0.1311  0.3758
  583loPI    C1 9313  19.204  16.578   9.672  0.1338 -0.1770  0.0942
  583loPI    C2 9314  19.404  16.843   9.895 -0.0465  0.1739 -0.1505
  583loPI    C3 9315  19.011  16.793   9.948  0.0363 -0.2678  0.0978
  583loPI   PO4 9316  19.277  16.684   9.427  0.1055  0.1050 -0.2685
  583loPI   GL1 9317  19.404  16.814   8.985 -0.2782 -0.0676  0.0545
  583loPI   GL2 9318  19.667  16.886   8.855 -0.1787  0.2350  0.1083
  583loPI   C1A 9319  19.092  16.790   8.650  0.0148  0.0031 -0.0687
  583loPI   C2A 9320  19.132  16.670   8.238  0.1246 -0.2057 -0.1639
  583loPI   C3A 9321  19.316  16.682   7.912 -0.3658  0.4879  0.1943
  583loPI   C4A 9322  19.545  16.718   7.487 -0.0635 -0.0232  0.2718
  583loPI   C5A 9323  19.672  16.650   7.086  0.2312  0.0719 -0.1982
  583loPI   C6A 9324  19.781  16.593   6.595  0.3126  0.0913  0.0592
  583loPI   C1B 9325  19.615  16.493   8.659 -0.4441  0.0188 -0.3892
  583loPI   C2B 9326  19.689  16.205   8.217  0.1551  0.0448  0.1133
  583loPI   C3B 9327  19.670  16.067   7.786 -0.3106  0.2538  0.1983
  583loPI   C4B 9328  19.744  15.932   7.404 -0.1967  0.2905 -0.1934
  584loPI    C1 9329   5.680   2.505  10.479  0.0726  0.1109 -0.0996
  584loPI    C2 9330   5.422   2.756  10.653 -0.0497 -0.0880  0.0092
  584loPI    C3 9331   5.575   2.451  10.861  0.3576  0.0895 -0.0225
  584loPI   PO4 9332   5.537   2.448  10.171 -0.1539 -0.0449 -0.2554
  584loPI   GL1 9333   5.499   2.722   9.782 -0.0047  0.0509  0.4009
  584loPI   GL2 9334   5.319   2.595   9.658 -0.0578 -0.0192 -0.0802
  584loPI   C1A 9335   5.639   2.921   9.368 -0.1760  0.0067 -0.1958
  584loPI   C2A 9336   5.795   2.978   9.022 -0.4505 -0.4786  0.3367
  584loPI   C3A 9337   6.033   3.123   8.660 -0.1940 -0.1043 -0.3105
  584loPI   C4A 9338   5.874   3.235   8.152  0.3612  0.1135  0.1154
  584loPI   C5A 9339   5.794   3.196   7.636 -0.0769 -0.0478 -0.1801
  584loPI   C6A 9340   5.638   2.657   7.592 -0.0869 -0.0089 -0.2840
  584loPI   C1B 9341   5.028   2.671   9.394  0.0220  0.2718 -0.1792
  584loPI   C2B 9342   4.987   2.624   9.045 -0.2067 -0.0696  0.3108
  584loPI   C3B 9343   5.065   2.436   8.733 -0.3762 -0.2883  0.2425
  584loPI   C4B 9344   5.270   2.565   8.370  0.1679 -0.0211  0.4267
  585loPI    C1 9345   4.384  14.896   9.899  0.2318  0.0571  0.0630
  585loPI    C2 9346   4.455  14.519  10.010  0.2248  0.0685  0.1061
  585loPI    C3 9347   4.414  14.804  10.287  0.0457  0.0684  0.0806
  585loPI   PO4 9348   4.230  14.857   9.695  0.3380  0.0801 -0.3600
  585loPI   GL1 9349   4.245  14.816   9.141  0.2532  0.2479 -0.0277
  585loPI   GL2 9350   4.434  14.702   8.958  0.0334 -0.2234  0.0369
  585loPI   C1A 9351   4.064  15.021   8.814  0.1470  0.1243 -0.0124
  585loPI   C2A 9352   3.899  14.787   8.371 -0.2005 -0.1424  0.1271
  585loPI   C3A 9353   4.139  14.801   7.956 -0.0721  0.2711 -0.2386
  585loPI   C4A 9354   4.279  14.672   7.558 -0.1358  0.2494 -0.1102
  585loPI   C5A 9355   4.639  14.720   7.304  0.2356  0.0313  0.3220
  585loPI   C6A 9356   4.567  14.850   6.843  0.2021 -0.1076  0.2693
  585loPI   C1B 9357   4.502  14.909   8.658 -0.3292  0.0763  0.0983
  585loPI   C2B 9358   4.807  14.969   8.306  0.4756  0.0594 -0.1132
  585loPI   C3B 9359   5.151  14.813   8.074  0.1860 -0.1161  0.1558
  585loPI   C4B 9360   5.391  14.698   7.715  0.1271  0.0542  0.2629
  586loPI    C1 9361  10.514   4.209  10.188  0.2462 -0.0688  0.1853
  586loPI    C2 9362  10.269   4.109  10.487 -0.1107 -0.0250 -0.0861
  586loPI    C3 9363  10.501   3.831  10.318  0.0533 -0.0607  0.1916
  586loPI   PO4 9364  10.443   4.391  10.006  0.0543  0.0641  0.3639
  586loPI   GL1 9365  10.231   4.725   9.735 -0.0410 -0.0904 -0.0619
  586loPI   GL2 9366  10.440   4.793   9.545 -0.1891  0.3222 -0.0646
  586loPI   C1A 9367   9.997   5.002   9.396 -0.1724 -0.1627 -0.1927
  586loPI   C2A 9368   9.841   5.009   8.943  0.3212  0.1519 -0.0299
  586loPI   C3A 9369   9.689   4.980   8.545  0.0510  0.2667 -0.0600
  586loPI   C4A 9370   9.625   5.146   8.104  0.2430 -0.0486  0.1287
  586loPI   C5A 9371   9.740   5.153   7.636  0.0811 -0.1680  0.1036
  586loPI   C6A 9372  10.052   5.243   7.364  0.0309 -0.1411 -0.1228
  586loPI   C1B 9373  10.443   4.722   9.126 -0.1375 -0.0642  0.2309
  586loPI   C2B 9374  10.281   4.758   8.711 -0.0968  0.0182  0.0912
  586loPI   C3B 9375  10.115   4.995   8.283 -0.1606 -0.0005  0.1903
  586loPI   C4B 9376  10.112   5.024   7.848 -0.3783 -0.4265 -0.1490
  587loPI    C1 9377   1.867   0.297   9.690 -0.0082  0.0345  0.0099
  587loPI    C2 9378   1.591   0.456   9.449  0.0887 -0.0225 -0.1402
  587loPI    C3 9379   1.895   0.249   9.294  0.0901 -0.1565  0.0390
  587loPI   PO4 9380   2.001   0.459   9.865 -0.1063 -0.2600  0.1219
  587loPI   GL1 9381   2.105   0.755   9.620  0.1917 -0.2614 -0.2305
  587loPI   GL2 9382   1.990   0.759   9.317  0.0673  0.0772  0.2351
  587loPI   C1A 9383   2.456   0.566   9.461  0.2591 -0.0142  0.0965
  587loPI   C2A 9384   2.808   0.696   9.293 -0.0554  0.0961 -0.1579
  587loPI   C3A 9385   2.978   0.847   8.877  0.1042 -0.1051 -0.1342
  587loPI   C4A 9386   3.005   1.178   8.556 -0.0944  0.0176 -0.2157
  587loPI   C5A 9387   3.251   1.243   8.143 -0.2287 -0.0086 -0.0065
  587loPI   C6A 9388   3.277   1.329   7.706  0.1176  0.1307 -0.1316
  587loPI   C1B 9389   2.103   0.788   8.910  0.0576 -0.4265 -0.0510
  587loPI   C2B 9390   2.255   0.776   8.575  0.2024  0.3604  0.0129
  587loPI   C3B 9391   2.612   1.090   8.232  0.2215 -0.0800  0.2613
  587loPI   C4B 9392   2.746   1.447   8.047  0.0453 -0.0555 -0.2287
  588loPI    C1 9393  12.654  14.732   9.640 -0.1103  0.2116 -0.0307
  588loPI    C2 9394  12.613  14.466   9.936  0.1789  0.2252  0.0255
  588loPI    C3 9395  12.494  14.844   9.989  0.2414  0.2305  0.1297
  588loPI   PO4 9396  12.563  14.647   9.435 -0.0032 -0.0040  0.0973
  588loPI   GL1 9397  12.628  14.526   8.987  0.0145 -0.2790  0.0043
  588loPI   GL2 9398  12.318  14.357   8.844  0.2091  0.1926 -0.3679
  588loPI   C1A 9399  12.699  14.760   8.666  0.0514 -0.0805 -0.1061
  588loPI   C2A 9400  12.798  14.701   8.250 -0.0043  0.2959 -0.0040
  588loPI   C3A 9401  12.742  14.621   7.767 -0.2510 -0.2799  0.1229
  588loPI   C4A 9402  12.746  14.532   7.288  0.1710  0.3375 -0.1380
  588loPI   C5A 9403  12.750  14.192   7.067 -0.2415 -0.0866 -0.1696
  588loPI   C6A 9404  12.747  13.817   6.734  0.1726 -0.1791 -0.3645
  588loPI   C1B 9405  12.366  14.349   8.365  0.1763  0.2960  0.1953
  588loPI   C2B 9406  12.423  14.324   7.988  0.0398  0.0573  0.2972
  588loPI   C3B 9407  12.346  14.145   7.730  0.1423  0.1653  0.0896
  588loPI   C4B 9408  12.332  13.896   7.276  0.0728  0.0176  0.2278
  589loPI    C1 9409   1.304  12.378   9.425 -0.0981 -0.0286 -0.1828
  589loPI    C2 9410   1.508  12.098   9.626 -0.2074 -0.0403 -0.0876
  589loPI    C3 9411   1.664  12.463   9.578 -0.0963 -0.0954 -0.1493
  589loPI   PO4 9412   1.257  12.230   9.197  0.2802  0.0623  0.1362
  589loPI   GL1 9413   1.214  12.378   8.757  0.1473  0.0544  0.1827
  589loPI   GL2 9414   1.529  12.221   8.704 -0.2826 -0.0324 -0.0389
  589loPI   C1A 9415   1.022  12.520   8.329  0.0079  0.1016  0.5600
  589loPI   C2A 9416   0.802  12.400   7.971 -0.0579 -0.2195  0.1599
  589loPI   C3A 9417   0.912  12.267   7.602  0.1270  0.0443 -0.2459
  589loPI   C4A 9418   0.947  12.115   7.181 -0.0755 -0.0647  0.0308
  589loPI   C5A 9419   0.834  12.285   6.815 -0.1285 -0.1637 -0.0348
  589loPI   C6A 9420   0.495  12.315   6.591  0.0038  0.2663  0.0945
  589loPI   C1B 9421   1.532  12.471   8.367  0.0343 -0.2759  0.3717
  589loPI   C2B 9422   1.437  12.690   8.021 -0.1692  0.1099 -0.0066
  589loPI   C3B 9423   1.082  12.689   7.710 -0.0545  0.2086 -0.0216
  589loPI   C4B 9424   1.027  12.758   7.348 -0.1223 -0.1790 -0.0153
  590loPI    C1 9425  18.078  10.195   9.448 -0.0774  0.0672  0.0905
  590loPI    C2 9426  17.736  10.324   9.610 -0.0655  0.0159  0.1569
  590loPI    C3 9427  18.080  10.363   9.811 -0.0924 -0.3160  0.2731
  590loPI   PO4 9428  17.930  10.031   9.234 -0.0044  0.2826  0.3557
  590loPI   GL1 9429  17.620  10.139   8.930 -0.0221 -0.0750  0.0906
  590loPI   GL2 9430  17.219  10.105   8.965  0.1844  0.1311  0.0044
  590loPI   C1A 9431  17.592  10.002   8.422  0.1705  0.0867 -0.1018
  590loPI   C2A 9432  17.239   9.904   8.169  0.1259 -0.0500 -0.1758
  590loPI   C3A 9433  17.164   9.958   7.705  0.0142  0.4272  0.0534
  590loPI   C4A 9434  17.435   9.936   7.370  0.0432  0.0664 -0.0871
  590loPI   C5A 9435  17.676  10.084   7.013 -0.1757  0.0998  0.5075
  590loPI   C6A 9436  17.936  10.386   6.669 -0.1263  0.0221 -0.1072
  590loPI   C1B 9437  16.981  10.049   8.545 -0.3751 -0.3988  0.0123
  590loPI   C2B 9438  16.750  10.253   8.188  0.1257  0.0673  0.1609
  590loPI   C3B 9439  16.664  10.256   7.696  0.1009 -0.0208  0.2487
  590loPI   C4B 9440  16.809  10.121   7.298  0.0636  0.1120 -0.0423
  591loPI    C1 9441  18.525  14.062   9.339  0.0991  0.0443  0.0505
  591loPI    C2 9442  18.183  14.060   9.546  0.0792  0.0876  0.0180
  591loPI    C3 9443  18.525  13.956   9.725  0.0760  0.2121  0.0977
  591loPI   PO4 9444  18.426  14.267   9.165  0.0685 -0.1883  0.1951
  591loPI   GL1 9445  18.312  14.194   8.679 -0.0086  0.1400  0.0459
  591loPI   GL2 9446  18.602  14.329   8.677  0.0681 -0.2509 -0.0468
  591loPI   C1A 9447  18.041  13.959   8.519 -0.5113  0.0096 -0.0542
  591loPI   C2A 9448  18.139  13.814   8.055  0.0622  0.2497 -0.0658
  591loPI   C3A 9449  18.195  13.878   7.584 -0.0161  0.3890 -0.1263
  591loPI   C4A 9450  18.197  14.191   7.125 -0.3378 -0.1189  0.0035
  591loPI   C5A 9451  18.330  14.093   6.761 -0.2331 -0.1618  0.0053
  591loPI   C6A 9452  18.203  13.960   6.426 -0.4362 -0.0131 -0.1891
  591loPI   C1B 9453  18.721  14.258   8.272 -0.4926 -0.0802 -0.1575
  591loPI   C2B 9454  18.894  14.301   7.968  0.3151  0.1782  0.4709
  591loPI   C3B 9455  18.976  14.464   7.564  0.1839  0.0243 -0.1408
  591loPI   C4B 9456  18.559  14.675   7.497  0.2464  0.2308 -0.0266
  592loPI    C1 9457  16.520   9.839   9.432 -0.2321 -0.2660  0.2401
  592loPI    C2 9458  16.897   9.942   9.345 -0.3128 -0.1692 -0.0014
  592loPI    C3 9459  16.802   9.826   9.716 -0.0644 -0.1074  0.0832
  592loPI   PO4 9460  16.406   9.990   9.167  0.0934  0.0769 -0.0867
  592loPI   GL1 9461  16.545   9.997   8.765 -0.1409  0.2959 -0.1176
  592loPI   GL2 9462  16.852   9.756   8.882 -0.2536  0.1056  0.0240
  592loPI   C1A 9463  16.352  10.123   8.441  0.0152 -0.2003  0.2659
  592loPI   C2A 9464  16.296   9.970   7.950 -0.3283 -0.1192 -0.2467
  592loPI   C3A 9465  16.220   9.875   7.589 -0.1532  0.1493 -0.1017
  592loPI   C4A 9466  16.014   9.874   7.209 -0.0344 -0.0036 -0.1764
  592loPI   C5A 9467  15.890   9.628   6.873 -0.5684 -0.2356  0.0342
  592loPI   C6A 9468  15.807   9.414   6.543 -0.2016  0.0020 -0.0353
  592loPI   C1B 9469  16.730   9.674   8.396 -0.0837 -0.2201 -0.0078
  592loPI   C2B 9470  16.759   9.776   8.007 -0.1235 -0.0136  0.2860
  592loPI   C3B 9471  16.696   9.718   7.556 -0.2551 -0.1104 -0.0908
  592loPI   C4B 9472  17.039   9.646   7.357 -0.2822  0.0695 -0.1624
  593loPI    C1 9473   2.546   9.036   9.676 -0.0238  0.0380 -0.0715
  593loPI    C2 9474   2.399   9.380   9.534 -0.0890 -0.0185 -0.1420
  593loPI    C3 9475   2.296   9.254   9.899  0.0318  0.0974 -0.0670
  593loPI   PO4 9476   2.562   8.883   9.404 -0.1712  0.0541 -0.0209
  593loPI   GL1 9477   2.573   8.413   9.301  0.1362  0.0101 -0.0984
  593loPI   GL2 9478   2.651   8.435   9.613 -0.0249 -0.1705 -0.1935
  593loPI   C1A 9479   2.690   8.507   8.906  0.0662  0.1368 -0.0759
  593loPI   C2A 9480   2.654   8.660   8.525 -0.1601  0.1213 -0.1467
  593loPI   C3A 9481   2.542   8.546   7.977 -0.2186 -0.2042  0.0752
  593loPI   C4A 9482   2.571   8.638   7.515  0.2490  0.0760 -0.2975
  593loPI   C5A 9483   2.868   8.929   7.269 -0.2858 -0.0438 -0.3565
  593loPI   C6A 9484   2.993   9.198   7.058  0.0317  0.0382 -0.1788
  593loPI   C1B 9485   2.974   8.185   9.214  0.0660  0.1438 -0.4601
  593loPI   C2B 9486   2.980   7.841   8.875  0.0599 -0.0757  0.1884
  593loPI   C3B 9487   3.058   7.646   8.442 -0.0492  0.2397 -0.0418
  593loPI   C4B 9488   3.043   7.320   8.268 -0.3417 -0.0846  0.1010
  594loPI    C1 9489   7.210  14.687  10.004 -0.0835 -0.1254 -0.2723
  594loPI    C2 9490   7.136  14.406  10.280 -0.0298  0.0386 -0.0889
  594loPI    C3 9491   7.411  14.689  10.350 -0.0384  0.1006 -0.2982
  594loPI   PO4 9492   7.197  14.535   9.669  0.2406 -0.0159  0.1369
  594loPI   GL1 9493   7.453  14.367   9.440 -0.3591  0.0438  0.0109
  594loPI   GL2 9494   7.323  14.536   9.182  0.1629  0.0020 -0.1732
  594loPI   C1A 9495   7.736  14.307   9.080  0.3505 -0.1172 -0.0659
  594loPI   C2A 9496   8.070  14.327   8.759 -0.0510 -0.3961  0.0074
  594loPI   C3A 9497   8.154  14.058   8.349 -0.0541  0.2822  0.2413
  594loPI   C4A 9498   8.251  13.890   7.877  0.3809 -0.2829 -0.0609
  594loPI   C5A 9499   8.366  13.823   7.462 -0.0583  0.2536  0.1621
  594loPI   C6A 9500   8.528  14.044   7.064  0.2108  0.2220 -0.1852
  594loPI   C1B 9501   7.366  14.349   8.696 -0.0610  0.0439 -0.2273
  594loPI   C2B 9502   7.651  14.262   8.400 -0.0720  0.0568 -0.0584
  594loPI   C3B 9503   7.825  14.205   7.928 -0.0918 -0.0077 -0.0397
  594loPI   C4B 9504   8.178  14.360   7.590  0.0646  0.2518 -0.3781
  595loPI    C1 9505   8.076   2.928  10.156  0.0214  0.2226  0.0536
  595loPI    C2 9506   7.750   3.157  10.198 -0.1177  0.0344  0.0134
  595loPI    C3 9507   7.977   3.072  10.516 -0.1648  0.0829  0.0601
  595loPI   PO4 9508   8.161   3.004   9.958 -0.1103 -0.1007  0.5308
  595loPI   GL1 9509   7.947   3.275   9.702  0.2906  0.2337 -0.2222
  595loPI   GL2 9510   7.965   3.503   9.677 -0.0209 -0.2183 -0.0982
  595loPI   C1A 9511   8.021   3.200   9.197  0.0557 -0.2804 -0.0587
  595loPI   C2A 9512   7.988   3.352   8.718  0.0357 -0.0310  0.3376
  595loPI   C3A 9513   8.285   3.304   8.183  0.0134 -0.1243  0.2241
  595loPI   C4A 9514   8.445   3.302   7.740  0.1784 -0.2515 -0.0266
  595loPI   C5A 9515   8.605   3.629   7.514 -0.2192 -0.1824  0.2836
  595loPI   C6A 9516   8.607   3.904   7.208 -0.2331 -0.1666  0.3169
  595loPI   C1B 9517   8.006   3.656   9.275 -0.0426 -0.2490 -0.0289
  595loPI   C2B 9518   7.820   3.793   8.929 -0.1636 -0.3565 -0.2490
  595loPI   C3B 9519   7.596   4.031   8.630 -0.3902  0.1505 -0.2020
  595loPI   C4B 9520   7.263   4.002   8.251 -0.2257  0.0299 -0.0585
  596loPI    C1 9521  11.954   5.127  10.204  0.3064 -0.0481  0.0453
  596loPI    C2 9522  11.809   4.960  10.537  0.0621 -0.1271 -0.0983
  596loPI    C3 9523  11.868   5.355  10.521  0.1789 -0.1365  0.0751
  596loPI   PO4 9524  11.915   5.027   9.995 -0.0363  0.0543 -0.2264
  596loPI   GL1 9525  12.099   5.030   9.600  0.0213 -0.0349  0.2409
  596loPI   GL2 9526  11.894   4.698   9.620  0.1308  0.0557 -0.0632
  596loPI   C1A 9527  12.164   5.187   9.149 -0.0727  0.0699 -0.3984
  596loPI   C2A 9528  12.250   5.162   8.749  0.3063 -0.0495 -0.1947
  596loPI   C3A 9529  12.165   5.147   8.317  0.1332 -0.1579  0.0003
  596loPI   C4A 9530  12.236   5.031   7.899 -0.2573  0.0262 -0.1029
  596loPI   C5A 9531  12.376   4.868   7.530 -0.1774 -0.3252  0.2742
  596loPI   C6A 9532  12.524   5.102   7.159 -0.0318 -0.3788  0.1158
  596loPI   C1B 9533  11.988   4.745   9.157  0.1165  0.1172  0.1345
  596loPI   C2B 9534  11.952   4.557   8.799 -0.2145  0.0204 -0.1777
  596loPI   C3B 9535  12.148   4.237   8.407 -0.0918  0.0989  0.0079
  596loPI   C4B 9536  12.229   4.081   7.988  0.3029  0.0060  0.1698
  597loPI    C1 9537   2.102   2.488  10.220 -0.1777 -0.0215  0.0185
  597loPI    C2 9538   2.443   2.684  10.149 -0.2432 -0.0295 -0.3372
  597loPI    C3 9539   2.302   2.656  10.522  0.0773  0.0824 -0.2043
  597loPI   PO4 9540   2.170   2.303  10.035 -0.0361  0.0363  0.0158
  597loPI   GL1 9541   1.984   2.185   9.624 -0.0486 -0.0111  0.1638
  597loPI   GL2 9542   1.794   2.510   9.762 -0.1495  0.1216  0.1824
  597loPI   C1A 9543   1.978   2.391   9.256 -0.1748  0.2564 -0.2765
  597loPI   C2A 9544   2.117   2.354   8.937  0.2711 -0.2163  0.2451
  597loPI   C3A 9545   2.154   2.194   8.466  0.3405 -0.0605  0.1947
  597loPI   C4A 9546   2.354   2.140   7.975  0.1755 -0.2485  0.0851
  597loPI   C5A 9547   2.744   2.016   7.766  0.1693  0.3800  0.0083
  597loPI   C6A 9548   2.945   2.017   7.441  0.0959  0.1704  0.0004
  597loPI   C1B 9549   1.569   2.635   9.314  0.0239  0.0460 -0.0212
  597loPI   C2B 9550   1.663   2.680   8.830  0.0329 -0.0166  0.3259
  597loPI   C3B 9551   1.681   2.730   8.434  0.0338  0.0639  0.1506
  597loPI   C4B 9552   1.535   2.822   8.061  0.0797  0.0578  0.2100
  598loPI    C1 9553  13.793  14.658   9.311  0.0119 -0.1108 -0.0869
  598loPI    C2 9554  13.424  14.503   9.308 -0.0880  0.1071  0.2864
  598loPI    C3 9555  13.725  14.299   9.475 -0.0296 -0.0804 -0.0378
  598loPI   PO4 9556  13.885  14.890   9.127 -0.0658 -0.1594  0.0568
  598loPI   GL1 9557  13.943  15.260   8.753 -0.0250  0.0346  0.1165
  598loPI   GL2 9558  14.215  15.074   8.834 -0.2469 -0.2857  0.0089
  598loPI   C1A 9559  13.951  15.139   8.309  0.0873  0.0463 -0.3169
  598loPI   C2A 9560  14.170  15.017   7.908 -0.2968 -0.3241 -0.1771
  598loPI   C3A 9561  14.146  15.083   7.443  0.1455  0.3477  0.0181
  598loPI   C4A 9562  14.072  15.212   6.999  0.0065  0.0153 -0.2276
  598loPI   C5A 9563  14.157  15.491   6.638 -0.0884 -0.2550  0.1006
  598loPI   C6A 9564  14.359  15.608   6.250  0.2044  0.0511  0.2475
  598loPI   C1B 9565  14.122  14.739   8.539 -0.1095 -0.1164 -0.2657
  598loPI   C2B 9566  14.049  14.575   8.208  0.1698  0.0502  0.1322
  598loPI   C3B 9567  14.122  14.514   7.732  0.1495 -0.1894  0.0435
  598loPI   C4B 9568  14.200  14.593   7.232  0.2286  0.3627 -0.0797
  599loPI    C1 9569  12.433   5.019  10.248 -0.1015  0.0045 -0.2596
  599loPI    C2 9570  12.273   4.684  10.397  0.1345 -0.0497 -0.1224
  599loPI    C3 9571  12.290   5.014  10.622 -0.0371  0.0367 -0.2342
  599loPI   PO4 9572  12.407   4.993  10.039 -0.0829  0.5519 -0.0777
  599loPI   GL1 9573  12.433   4.673   9.760  0.1359  0.1155  0.1107
  599loPI   GL2 9574  12.228   4.362   9.661 -0.0262  0.0615 -0.1757
  599loPI   C1A 9575  12.432   4.634   9.369 -0.1616 -0.0956 -0.4005
  599loPI   C2A 9576  12.501   4.532   8.955 -0.3137 -0.2875  0.0123
  599loPI   C3A 9577  12.505   4.605   8.481 -0.2727  0.1085  0.2840
  599loPI   C4A 9578  12.400   4.562   7.989  0.0814 -0.3063  0.0234
  599loPI   C5A 9579  12.556   4.375   7.594 -0.2324  0.0824 -0.2187
  599loPI   C6A 9580  12.765   4.262   7.241 -0.1970  0.1009  0.1734
  599loPI   C1B 9581  12.164   4.212   9.220  0.1400  0.0901 -0.0096
  599loPI   C2B 9582  12.273   4.066   8.893 -0.1140  0.1400 -0.3846
  599loPI   C3B 9583  12.169   3.775   8.616 -0.1565 -0.0424  0.1254
  599loPI   C4B 9584  12.179   3.664   8.174  0.1272  0.0039 -0.0647
  600loPI    C1 9585  12.667  16.644   9.506 -0.2483  0.1578 -0.1926
  600loPI    C2 9586  12.422  16.479   9.775  0.3297  0.0644  0.2964
  600loPI    C3 9587  12.573  16.256   9.479 -0.0420  0.0860  0.0843
  600loPI   PO4 9588  12.446  16.901   9.354 -0.1338  0.1078  0.0509
  600loPI   GL1 9589  12.207  16.780   9.045  0.0759 -0.3318  0.1299
  600loPI   GL2 9590  12.413  16.504   8.976  0.3001 -0.0309  0.2402
  600loPI   C1A 9591  12.288  16.922   8.661  0.1381 -0.0805 -0.1226
  600loPI   C2A 9592  12.320  16.851   8.258 -0.0854 -0.1560  0.3598
  600loPI   C3A 9593  12.416  16.936   7.775  0.1530  0.3298 -0.1067
  600loPI   C4A 9594  12.578  16.896   7.315 -0.2190  0.1154 -0.3197
  600loPI   C5A 9595  12.488  16.812   6.861 -0.0723  0.0391  0.1431
  600loPI   C6A 9596  12.583  16.882   6.468  0.1532 -0.2149 -0.2516
  600loPI   C1B 9597  12.349  16.288   8.633 -0.2438  0.2770 -0.2910
  600loPI   C2B 9598  12.390  16.130   8.198 -0.1216  0.2586 -0.3103
  600loPI   C3B 9599  12.453  15.991   7.749  0.0773 -0.4914  0.3292
  600loPI   C4B 9600  12.642  15.906   7.320 -0.2560  0.3262 -0.0995
  601loPI    C1 9601  10.038   8.075  10.393  0.1028 -0.2140 -0.3198
  601loPI    C2 9602  10.328   7.837  10.533 -0.0360 -0.3146 -0.2014
  601loPI    C3 9603  10.028   7.951  10.773 -0.0285 -0.1078 -0.2877
  601loPI   PO4 9604  10.086   8.174  10.127  0.3967  0.1811  0.0113
  601loPI   GL1 9605   9.863   8.233   9.706 -0.1704 -0.0874  0.0088
  601loPI   GL2 9606  10.121   8.422   9.618  0.2430  0.2759 -0.3113
  601loPI   C1A 9607   9.797   8.041   9.317  0.2363  0.0334  0.1254
  601loPI   C2A 9608   9.633   7.996   9.007  0.0443  0.0002  0.2169
  601loPI   C3A 9609   9.575   7.975   8.609 -0.1150 -0.1097 -0.1455
  601loPI   C4A 9610   9.604   7.709   8.357  0.0218 -0.0145 -0.1289
  601loPI   C5A 9611   9.797   7.297   8.244 -0.0553 -0.2777 -0.0056
  601loPI   C6A 9612   9.563   6.942   8.140  0.1535 -0.3293  0.2938
  601loPI   C1B 9613  10.252   8.272   9.205  0.0449 -0.0042 -0.0605
  601loPI   C2B 9614  10.181   8.212   8.833 -0.0351 -0.0585  0.0675
  601loPI   C3B 9615   9.985   8.239   8.388  0.1554  0.1249  0.0018
  601loPI   C4B 9616   9.836   8.316   7.922  0.0931  0.0828 -0.1016
  602loPI    C1 9617  12.312   8.147  10.021  0.0355 -0.0821 -0.0029
  602loPI    C2 9618  12.043   7.864   9.936 -0.0618  0.0099 -0.0039
  602loPI    C3 9619  12.087   7.991  10.312  0.0827 -0.1079  0.0199
  602loPI   PO4 9620  12.489   8.022   9.830 -0.1096  0.1850  0.4893
  602loPI   GL1 9621  12.388   7.800   9.454  0.1186 -0.1008 -0.1126
  602loPI   GL2 9622  12.081   7.847   9.455  0.1734 -0.3388  0.1905
  602loPI   C1A 9623  12.541   7.703   9.096 -0.0950 -0.3831 -0.0088
  602loPI   C2A 9624  12.790   7.685   8.719 -0.0730  0.1848 -0.0679
  602loPI   C3A 9625  13.067   7.650   8.299 -0.3914  0.2269 -0.0654
  602loPI   C4A 9626  13.308   7.816   7.837 -0.1649  0.1295 -0.4589
  602loPI   C5A 9627  13.656   7.856   7.724 -0.1569  0.3615 -0.1576
  602loPI   C6A 9628  14.062   7.819   7.522 -0.1185 -0.3068  0.3881
  602loPI   C1B 9629  12.114   7.984   9.015 -0.2367  0.1896 -0.1456
  602loPI   C2B 9630  12.235   7.646   8.604  0.3374  0.0988 -0.2431
  602loPI   C3B 9631  12.515   7.520   8.358  0.1725  0.1659  0.0658
  602loPI   C4B 9632  12.840   7.246   7.990  0.3053 -0.1640 -0.2849
  603loPI    C1 9633  16.782  12.737   9.360  0.1800  0.0943 -0.2006
  603loPI    C2 9634  16.575  13.037   9.195 -0.0463  0.0569  0.0094
  603loPI    C3 9635  16.561  12.977   9.590  0.1408 -0.1219 -0.0092
  603loPI   PO4 9636  17.118  12.516   9.295 -0.1085 -0.0159 -0.0561
  603loPI   GL1 9637  17.252  12.558   8.903 -0.1204  0.0530 -0.1381
  603loPI   GL2 9638  17.605  12.440   8.922  0.0574 -0.2311 -0.1262
  603loPI   C1A 9639  17.380  12.622   8.451 -0.2335  0.0541 -0.0277
  603loPI   C2A 9640  17.274  12.648   8.072  0.0283  0.1401 -0.2935
  603loPI   C3A 9641  17.317  12.647   7.705  0.1132  0.2049 -0.0056
  603loPI   C4A 9642  17.360  12.599   7.272 -0.0288 -0.2261 -0.0799
  603loPI   C5A 9643  17.149  12.467   6.866 -0.0171  0.1654 -0.0086
  603loPI   C6A 9644  16.987  12.237   6.593  0.0214  0.1128  0.2301
  603loPI   C1B 9645  17.849  12.440   8.532 -0.0017 -0.0051  0.0010
  603loPI   C2B 9646  17.809  12.539   8.018 -0.1813  0.0524  0.1806
  603loPI   C3B 9647  17.897  12.538   7.618  0.1804  0.3143  0.1934
  603loPI   C4B 9648  17.780  12.383   7.250 -0.1390 -0.1805  0.1166
  604loPI    C1 9649   8.416  14.541  10.021  0.0281 -0.0951 -0.1001
  604loPI    C2 9650   8.436  14.143  10.053  0.1331 -0.0734  0.1214
  604loPI    C3 9651   8.739  14.370  10.182  0.1301  0.0735 -0.1234
  604loPI   PO4 9652   8.205  14.457   9.759  0.0742 -0.0255  0.0975
  604loPI   GL1 9653   8.254  14.413   9.334  0.1683 -0.0081  0.0061
  604loPI   GL2 9654   8.586  14.525   9.303 -0.2639  0.0002 -0.0739
  604loPI   C1A 9655   8.482  14.189   8.977 -0.1423  0.0357 -0.3252
  604loPI   C2A 9656   8.621  14.249   8.595 -0.1014 -0.3385  0.0789
  604loPI   C3A 9657   8.695  14.167   8.142  0.1382 -0.1925 -0.0367
  604loPI   C4A 9658   8.736  14.097   7.665  0.1763 -0.2876 -0.2272
  604loPI   C5A 9659   8.738  14.430   7.296 -0.0157  0.2004  0.1339
  604loPI   C6A 9660   8.711  14.751   6.989  0.0432 -0.2075 -0.2695
  604loPI   C1B 9661   8.419  14.638   8.840  0.0900  0.0351 -0.0314
  604loPI   C2B 9662   8.263  14.754   8.486 -0.2033 -0.0320  0.3950
  604loPI   C3B 9663   8.609  14.706   8.234 -0.1405  0.0962  0.3207
  604loPI   C4B 9664   8.761  14.594   7.773 -0.2112 -0.4505 -0.0534
  605loPI    C1 9665   6.082   9.979  10.148 -0.1623 -0.3322 -0.0056
  605loPI    C2 9666   6.289   9.769   9.878 -0.0950 -0.2677 -0.0045
  605loPI    C3 9667   6.452   9.853  10.233 -0.0084  0.0326 -0.1120
  605loPI   PO4 9668   5.902  10.134   9.918  0.1802 -0.0755  0.1206
  605loPI   GL1 9669   5.824  10.047   9.398  0.2504  0.1979  0.0816
  605loPI   GL2 9670   6.175   9.973   9.444 -0.1141  0.2074 -0.1657
  605loPI   C1A 9671   5.577  10.032   9.004 -0.0727 -0.2264 -0.2971
  605loPI   C2A 9672   5.387   9.884   8.609 -0.2105 -0.1691  0.1454
  605loPI   C3A 9673   5.044  10.050   8.277  0.1036  0.2866 -0.1190
  605loPI   C4A 9674   4.992  10.052   7.826  0.0938  0.4017 -0.2806
  605loPI   C5A 9675   5.268   9.756   7.652 -0.0015  0.0842 -0.0025
  605loPI   C6A 9676   5.566   9.349   7.546  0.1104  0.0714  0.0345
  605loPI   C1B 9677   6.291   9.913   9.043 -0.3251 -0.0335  0.0268
  605loPI   C2B 9678   6.485   9.927   8.611  0.3253 -0.1353 -0.0696
  605loPI   C3B 9679   6.686   9.726   8.209 -0.0881  0.0859 -0.2927
  605loPI   C4B 9680   6.778   9.657   7.844  0.1706  0.2078  0.5358
  606loPI    C1 9681   7.498   0.995  10.001  0.0646  0.0101 -0.0266
  606loPI    C2 9682   7.152   0.883  10.168  0.0516 -0.0334 -0.0824
  606loPI    C3 9683   7.491   0.867  10.380 -0.0451  0.4311  0.1196
  606loPI   PO4 9684   7.445   0.990   9.765  0.2415 -0.1312  0.2425
  606loPI   GL1 9685   7.536   1.021   9.344  0.2120 -0.0775  0.1108
  606loPI   GL2 9686   7.845   0.962   9.217 -0.1811  0.0382  0.0224
  606loPI   C1A 9687   7.369   0.756   9.074 -0.1092 -0.1217 -0.0708
  606loPI   C2A 9688   7.624   0.554   8.745  0.0243  0.2122 -0.1372
  606loPI   C3A 9689   7.770   0.427   8.337 -0.0485  0.0773 -0.1593
  606loPI   C4A 9690   7.927   0.480   7.807  0.2182  0.1495 -0.0353
  606loPI   C5A 9691   8.066   0.526   7.402 -0.5466  0.3457  0.2207
  606loPI   C6A 9692   7.997   0.626   6.978  0.3437 -0.2321  0.1436
  606loPI   C1B 9693   7.673   1.077   8.778  0.1984  0.0735  0.0960
  606loPI   C2B 9694   7.616   0.905   8.432  0.0516 -0.3856 -0.0854
  606loPI   C3B 9695   7.365   0.788   8.156 -0.2665 -0.3152 -0.0278
  606loPI   C4B 9696   7.353   0.526   7.812  0.0151  0.1032  0.1718
  607loPI    C1 9697   9.602  13.390   9.920  0.3455  0.1059  0.1796
  607loPI    C2 9698   9.396  13.059  10.011  0.2688 -0.0015 -0.3490
  607loPI    C3 9699   9.540  13.292  10.303 -0.1929 -0.1746  0.0313
  607loPI   PO4 9700   9.620  13.363   9.596  0.3500 -0.3107  0.0511
  607loPI   GL1 9701   9.668  13.147   9.247  0.0637  0.0429 -0.1129
  607loPI   GL2 9702  10.076  13.083   9.208 -0.1141 -0.0142  0.1042
  607loPI   C1A 9703   9.739  13.186   8.828  0.1402 -0.2074 -0.1649
  607loPI   C2A 9704   9.854  13.230   8.380 -0.0084 -0.0883 -0.0376
  607loPI   C3A 9705   9.953  13.061   7.972  0.1603 -0.0315  0.5460
  607loPI   C4A 9706  10.146  12.909   7.668  0.1783  0.0634 -0.1332
  607loPI   C5A 9707  10.261  13.002   7.170  0.0616  0.0638 -0.3252
  607loPI   C6A 9708  10.316  12.718   6.768  0.0954  0.1801 -0.0382
  607loPI   C1B 9709  10.226  13.031   8.797 -0.1359  0.0727  0.0452
  607loPI   C2B 9710  10.251  12.903   8.419 -0.2654  0.0610  0.0273
  607loPI   C3B 9711  10.449  12.740   8.033 -0.3237  0.0345  0.1979
  607loPI   C4B 9712  10.605  12.747   7.567 -0.1419 -0.2825  0.4418
  608loPI    C1 9713   3.602  14.071   9.792 -0.1526  0.1919  0.0833
  608loPI    C2 9714   3.249  13.928   9.669 -0.0935 -0.0547  0.1945
  608loPI    C3 9715   3.289  14.070  10.041  0.0155 -0.3737  0.3080
  608loPI   PO4 9716   3.710  14.079   9.512 -0.2235 -0.0318 -0.0296
  608loPI   GL1 9717   3.569  13.921   9.055 -0.3034  0.2856  0.2264
  608loPI   GL2 9718   3.338  13.704   9.220  0.1524  0.1406  0.0290
  608loPI   C1A 9719   3.804  13.875   8.587 -0.0485 -0.0213  0.3326
  608loPI   C2A 9720   3.974  13.903   8.118  0.1780  0.1767  0.2100
  608loPI   C3A 9721   3.999  13.697   7.723  0.0760  0.5427 -0.4412
  608loPI   C4A 9722   3.819  13.629   7.317 -0.0781 -0.3899  0.0516
  608loPI   C5A 9723   3.565  13.682   6.997  0.4395  0.0248 -0.0731
  608loPI   C6A 9724   3.174  13.930   6.940  0.2867 -0.3325 -0.2455
  608loPI   C1B 9725   3.282  13.649   8.802  0.2523 -0.6360  0.0678
  608loPI   C2B 9726   3.410  13.710   8.369  0.2104  0.0709 -0.4146
  608loPI   C3B 9727   3.493  13.876   7.902 -0.1581  0.2610 -0.2819
  608loPI   C4B 9728   3.446  13.957   7.488 -0.4327 -0.0971  0.1450
  609POPI    C1 9729   6.034  18.819  10.211  0.1833 -0.0546  0.0149
  609POPI    C2 9730   5.905  19.041  10.519  0.1301 -0.0619 -0.0019
  609POPI    C3 9731   6.151  18.732  10.584 -0.0027 -0.1573  0.0503
  609POPI   PO4 9732   5.863  18.842  10.080  0.2590 -0.4331  0.2520
  609POPI   GL1 9733   5.861  18.799   9.539  0.2093 -0.2182  0.0420
  609POPI   GL2 9734   6.136  18.954   9.291 -0.0866  0.3260 -0.3224
  609POPI   C1A 9735   5.686  18.680   9.046  0.1260  0.1623 -0.1463
  609POPI   D2A 9736   5.401  18.735   8.628 -0.1186 -0.0295  0.0267
  609POPI   C3A 9737   5.591  18.724   8.196  0.0413 -0.1385 -0.0610
  609POPI   C4A 9738   5.277  18.810   7.901 -0.1076 -0.2087 -0.2396
  609POPI   C1B 9739   6.102  19.069   8.920  0.0494 -0.5573  0.3463
  609POPI   C2B 9740   6.242  19.162   8.543 -0.0079  0.1422 -0.3173
  609POPI   C3B 9741   6.060  19.019   8.133 -0.0637  0.2745 -0.0637
  609POPI   C4B 9742   5.750  19.066   7.937 -0.2151 -0.1358 -0.0838
  610POPI    C1 9743   0.067  14.854   9.607 -0.0066 -0.0272  0.0556
  610POPI    C2 9744  -0.024  14.550   9.364 -0.0540 -0.0801  0.1390
  610POPI    C3 9745   0.125  14.477   9.728 -0.1248 -0.0052  0.1834
  610POPI   PO4 9746   0.147  15.034   9.464 -0.2997  0.0726 -0.1560
  610POPI   GL1 9747   0.222  14.978   9.098  0.2529 -0.1181 -0.2644
  610POPI   GL2 9748  -0.065  15.194   8.904  0.0178  0.0899  0.2024
  610POPI   C1A 9749   0.468  14.880   8.738  0.0547 -0.1993  0.0163
  610POPI   D2A 9750   0.701  14.615   8.425 -0.1919 -0.1728  0.0881
  610POPI   C3A 9751   0.822  14.232   8.278  0.1887  0.0752  0.0102
  610POPI   C4A 9752   0.963  14.037   7.953  0.0170  0.0798  0.2184
  610POPI   C1B 9753  -0.022  15.017   8.539 -0.1622  0.0540 -0.0960
  610POPI   C2B 9754   0.293  14.886   8.244  0.1797 -0.3501  0.2514
  610POPI   C3B 9755   0.511  14.766   7.884  0.1312 -0.0508 -0.0252
  610POPI   C4B 9756   0.530  14.435   7.604 -0.0228 -0.0815 -0.2424
  611POPI    C1 9757   6.186  13.807   9.833  0.0071 -0.1861  0.1161
  611POPI    C2 9758   6.467  13.568   9.987 -0.0599 -0.1136  0.3555
  611POPI    C3 9759   6.308  13.859  10.211 -0.2385 -0.0761  0.1823
  611POPI   PO4 9760   5.917  13.627   9.701  0.1034 -0.1450  0.2154
  611POPI   GL1 9761   5.761  13.450   9.407 -0.0401  0.1100 -0.4652
  611POPI   GL2 9762   5.545  13.647   9.236 -0.1731 -0.0672 -0.0212
  611POPI   C1A 9763   5.806  13.202   9.169  0.0462 -0.0871 -0.2647
  611POPI   D2A 9764   5.877  13.128   8.729 -0.0331 -0.0255  0.0896
  611POPI   C3A 9765   5.535  13.171   8.516 -0.0993  0.2469  0.0895
  611POPI   C4A 9766   5.571  13.118   8.053 -0.0629  0.3894 -0.0413
  611POPI   C1B 9767   5.635  13.982   9.147 -0.2554  0.0549 -0.0274
  611POPI   C2B 9768   5.920  14.178   8.931 -0.4715 -0.2476 -0.2265
  611POPI   C3B 9769   6.276  14.441   8.927 -0.0935  0.1758  0.0962
  611POPI   C4B 9770   6.410  14.854   8.752 -0.0230 -0.1237 -0.4663
  612POPI    C1 9771   0.083  14.085   9.294  0.0686 -0.0632  0.0541
  612POPI    C2 9772   0.035  13.942   9.664  0.0006 -0.3900 -0.0773
  612POPI    C3 9773   0.389  14.090   9.552 -0.0185 -0.1570  0.1601
  612POPI   PO4 9774   0.083  13.890   9.092  0.1572 -0.1082  0.1763
  612POPI   GL1 9775   0.042  13.792   8.692  0.0941  0.2841 -0.2040
  612POPI   GL2 9776  -0.208  14.003   8.596  0.0451  0.0625 -0.1786
  612POPI   C1A 9777   0.442  13.804   8.435  0.2324 -0.0071  0.0981
  612POPI   D2A 9778   0.465  13.914   8.071 -0.2482 -0.2452  0.0922
  612POPI   C3A 9779   0.410  13.904   7.621 -0.0758 -0.0712  0.0103
  612POPI   C4A 9780   0.335  13.764   7.074 -0.1380  0.5340 -0.0835
  612POPI   C1B 9781  -0.082  13.866   8.103 -0.1190 -0.2093 -0.0323
  612POPI   C2B 9782  -0.220  13.751   7.701 -0.1058 -0.2555  0.0593
  612POPI   C3B 9783  -0.253  13.684   7.268 -0.1748 -0.0385  0.0834
  612POPI   C4B 9784  -0.313  13.588   6.834  0.2869 -0.0489 -0.0003
  613POPI    C1 9785   9.810   3.844   9.840  0.1298 -0.1927 -0.1626
  613POPI    C2 9786   9.951   4.163  10.037  0.0672 -0.1116 -0.2487
  613POPI    C3 9787   9.964   3.802  10.207 -0.0577 -0.0301 -0.0633
  613POPI   PO4 9788   9.788   3.935   9.579 -0.0496 -0.2679  0.2026
  613POPI   GL1 9789   9.940   3.943   9.169 -0.0726 -0.0342  0.1935
  613POPI   GL2 9790  10.221   3.996   9.145 -0.2146  0.0243  0.1014
  613POPI   C1A 9791   9.804   3.788   8.742 -0.0792 -0.1832  0.0917
  613POPI   D2A 9792   9.729   3.575   8.315  0.2720 -0.2586  0.2059
  613POPI   C3A 9793   9.822   3.542   7.899 -0.1953  0.5001  0.1225
  613POPI   C4A 9794  10.224   3.733   7.564 -0.0088  0.0641  0.1138
  613POPI   C1B 9795  10.227   4.175   8.744  0.1579 -0.0723  0.2267
  613POPI   C2B 9796  10.395   4.407   8.387  0.2957 -0.1386 -0.1786
  613POPI   C3B 9797  10.451   4.665   8.058 -0.0360  0.2538 -0.3801
  613POPI   C4B 9798  10.394   4.662   7.570 -0.2093 -0.3151  0.3036
  614POPI    C1 9799  15.608   2.597   9.767  0.1777  0.0672  0.1107
  614POPI    C2 9800  15.408   2.794  10.051  0.0327 -0.0647  0.1013
  614POPI    C3 9801  15.708   2.974   9.857 -0.2253  0.2161 -0.0460
  614POPI   PO4 9802  15.482   2.610   9.521  0.1136  0.3663 -0.2885
  614POPI   GL1 9803  15.557   2.300   9.120  0.0810 -0.1652  0.2080
  614POPI   GL2 9804  15.768   2.524   9.030  0.2180  0.0954  0.0625
  614POPI   C1A 9805  15.147   2.530   8.969 -0.2436 -0.3562 -0.2413
  614POPI   D2A 9806  14.879   2.535   8.608 -0.0471  0.0808  0.0763
  614POPI   C3A 9807  15.055   2.658   8.241  0.1733  0.0408  0.1942
  614POPI   C4A 9808  15.075   2.883   7.774  0.0178  0.1602 -0.1654
  614POPI   C1B 9809  15.834   2.759   8.572 -0.0797 -0.1225  0.0474
  614POPI   C2B 9810  15.835   2.835   8.154 -0.6716 -0.2362 -0.1577
  614POPI   C3B 9811  15.833   3.116   7.732 -0.0614 -0.1960 -0.1766
  614POPI   C4B 9812  15.678   3.237   7.236 -0.1747 -0.2025  0.0396
  615POPI    C1 9813   9.394  18.075   9.894 -0.1033 -0.0211  0.1309
  615POPI    C2 9814   9.686  18.062  10.167  0.0747  0.1003 -0.0505
  615POPI    C3 9815   9.539  18.415  10.047  0.1113  0.0555 -0.2302
  615POPI   PO4 9816   9.418  17.948   9.689  0.0491 -0.1162  0.0420
  615POPI   GL1 9817   9.451  17.974   9.248  0.3494 -0.1902 -0.0663
  615POPI   GL2 9818   9.832  17.938   9.379 -0.2672 -0.0619  0.1096
  615POPI   C1A 9819   9.341  18.131   8.817  0.1760  0.1838 -0.1316
  615POPI   D2A 9820   9.408  18.089   8.409  0.0842 -0.2794 -0.2626
  615POPI   C3A 9821   9.538  18.084   7.954  0.0368 -0.4017 -0.1986
  615POPI   C4A 9822   9.636  17.845   7.577 -0.0496  0.1318  0.3532
  615POPI   C1B 9823   9.866  18.188   8.958 -0.0029 -0.0285  0.2269
  615POPI   C2B 9824   9.928  18.555   8.711  0.0367  0.1372  0.2400
  615POPI   C3B 9825  10.024  18.884   8.393 -0.0224  0.3393  0.0431
  615POPI   C4B 9826  10.049  18.990   7.972 -0.0354  0.0867 -0.0749
  616POPI    C1 9827   2.314   1.363  10.326  0.0171 -0.1667 -0.2382
  616POPI    C2 9828   1.945   1.220  10.387  0.0020 -0.1225 -0.2254
  616POPI    C3 9829   2.230   1.164  10.663 -0.0624  0.0641 -0.1194
  616POPI   PO4 9830   2.196   1.469  10.104 -0.2048 -0.1358 -0.1156
  616POPI   GL1 9831   2.135   1.601   9.585 -0.1239 -0.1022 -0.0181
  616POPI   GL2 9832   2.447   1.599   9.395 -0.2085 -0.0074  0.3355
  616POPI   C1A 9833   1.994   1.339   9.308  0.0162 -0.1767 -0.2195
  616POPI   D2A 9834   1.717   1.106   9.062 -0.0760  0.1850 -0.0879
  616POPI   C3A 9835   1.702   1.239   8.594 -0.3152  0.0574 -0.2921
  616POPI   C4A 9836   1.352   1.416   8.571  0.0882 -0.4177  0.0669
  616POPI   C1B 9837   2.378   1.368   9.013  0.0448  0.0810 -0.0984
  616POPI   C2B 9838   2.291   1.257   8.639  0.2284 -0.2537 -0.4176
  616POPI   C3B 9839   1.962   1.199   8.131 -0.0406 -0.1656 -0.1032
  616POPI   C4B 9840   1.637   1.389   8.017 -0.1149 -0.0810  0.0762
  617POPI    C1 9841  15.047   0.495   9.329 -0.2054 -0.2152  0.1535
  617POPI    C2 9842  14.655   0.458   9.259 -0.1964  0.1580 -0.1251
  617POPI    C3 9843  14.791   0.767   9.472 -0.0547  0.0075  0.0053
  617POPI   PO4 9844  15.117   0.258   9.251  0.0312 -0.0939 -0.3489
  617POPI   GL1 9845  15.082   0.078   8.805 -0.0733 -0.3081  0.0907
  617POPI   GL2 9846  14.814   0.260   8.808  0.2111 -0.2577 -0.0027
  617POPI   C1A 9847  15.361   0.005   8.588  0.0566  0.0002  0.1005
  617POPI   D2A 9848  15.772   0.030   8.422 -0.0178  0.2234  0.0357
  617POPI   C3A 9849  15.933   0.172   8.019 -0.1848 -0.0436  0.2337
  617POPI   C4A 9850  16.037   0.217   7.582 -0.1393 -0.0076  0.2081
  617POPI   C1B 9851  14.694   0.379   8.499 -0.0499  0.3646  0.1329
  617POPI   C2B 9852  14.932   0.266   8.055  0.0706  0.0543 -0.2542
  617POPI   C3B 9853  14.970   0.139   7.656 -0.2679  0.0821 -0.0787
  617POPI   C4B 9854  15.101   0.188   7.125 -0.0255  0.0808  0.0908
  618POPI    C1 9855   8.737   9.700  10.185 -0.4531 -0.0180  0.0930
  618POPI    C2 9856   8.653   9.310  10.173 -0.0795 -0.1003  0.0032
  618POPI    C3 9857   8.513   9.536  10.472 -0.1353 -0.3424  0.1630
  618POPI   PO4 9858   8.745   9.749   9.979  0.2602 -0.0863  0.0067
  618POPI   GL1 9859   8.625   9.459   9.699  0.2984 -0.0423  0.1960
  618POPI   GL2 9860   8.414   9.193   9.643 -0.1012  0.0140  0.0756
  618POPI   C1A 9861   8.967   9.481   9.330  0.1264 -0.0296 -0.0506
  618POPI   D2A 9862   8.892   9.372   8.980 -0.4235 -0.0815 -0.1718
  618POPI   C3A 9863   8.508   9.143   8.859 -0.0566 -0.3481  0.1328
  618POPI   C4A 9864   8.347   9.098   8.529 -0.0404  0.1842  0.0592
  618POPI   C1B 9865   8.722   8.978   9.363  0.0732  0.1036 -0.0597
  618POPI   C2B 9866   9.120   9.033   9.245  0.1039  0.0760  0.2517
  618POPI   C3B 9867   9.196   8.853   8.845  0.3258  0.2538 -0.0893
  618POPI   C4B 9868   9.149   8.670   8.467  0.4099  0.3510 -0.0879
  619POPI    C1 9869  14.408   4.207  10.156 -0.2580  0.1217  0.0305
  619POPI    C2 9870  14.604   4.506   9.977 -0.0314 -0.0492 -0.0116
  619POPI    C3 9871  14.719   4.380  10.339 -0.0748 -0.1388 -0.0285
  619POPI   PO4 9872  14.335   4.011   9.964 -0.3163  0.0180  0.2186
  619POPI   GL1 9873  14.182   4.074   9.553  0.2838 -0.0274  0.1613
  619POPI   GL2 9874  14.473   4.261   9.576 -0.0736  0.2578  0.1506
  619POPI   C1A 9875  13.898   4.180   9.151 -0.2633 -0.1660 -0.0347
  619POPI   D2A 9876  13.892   4.276   8.770 -0.2490 -0.0386 -0.2164
  619POPI   C3A 9877  13.782   4.539   8.497  0.0278  0.0707 -0.3948
  619POPI   C4A 9878  13.823   4.679   8.148  0.1055  0.1046  0.3081
  619POPI   C1B 9879  14.417   4.114   9.068  0.0397  0.2808 -0.1061
  619POPI   C2B 9880  14.496   4.188   8.654  0.0874 -0.0375  0.1262
  619POPI   C3B 9881  14.379   4.100   8.207 -0.1405 -0.0796 -0.0760
  619POPI   C4B 9882  14.217   4.297   7.716 -0.1117 -0.1412 -0.0069
  620POPI    C1 9883  14.479  11.849   9.890  0.1221  0.0134 -0.0610
  620POPI    C2 9884  14.174  11.642  10.044  0.0900  0.0818 -0.0320
  620POPI    C3 9885  14.528  11.644  10.229  0.0767  0.0918 -0.0065
  620POPI   PO4 9886  14.510  11.775   9.607  0.1014  0.1340  0.1758
  620POPI   GL1 9887  14.305  11.943   9.161  0.1192  0.0402 -0.1424
  620POPI   GL2 9888  14.225  11.666   9.196 -0.0628  0.3026 -0.0568
  620POPI   C1A 9889  13.968  11.889   8.865 -0.0341 -0.1554  0.2126
  620POPI   D2A 9890  13.939  12.130   8.468 -0.0156  0.1474  0.0788
  620POPI   C3A 9891  13.767  11.819   8.260  0.1537 -0.2139 -0.2375
  620POPI   C4A 9892  13.591  11.677   7.872  0.2274  0.0666 -0.1239
  620POPI   C1B 9893  14.268  11.558   8.803 -0.1048  0.1747  0.1072
  620POPI   C2B 9894  14.235  11.627   8.330 -0.0383  0.1577 -0.2467
  620POPI   C3B 9895  14.148  11.559   7.923 -0.2018 -0.0617 -0.3190
  620POPI   C4B 9896  13.958  11.448   7.505 -0.1714 -0.2707 -0.1482
  621POPI    C1 9897  16.716  16.910   9.276  0.3664  0.0819  0.2680
  621POPI    C2 9898  16.408  17.086   9.461  0.1819  0.0324  0.0143
  621POPI    C3 9899  16.761  17.054   9.646 -0.0192 -0.0907  0.3882
  621POPI   PO4 9900  16.727  16.955   9.087  0.0861  0.1069  0.2553
  621POPI   GL1 9901  16.864  17.048   8.708  0.0129 -0.3935  0.2301
  621POPI   GL2 9902  16.608  17.300   8.676 -0.2265 -0.0867  0.0670
  621POPI   C1A 9903  16.993  17.316   8.366  0.1846  0.1096  0.3040
  621POPI   D2A 9904  17.376  17.495   8.380 -0.0681 -0.2402 -0.2032
  621POPI   C3A 9905  17.619  17.730   8.163 -0.0316 -0.2883 -0.0650
  621POPI   C4A 9906  18.005  17.979   8.087 -0.0580  0.2878  0.2345
  621POPI   C1B 9907  16.560  17.239   8.200  0.2862  0.2535 -0.1322
  621POPI   C2B 9908  16.392  17.275   7.770  0.1393 -0.1539  0.0887
  621POPI   C3B 9909  16.773  17.131   7.434  0.3716 -0.1358 -0.1567
  621POPI   C4B 9910  17.283  16.989   7.660 -0.0227 -0.2800 -0.0325
  622POPI    C1 9911  17.603  14.696   9.315 -0.0112 -0.2475  0.0098
  622POPI    C2 9912  17.833  14.467   9.548  0.1371  0.0066  0.1177
  622POPI    C3 9913  17.463  14.562   9.665  0.1664  0.0305  0.1914
  622POPI   PO4 9914  17.576  14.604   9.087  0.2417 -0.1613  0.2164
  622POPI   GL1 9915  17.419  14.283   8.763  0.3204  0.1584 -0.0856
  622POPI   GL2 9916  17.178  14.561   8.627  0.0738 -0.0504  0.0385
  622POPI   C1A 9917  17.621  13.905   8.850 -0.3856 -0.0559 -0.0360
  622POPI   D2A 9918  17.701  13.501   8.850  0.0195  0.0558  0.0480
  622POPI   C3A 9919  17.838  13.444   8.531 -0.0738 -0.0720  0.2459
  622POPI   C4A 9920  17.967  13.387   8.185  0.2333  0.0536  0.2398
  622POPI   C1B 9921  17.115  14.338   8.225  0.0926  0.0339 -0.0983
  622POPI   C2B 9922  17.311  14.460   7.828  0.2065  0.3975  0.2247
  622POPI   C3B 9923  17.356  14.698   7.455 -0.0889  0.0736  0.1977
  622POPI   C4B 9924  17.111  14.678   7.082  0.2284 -0.4100  0.0362
  623POPI    C1 9925   5.685   4.205  10.742  0.0027  0.0788 -0.1411
  623POPI    C2 9926   5.833   4.099  11.097 -0.3048  0.0629 -0.0140
  623POPI    C3 9927   5.561   4.391  11.073 -0.2399  0.1065 -0.2445
  623POPI   PO4 9928   5.869   4.180  10.610 -0.0387 -0.0585 -0.0009
  623POPI   GL1 9929   6.065   4.285  10.163 -0.0146 -0.2652  0.2209
  623POPI   GL2 9930   5.732   4.316  10.120  0.1546  0.4467  0.3787
  623POPI   C1A 9931   6.330   4.218   9.921  0.1367  0.0501  0.0539
  623POPI   D2A 9932   6.233   3.939   9.584 -0.0416 -0.1231  0.1150
  623POPI   C3A 9933   5.930   3.899   9.236 -0.2304  0.2168  0.0362
  623POPI   C4A 9934   5.765   3.988   8.897 -0.1336 -0.5608 -0.1883
  623POPI   C1B 9935   5.729   4.062   9.752  0.0841  0.0464 -0.0366
  623POPI   C2B 9936   5.431   3.854   9.482 -0.2002 -0.1484  0.1476
  623POPI   C3B 9937   5.338   3.786   9.075  0.0634 -0.0018 -0.1254
  623POPI   C4B 9938   5.357   3.775   8.748 -0.1094  0.0719 -0.0864
  624POPI    C1 9939   4.195   3.930  10.403  0.0717  0.2900  0.0484
  624POPI    C2 9940   4.381   3.576  10.381  0.2410  0.3945 -0.2703
  624POPI    C3 9941   4.081   3.629  10.641  0.2566  0.0386 -0.1747
  624POPI   PO4 9942   4.130   3.991  10.193  0.0553 -0.2620  0.0943
  624POPI   GL1 9943   3.835   3.942   9.949  0.0589 -0.2850 -0.1613
  624POPI   GL2 9944   3.975   4.104   9.720 -0.1897 -0.0772 -0.1653
  624POPI   C1A 9945   3.489   3.857   9.550 -0.1199 -0.1032 -0.3933
  624POPI   D2A 9946   3.305   3.623   9.265 -0.0581  0.1751 -0.3236
  624POPI   C3A 9947   3.450   3.474   8.947  0.2530  0.0781  0.0526
  624POPI   C4A 9948   3.486   3.532   8.635  0.2780 -0.0874  0.3655
  624POPI   C1B 9949   3.995   3.975   9.305 -0.2844  0.1055 -0.1621
  624POPI   C2B 9950   4.187   3.937   8.837 -0.0037  0.0163 -0.1572
  624POPI   C3B 9951   4.236   3.892   8.320  0.1596 -0.1459  0.4803
  624POPI   C4B 9952   4.203   3.795   7.904  0.0559 -0.0936 -0.1123
  625DPPI    C1 9953  11.147   7.471  10.254  0.4010 -0.3205  0.0720
  625DPPI    C2 9954  11.288   7.772  10.477 -0.2870  0.0958 -0.0247
  625DPPI    C3 9955  11.281   7.399  10.624  0.2831  0.1703  0.2172
  625DPPI   PO4 9956  10.964   7.578  10.059  0.1111  0.0993  0.2666
  625DPPI   GL1 9957  11.220   7.504   9.723 -0.0548  0.0542  0.4318
  625DPPI   GL2 9958  11.212   7.175   9.775 -0.1620  0.0286  0.0692
  625DPPI   C1A 9959  11.164   7.517   9.265  0.0647 -0.0690  0.2259
  625DPPI   C2A 9960  11.058   7.503   8.866  0.1560  0.1103 -0.0061
  625DPPI   C3A 9961  11.286   7.490   8.500 -0.0005 -0.0632 -0.3806
  625DPPI   C4A 9962  11.498   7.312   8.212  0.1789  0.3027 -0.2073
  625DPPI   C1B 9963  11.028   7.056   9.382  0.0575  0.4653 -0.1035
  625DPPI   C2B 9964  11.173   7.004   8.977  0.2320 -0.1943 -0.1052
  625DPPI   C3B 9965  11.013   7.021   8.555  0.2021 -0.4423 -0.1203
  625DPPI   C4B 9966  11.133   6.777   8.150  0.1349  0.0429 -0.2946
  626DPPI    C1 9967   6.038  11.920   9.481 -0.1396 -0.4208 -0.1813
  626DPPI    C2 9968   6.197  11.832   9.837  0.1174  0.0250 -0.1785
  626DPPI    C3 9969   5.805  11.779   9.774 -0.0035  0.2887  0.2945
  626DPPI   PO4 9970   6.372  11.898   9.343  0.0439 -0.7363 -0.1339
  626DPPI   GL1 9971   6.368  11.673   9.058  0.3093 -0.1145 -0.0188
  626DPPI   GL2 9972   6.629  11.496   9.116  0.1966  0.1565 -0.1714
  626DPPI   C1A 9973   6.514  11.894   8.657  0.1034 -0.2358 -0.0066
  626DPPI   C2A 9974   6.876  11.904   8.298 -0.0080  0.1280 -0.2165
  626DPPI   C3A 9975   7.377  11.901   8.131 -0.0328  0.1500  0.3447
  626DPPI   C4A 9976   7.563  12.022   7.750 -0.0012  0.0024  0.0168
  626DPPI   C1B 9977   6.833  11.547   8.814 -0.1244 -0.3890 -0.2102
  626DPPI   C2B 9978   6.953  11.370   8.435  0.1804  0.0411 -0.1801
  626DPPI   C3B 9979   7.186  11.454   8.055 -0.0116 -0.1940  0.3689
  626DPPI   C4B 9980   7.516  11.303   7.845 -0.2912 -0.3559  0.1906
  627DPPI    C1 9981  14.437  14.098   9.225  0.0130  0.0158  0.1900
  627DPPI    C2 9982  14.545  14.347   8.931  0.1292  0.2113  0.3950
  627DPPI    C3 9983  14.771  14.028   9.017  0.1117  0.1715  0.2945
  627DPPI   PO4 9984  14.171  14.203   9.275  0.1872 -0.1183  0.0588
  627DPPI   GL1 9985  13.991  14.408   8.887  0.1472 -0.0596  0.0189
  627DPPI   GL2 9986  13.717  14.485   8.803  0.0556 -0.1710  0.0580
  627DPPI   C1A 9987  14.034  14.206   8.516  0.0492  0.2323  0.1929
  627DPPI   C2A 9988  14.187  14.071   8.164  0.0204  0.2610  0.2630
  627DPPI   C3A 9989  14.114  14.014   7.676  0.0917 -0.0590  0.0963
  627DPPI   C4A 9990  14.197  14.040   7.317  0.0707 -0.1258  0.1964
  627DPPI   C1B 9991  13.619  14.293   8.375 -0.0220  0.0270  0.1455
  627DPPI   C2B 9992  13.735  14.206   7.987 -0.0179 -0.1025  0.1928
  627DPPI   C3B 9993  13.695  14.239   7.572  0.1673 -0.0209  0.0251
  627DPPI   C4B 9994  13.764  14.384   7.135  0.0941  0.2460 -0.3460
  628DPPI    C1 9995  18.971   5.533  10.038  0.0579 -0.4214  0.0643
  628DPPI    C2 9996  19.292   5.468  10.267  0.1488  0.2435  0.1474
  628DPPI    C3 9997  18.927   5.472  10.431  0.1034 -0.3380  0.0826
  628DPPI   PO4 9998  19.123   5.653   9.800 -0.0794 -0.1840  0.1416
  628DPPI   GL1 9999  19.301   5.565   9.406 -0.0159  0.0369  0.2680
  628DPPI   GL210000  19.518   5.305   9.303 -0.0002  0.1385 -0.0752
  628DPPI   C1A10001  19.415   5.917   9.188  0.1514 -0.3798  0.1786
  628DPPI   C2A10002  19.193   5.969   8.777 -0.1619  0.0939  0.0496
  628DPPI   C3A10003  19.181   6.150   8.344 -0.3222 -0.0837 -0.0133
  628DPPI   C4A10004  19.478   6.060   8.198 -0.2709 -0.1761 -0.1706
  628DPPI   C1B10005  19.304   5.513   8.929 -0.0299  0.0279  0.4811
  628DPPI   C2B10006  19.243   5.558   8.425 -0.2766  0.1862 -0.1181
  628DPPI   C3B10007  19.256   5.663   7.982 -0.1652  0.0230 -0.2409
  628DPPI   C4B10008  19.119   6.055   7.777 -0.0174 -0.1338 -0.2008
  629DPPI    C110009   9.767   9.448  10.456  0.2067  0.3743 -0.0688
  629DPPI    C210010   9.549   9.312  10.763  0.2547  0.0546 -0.1721
  629DPPI    C310011   9.914   9.463  10.828  0.2325  0.0624 -0.0639
  629DPPI   PO410012   9.680   9.270  10.232 -0.0134  0.1429  0.0143
  629DPPI   GL110013   9.852   9.189   9.792  0.0030  0.0241 -0.2237
  629DPPI   GL210014   9.540   9.162   9.784  0.0276 -0.1750 -0.0217
  629DPPI   C1A10015   9.990   9.167   9.393  0.1879 -0.0177 -0.2195
  629DPPI   C2A10016   9.896   9.204   8.946  0.2686 -0.2030 -0.3462
  629DPPI   C3A10017   9.571   9.169   8.528 -0.0925  0.0477  0.0244
  629DPPI   C4A10018   9.271   9.174   8.191 -0.1817  0.1661 -0.1131
  629DPPI   C1B10019   9.490   9.375   9.386  0.3566  0.3450  0.0468
  629DPPI   C2B10020   9.422   9.374   8.968  0.3298 -0.0820  0.2764
  629DPPI   C3B10021   9.177   9.507   8.625 -0.1560  0.2754  0.2740
  629DPPI   C4B10022   8.760   9.416   8.379  0.3978 -0.3591 -0.3927
  630DPPI    C110023  15.558  12.931   9.757  0.2859  0.3235 -0.0664
  630DPPI    C210024  15.683  12.687  10.048 -0.1727  0.1984  0.0334
  630DPPI    C310025  15.745  13.081  10.078  0.2337  0.1380  0.0521
  630DPPI   PO410026  15.586  12.835   9.489  0.3984 -0.0032  0.0274
  630DPPI   GL110027  15.614  12.436   9.106 -0.0022 -0.0571  0.1832
  630DPPI   GL210028  15.705  12.718   8.861 -0.5016  0.1833  0.4536
  630DPPI   C1A10029  15.985  12.317   8.692 -0.2378  0.2584  0.0006
  630DPPI   C2A10030  16.058  12.172   8.340  0.1741  0.2272  0.1710
  630DPPI   C3A10031  15.954  11.998   8.026  0.0622 -0.0098 -0.1737
  630DPPI   C4A10032  15.942  11.953   7.521  0.0024 -0.0939 -0.2504
  630DPPI   C1B10033  15.876  12.828   8.402  0.0363 -0.0357  0.2846
  630DPPI   C2B10034  15.824  13.088   8.036  0.0942 -0.1973  0.0123
  630DPPI   C3B10035  15.636  13.405   7.722  0.3693 -0.3111 -0.3871
  630DPPI   C4B10036  15.638  13.354   7.444  0.3526  0.0738 -0.0912
  631DPPI    C110037   2.095   4.093   9.805  0.3188  0.2590  0.3501
  631DPPI    C210038   1.733   4.236   9.898  0.0743 -0.1317  0.0359
  631DPPI    C310039   1.978   4.108  10.187 -0.0241  0.1577  0.2527
  631DPPI   PO410040   2.212   4.329   9.629  0.0721 -0.4265 -0.0601
  631DPPI   GL110041   2.313   4.611   9.241  0.4509 -0.0227  0.0030
  631DPPI   GL210042   2.335   4.972   9.102 -0.1243 -0.6381 -0.3014
  631DPPI   C1A10043   2.389   4.478   8.784 -0.1197 -0.1727  0.3551
  631DPPI   C2A10044   2.535   4.598   8.430 -0.2065 -0.1538 -0.0156
  631DPPI   C3A10045   2.735   4.415   8.086  0.1571  0.1158 -0.1233
  631DPPI   C4A10046   2.488   4.083   7.919 -0.3294 -0.0547 -0.0185
  631DPPI   C1B10047   2.222   4.962   8.718 -0.2238  0.1773 -0.2975
  631DPPI   C2B10048   2.327   5.117   8.371 -0.1815 -0.0385  0.2719
  631DPPI   C3B10049   2.129   5.196   7.935 -0.2529 -0.2334 -0.0188
  631DPPI   C4B10050   2.195   5.507   7.594  0.0616  0.1285 -0.2523
  632DPPI    C110051   0.316  16.074   9.908 -0.1174  0.0829  0.2235
  632DPPI    C210052   0.697  16.191   9.877 -0.1108  0.1071  0.3870
  632DPPI    C310053   0.406  16.417   9.723 -0.0238 -0.1682 -0.2113
  632DPPI   PO410054   0.263  15.835   9.719 -0.2333 -0.0258 -0.2998
  632DPPI   GL110055   0.273  15.785   9.231  0.1595 -0.2159  0.2160
  632DPPI   GL210056   0.447  15.538   9.338  0.5689 -0.3806  0.1210
  632DPPI   C1A10057   0.478  15.932   8.791  0.2194  0.2537 -0.1654
  632DPPI   C2A10058   0.372  15.816   8.486 -0.3208  0.1035 -0.1819
  632DPPI   C3A10059   0.009  15.817   8.082  0.0796  0.2492  0.3440
  632DPPI   C4A10060   0.020  15.642   7.666 -0.0991  0.0896 -0.0212
  632DPPI   C1B10061   0.379  15.425   8.902 -0.2609  0.2198  0.3134
  632DPPI   C2B10062   0.345  15.322   8.444  0.2038 -0.0883  0.0038
  632DPPI   C3B10063   0.408  15.526   8.064  0.1033 -0.1888  0.0445
  632DPPI   C4B10064   0.572  15.521   7.685 -0.0848 -0.1058 -0.0123
  633DPPI    C110065  13.752   8.537  10.424 -0.1214 -0.0384 -0.0481
  633DPPI    C210066  13.903   8.249  10.657 -0.2039 -0.0115  0.0393
  633DPPI    C310067  13.747   8.578  10.822  0.1233  0.2019 -0.0665
  633DPPI   PO410068  13.659   8.438  10.301  0.2094  0.3625 -0.1114
  633DPPI   GL110069  13.594   8.311   9.874 -0.3890 -0.1792  0.0175
  633DPPI   GL210070  13.489   8.581   9.643 -0.0403 -0.1256 -0.3154
  633DPPI   C1A10071  13.547   8.130   9.356 -0.2361  0.1652 -0.0447
  633DPPI   C2A10072  13.838   8.038   9.022  0.2392 -0.4015  0.0180
  633DPPI   C3A10073  13.679   8.061   8.662 -0.2200 -0.0097 -0.0217
  633DPPI   C4A10074  13.521   7.895   8.289 -0.2660 -0.0544  0.1751
  633DPPI   C1B10075  13.644   8.634   9.218 -0.2507  0.0071 -0.1018
  633DPPI   C2B10076  13.717   8.570   8.768  0.1827 -0.0129  0.1234
  633DPPI   C3B10077  13.579   8.367   8.251 -0.2343  0.4294 -0.2156
  633DPPI   C4B10078  13.424   8.292   7.795  0.1135 -0.0939 -0.1900
  634DPPI    C110079  11.179   9.338  10.121  0.1279 -0.1564 -0.0770
  634DPPI    C210080  11.068   9.082  10.408  0.0896 -0.0813 -0.0247
  634DPPI    C310081  11.342   9.363  10.486 -0.2996  0.2757  0.0940
  634DPPI   PO410082  11.229   9.117   9.880  0.2405  0.0123 -0.0863
  634DPPI   GL110083  11.323   8.979   9.372 -0.2415  0.0369 -0.1247
  634DPPI   GL210084  11.046   8.855   9.246  0.2531  0.0689 -0.1471
  634DPPI   C1A10085  11.296   9.109   8.968 -0.1088  0.1159  0.1797
  634DPPI   C2A10086  11.416   9.129   8.546 -0.0865  0.1792  0.2301
  634DPPI   C3A10087  11.162   8.931   8.147 -0.2203  0.0583  0.0221
  634DPPI   C4A10088  11.134   8.865   7.788 -0.2022 -0.2269  0.0738
  634DPPI   C1B10089  10.764   8.935   8.949  0.0495 -0.0779 -0.0914
  634DPPI   C2B10090  10.837   9.157   8.578  0.0349  0.2731 -0.0034
  634DPPI   C3B10091  10.740   9.569   8.270 -0.0264  0.0534  0.0590
  634DPPI   C4B10092  10.554   9.822   7.980  0.2998 -0.1630 -0.1161
  635PYPI    C110093  13.210   4.792   9.797  0.0095 -0.1446 -0.1609
  635PYPI    C210094  13.296   4.588  10.131 -0.4313 -0.1532 -0.0463
  635PYPI    C310095  13.438   4.463   9.778 -0.0264 -0.1885  0.1236
  635PYPI   PO410096  12.876   4.831   9.869  0.1880  0.0506 -0.0767
  635PYPI   GL110097  12.639   5.084   9.482 -0.2110 -0.2807  0.3130
  635PYPI   GL210098  12.985   4.995   9.396 -0.0838 -0.0819  0.1099
  635PYPI   C1A10099  12.621   5.013   9.083 -0.0102 -0.1661 -0.1491
  635PYPI   C2A10100  12.736   5.018   8.644 -0.2412  0.0022 -0.1538
  635PYPI   D3A10101  12.894   5.164   8.308 -0.1330  0.0932  0.2988
  635PYPI   C4A10102  13.217   4.893   8.002  0.1070 -0.0530 -0.0774
  635PYPI   C1B10103  13.432   4.929   9.305  0.1284  0.0481 -0.1430
  635PYPI   C2B10104  13.583   4.554   9.024 -0.0371 -0.4508 -0.3499
  635PYPI   C3B10105  13.355   4.307   8.704  0.0633  0.0389 -0.0037
  635PYPI   C4B10106  13.206   3.990   8.421 -0.0730 -0.0483  0.0727
  636PYPI    C110107  10.175  10.806  10.284  0.2814  0.0782  0.0941
  636PYPI    C210108   9.919  10.958  10.551 -0.0756 -0.1330 -0.1212
  636PYPI    C310109  10.255  11.155  10.463 -0.1211  0.1088  0.2251
  636PYPI   PO410110  10.070  10.729  10.102 -0.0198 -0.0952  0.1459
  636PYPI   GL110111  10.020  10.582   9.644  0.0993 -0.1910 -0.0256
  636PYPI   GL210112   9.829  10.356   9.436 -0.2796 -0.0158 -0.1325
  636PYPI   C1A10113   9.922  10.820   9.317 -0.1457  0.1457  0.0384
  636PYPI   C2A10114   9.652  10.903   9.026 -0.0847 -0.0479 -0.0836
  636PYPI   D3A10115   9.659  11.272   8.782  0.3569 -0.1933 -0.2433
  636PYPI   C4A10116   9.961  11.385   8.477  0.0885  0.2248 -0.0456
  636PYPI   C1B10117   9.695  10.230   9.108  0.2923  0.4264  0.1375
  636PYPI   C2B10118   9.723  10.252   8.710  0.0835 -0.3283 -0.0140
  636PYPI   C3B10119  10.025  10.029   8.457  0.0208 -0.2403  0.0044
  636PYPI   C4B10120  10.037   9.909   7.972 -0.0222  0.2914 -0.4467
  637PYPI    C110121   0.346   3.061   9.773  0.0495 -0.0215  0.0194
  637PYPI    C210122   0.626   3.164  10.040  0.0410 -0.0048  0.0218
  637PYPI    C310123   0.383   2.855  10.115  0.0245  0.0132  0.0429
  637PYPI   PO410124   0.554   3.207   9.550  0.1939  0.3311  0.1188
  637PYPI   GL110125   0.757   3.126   9.210 -0.2682 -0.0362  0.0781
  637PYPI   GL210126   0.654   2.796   9.028 -0.0278  0.0169 -0.1061
  637PYPI   C1A10127   0.868   3.265   8.811  0.0936  0.1676 -0.2497
  637PYPI   C2A10128   0.856   3.325   8.379  0.2471 -0.5701 -0.0294
  637PYPI   D3A10129   0.633   3.008   8.344 -0.1405 -0.1555  0.1870
  637PYPI   C4A10130   0.379   2.943   8.639  0.0844  0.1177  0.0966
  637PYPI   C1B10131   0.739   2.529   8.631 -0.1459  0.1123 -0.2789
  637PYPI   C2B10132   0.652   2.527   8.268 -0.2092  0.2281 -0.3848
  637PYPI   C3B10133   0.507   2.664   7.897  0.0262  0.1100  0.0046
  637PYPI   C4B10134   0.650   3.000   7.641 -0.1988  0.1654 -0.1015
  638PYPI    C110135   3.514   6.075  11.032  0.1663  0.0622 -0.1901
  638PYPI    C210136   3.222   5.828  10.913  0.0614  0.0644  0.0571
  638PYPI    C310137   3.166   6.066  11.229  0.2457  0.2387 -0.0394
  638PYPI   PO410138   3.631   6.162  10.699  0.1732  0.0808 -0.0241
  638PYPI   GL110139   3.476   6.123  10.139 -0.2956 -0.1550 -0.1944
  638PYPI   GL210140   3.161   6.087  10.001 -0.0966 -0.2038  0.1007
  638PYPI   C1A10141   3.600   6.090   9.758 -0.2213 -0.1029 -0.1690
  638PYPI   C2A10142   3.561   6.051   9.298 -0.2543 -0.1590 -0.0859
  638PYPI   D3A10143   3.656   6.250   9.022  0.2809  0.2397  0.0052
  638PYPI   C4A10144   3.825   6.100   8.704 -0.3268  0.0950  0.0558
  638PYPI   C1B10145   3.110   6.237   9.686  0.0859 -0.3776 -0.1942
  638PYPI   C2B10146   2.851   6.012   9.382 -0.1334  0.2270  0.1928
  638PYPI   C3B10147   2.846   5.800   8.996 -0.0047  0.1719 -0.2048
  638PYPI   C4B10148   2.924   5.988   8.565 -0.3034  0.0458 -0.0817
  639PYPI    C110149  13.009   9.465   9.674  0.0358  0.1528  0.0656
  639PYPI    C210150  12.781   9.477  10.002  0.0300 -0.0894  0.0724
  639PYPI    C310151  12.640   9.312   9.666  0.0904  0.0223 -0.0084
  639PYPI   PO410152  13.005   9.706   9.586  0.2591  0.0799  0.2495
  639PYPI   GL110153  12.686   9.668   9.257 -0.0252  0.0379 -0.0893
  639PYPI   GL210154  12.811   9.314   9.209 -0.2880  0.0690  0.0331
  639PYPI   C1A10155  12.664   9.715   8.888  0.0447 -0.1776  0.0400
  639PYPI   C2A10156  12.826  10.046   8.519  0.1696  0.2625 -0.0644
  639PYPI   D3A10157  12.964  10.287   8.193  0.4870  0.0587  0.0698
  639PYPI   C4A10158  12.696  10.115   7.875  0.0569  0.2488 -0.1309
  639PYPI   C1B10159  12.661   9.088   8.895  0.0286 -0.2060 -0.1446
  639PYPI   C2B10160  12.526   9.016   8.358 -0.2042  0.2182  0.3041
  639PYPI   C3B10161  12.211   9.128   7.964 -0.3556  0.0336  0.2046
  639PYPI   C4B10162  12.115   9.156   7.493 -0.2025 -0.1717 -0.0619
  640PYPI    C110163  11.603   7.027  10.373 -0.1825  0.0003  0.3239
  640PYPI    C210164  11.900   6.879  10.149 -0.3431  0.0709  0.0593
  640PYPI    C310165  11.983   7.066  10.493 -0.0607  0.3087 -0.1318
  640PYPI   PO410166  11.467   7.126  10.228 -0.0947 -0.1517 -0.0556
  640PYPI   GL110167  11.715   7.286   9.812  0.0379 -0.0806 -0.0554
  640PYPI   GL210168  11.619   7.572  10.048 -0.0234  0.2074 -0.0868
  640PYPI   C1A10169  11.682   7.107   9.349 -0.0782 -0.1370  0.2470
  640PYPI   C2A10170  11.608   6.711   9.200  0.2694  0.0517  0.0152
  640PYPI   D3A10171  11.737   6.325   8.995 -0.2420  0.0958  0.1077
  640PYPI   C4A10172  12.071   6.140   8.771  0.0075 -0.3935  0.1478
  640PYPI   C1B10173  11.690   7.656   9.566  0.0620  0.0603 -0.0144
  640PYPI   C2B10174  11.637   7.695   9.157  0.0376  0.0060  0.3192
  640PYPI   C3B10175  11.713   7.702   8.714 -0.0305  0.0049  0.2325
  640PYPI   C4B10176  11.884   7.392   8.470  0.0086  0.1959 -0.1906
  641ERGO   ROH10177  11.937  14.069   9.250  0.1973  0.0856  0.0209
  641ERGO    R110178  11.951  13.965   8.987 -0.1603  0.0236  0.0204
  641ERGO    R210179  11.756  14.015   8.797 -0.1865  0.3882  0.1260
  641ERGO    R310180  11.967  14.102   8.650 -0.0896 -0.0387 -0.0002
  641ERGO    R410181  11.760  14.041   8.452 -0.3391  0.3989  0.1250
  641ERGO    R510182  11.964  13.965   8.454 -0.4903 -0.0239 -0.0078
  641ERGO    C110183  11.962  14.137   8.114 -0.3369  0.0043  0.0058
  641ERGO    C210184  11.756  14.158   7.924  0.1073 -0.1437 -0.1587
  642ERGO   ROH10185  15.660  18.281   8.570 -0.1428 -0.0988  0.0124
  642ERGO    R110186  15.721  18.341   8.300 -0.2079  0.0555  0.0336
  642ERGO    R210187  15.883  18.180   8.145 -0.1095  0.2436 -0.0411
  642ERGO    R310188  15.670  18.183   7.976 -0.1149  0.1578 -0.0342
  642ERGO    R410189  15.889  18.071   7.817  0.0055  0.4573 -0.1137
  642ERGO    R510190  15.763  18.241   7.764 -0.1567  0.3854 -0.0011
  642ERGO    C110191  15.692  18.011   7.467  0.0672  0.5008 -0.1494
  642ERGO    C210192  15.757  17.744   7.158 -0.3262 -0.4131 -0.0341
  643ERGO   ROH10193   6.327   5.206   9.765 -0.0820 -0.1026  0.1665
  643ERGO    R110194   6.386   5.069   9.525 -0.1296 -0.1276  0.1679
  643ERGO    R210195   6.197   4.923   9.385 -0.2005 -0.0082  0.1306
  643ERGO    R310196   6.275   5.081   9.179 -0.0732 -0.0410  0.1538
  643ERGO    R410197   6.144   4.853   9.051 -0.0822 -0.0042  0.1110
  643ERGO    R510198   6.344   4.928   9.008 -0.0473 -0.0634  0.1884
  643ERGO    C110199   6.186   4.961   8.663  0.1061 -0.0327  0.1214
  643ERGO    C210200   6.288   4.907   8.364  0.0678 -0.1240  0.0354
  644ERGO   ROH10201  17.343  10.561   8.823 -0.4410 -0.0349  0.1770
  644ERGO    R110202  17.377  10.441   8.569 -0.1783  0.0031  0.1922
  644ERGO    R210203  17.173  10.421   8.384 -0.0295 -0.0998  0.0322
  644ERGO    R310204  17.351  10.545   8.221  0.0279  0.0154  0.1800
  644ERGO    R410205  17.172  10.400   8.039  0.1506  0.0798  0.0185
  644ERGO    R510206  17.390  10.388   8.045  0.1457  0.1171  0.1179
  644ERGO    C110207  17.340  10.504   7.685  0.3094  0.2924  0.1494
  644ERGO    C210208  17.273  10.367   7.331  0.0588 -0.0377 -0.2265
  645ERGO   ROH10209  17.334  12.112   8.563 -0.1287 -0.0034 -0.1006
  645ERGO    R110210  17.485  12.178   8.333 -0.1400  0.0916 -0.0810
  645ERGO    R210211  17.553  11.991   8.141  0.0149  0.1312 -0.0636
  645ERGO    R310212  17.435  12.168   7.972 -0.0812  0.0452 -0.0886
  645ERGO    R410213  17.526  11.949   7.799  0.0234  0.0574 -0.0557
  645ERGO    R510214  17.571  12.161   7.775 -0.0830  0.0786 -0.0929
  645ERGO    C110215  17.399  12.092   7.441 -0.0616 -0.0664 -0.0746
  645ERGO    C210216  17.142  12.052   7.184  0.0216 -0.1135  0.1349
  646ERGO   ROH10217   4.472   8.997   9.370 -0.1736 -0.1585 -0.0424
  646ERGO    R110218   4.475   8.926   9.096 -0.2165 -0.2177 -0.0282
  646ERGO    R210219   4.710   8.897   8.953 -0.2449  0.0186 -0.1294
  646ERGO    R310220   4.607   8.652   8.896  0.0092 -0.1146 -0.0235
  646ERGO    R410221   4.761   8.725   8.657 -0.2036  0.0222 -0.1228
  646ERGO    R510222   4.552   8.663   8.663 -0.1309 -0.2222  0.0035
  646ERGO    C110223   4.694   8.395   8.432  0.0589 -0.1006 -0.0196
  646ERGO    C210224   4.744   8.316   8.145 -0.3042 -0.1624 -0.1270
  647ERGO   ROH10225  16.308  19.196   8.437 -0.3560 -0.0963 -0.1064
  647ERGO    R110226  16.451  19.208   8.193 -0.1583 -0.0793  0.0077
  647ERGO    R210227  16.385  19.053   7.974  0.0274 -0.0772 -0.0539
  647ERGO    R310228  16.376  19.293   7.847  0.1142 -0.0725 -0.0507
  647ERGO    R410229  16.441  19.100   7.636 -0.1253 -0.1166 -0.0849
  647ERGO    R510230  16.552  19.281   7.685  0.0187 -0.1879 -0.1464
  647ERGO    C110231  16.465  19.353   7.320 -0.1328 -0.1353 -0.1001
  647ERGO    C210232  16.328  19.412   7.085  0.1295  0.1042  0.0333
  648ERGO   ROH10233  15.932  17.143   8.583  0.1192 -0.1121  0.0387
  648ERGO    R110234  15.847  17.175   8.315  0.0594 -0.0639  0.0630
  648ERGO    R210235  16.022  17.167   8.102  0.0231  0.0516  0.0270
  648ERGO    R310236  15.851  16.976   8.011  0.0665  0.0226  0.0067
  648ERGO    R410237  15.954  17.105   7.768 -0.1064  0.1966  0.0253
  648ERGO    R510238  15.744  17.077   7.821 -0.0685  0.0746  0.1097
  648ERGO    C110239  15.755  16.890   7.489 -0.1410  0.2541  0.0053
  648ERGO    C210240  15.686  16.866   7.166 -0.1435 -0.2280 -0.1774
  649ERGO   ROH10241   2.504   7.403   9.455 -0.1408  0.1925 -0.0079
  649ERGO    R110242   2.593   7.513   9.210 -0.0682  0.1192 -0.0155
  649ERGO    R210243   2.711   7.359   9.012 -0.0418  0.0515  0.0467
  649ERGO    R310244   2.516   7.468   8.857  0.0063  0.0397 -0.0210
  649ERGO    R410245   2.706   7.353   8.666  0.0887  0.0825  0.0445
  649ERGO    R510246   2.633   7.558   8.668  0.0640  0.0694  0.0325
  649ERGO    C110247   2.521   7.451   8.320  0.2098  0.0895 -0.0202
  649ERGO    C210248   2.630   7.337   7.997 -0.0624  0.1773 -0.0691
  650ERGO   ROH10249   7.623  18.617   9.152 -0.0396 -0.1873 -0.0146
  650ERGO    R110250   7.553  18.727   8.901 -0.0858 -0.1909 -0.0033
  650ERGO    R210251   7.727  18.886   8.755 -0.1768 -0.0544  0.0426
  650ERGO    R310252   7.677  18.704   8.560 -0.0363 -0.0514  0.0027
  650ERGO    R410253   7.713  18.957   8.417  0.1707 -0.0522  0.0264
  650ERGO    R510254   7.543  18.822   8.400  0.1445 -0.0133 -0.1313
  650ERGO    C110255   7.659  18.828   8.037  0.5049 -0.0479 -0.0206
  650ERGO    C210256   7.693  18.934   7.723  0.1623 -0.0622 -0.1299
  651ERGO   ROH10257  10.457  12.831   9.395 -0.0647 -0.2444 -0.1140
  651ERGO    R110258  10.545  12.649   9.197  0.0639 -0.1088 -0.1814
  651ERGO    R210259  10.463  12.665   8.934  0.1863  0.0310 -0.2018
  651ERGO    R310260  10.731  12.668   8.884  0.2091  0.1068 -0.0888
  651ERGO    R410261  10.606  12.626   8.622  0.3134 -0.1166 -0.1275
  651ERGO    R510262  10.761  12.502   8.714  0.3347 -0.0028  0.0244
  651ERGO    C110263  10.941  12.605   8.393  0.4087 -0.1315  0.0219
  651ERGO    C210264  11.053  12.459   7.996  0.3329  0.0171 -0.2251
  652ERGO   ROH10265   9.102   9.800   9.599  0.0435  0.2286 -0.0013
  652ERGO    R110266   9.189   9.932   9.364 -0.1657  0.2260 -0.0823
  652ERGO    R210267   9.373   9.821   9.191  0.0923  0.4484  0.0423
  652ERGO    R310268   9.179   9.869   9.006  0.0284 -0.0682 -0.0394
  652ERGO    R410269   9.430   9.897   8.859  0.0098  0.2537 -0.0184
  652ERGO    R510270   9.269  10.043   8.869 -0.2622 -0.0226 -0.1808
  652ERGO    C110271   9.282   9.987   8.492 -0.0983 -0.3446 -0.1304
  652ERGO    C210272   9.389   9.894   8.202  0.1356  0.1432  0.2245
  653ERGO   ROH10273  17.252  18.884   8.520  0.0962  0.1941  0.0087
  653ERGO    R110274  17.343  18.729   8.302  0.0140  0.1093  0.0341
  653ERGO    R210275  17.174  18.636   8.104 -0.0360  0.1694  0.0459
  653ERGO    R310276  17.351  18.760   7.940  0.0347  0.0493  0.0298
  653ERGO    R410277  17.234  18.547   7.776 -0.1378  0.1446  0.0336
  653ERGO    R510278  17.446  18.583   7.810 -0.1085 -0.0116  0.0086
  653ERGO    C110279  17.435  18.611   7.430 -0.1308  0.0171  0.0114
  653ERGO    C210280  17.521  18.556   7.131  0.3159  0.2074 -0.0187
  654ERGO   ROH10281  18.554   6.270   9.311 -0.1656 -0.2751 -0.1480
  654ERGO    R110282  18.459   6.435   9.102 -0.1592 -0.1820 -0.0804
  654ERGO    R210283  18.615   6.631   8.985 -0.1724 -0.0864  0.0381
  654ERGO    R310284  18.549   6.501   8.756 -0.1098  0.0114 -0.0277
  654ERGO    R410285  18.568   6.782   8.677 -0.2766  0.0472  0.1201
  654ERGO    R510286  18.400   6.649   8.643 -0.1923 -0.0205  0.0581
  654ERGO    C110287  18.480   6.747   8.283 -0.2783  0.2168  0.1059
  654ERGO    C210288  18.477   6.988   7.950  0.2188 -0.2522 -0.2562
  655ERGO   ROH10289   1.399  16.977   8.828 -0.1896 -0.3721  0.0280
  655ERGO    R110290   1.384  16.918   8.551 -0.1550 -0.1396 -0.0251
  655ERGO    R210291   1.449  17.102   8.356  0.0039 -0.0194  0.1417
  655ERGO    R310292   1.616  16.905   8.271 -0.0914 -0.0503  0.0219
  655ERGO    R410293   1.567  17.071   8.033 -0.1124  0.0510  0.0913
  655ERGO    R510294   1.539  16.855   8.049 -0.1831  0.0523  0.0274
  655ERGO    C110295   1.792  16.868   7.764 -0.2696  0.0630 -0.0506
  655ERGO    C210296   1.849  16.931   7.525 -0.0670 -0.3343 -0.1657
  656ERGO   ROH10297   8.478  11.156   9.357 -0.1665  0.1689 -0.0745
  656ERGO    R110298   8.492  11.271   9.099 -0.3552  0.0624 -0.1338
  656ERGO    R210299   8.723  11.266   8.946 -0.3308  0.3945 -0.1125
  656ERGO    R310300   8.559  11.153   8.761 -0.1223  0.0008 -0.0684
  656ERGO    R410301   8.805  11.215   8.615 -0.1676  0.2397 -0.0504
  656ERGO    R510302   8.603  11.276   8.560 -0.2470 -0.0964 -0.1574
  656ERGO    C110303   8.699  11.080   8.247  0.1232 -0.2202  0.0271
  656ERGO    C210304   8.767  10.788   8.006 -0.0835 -0.1812 -0.0448
  657ERGO   ROH10305  13.416   5.874   9.559  0.1229 -0.0861 -0.0331
  657ERGO    R110306  13.353   5.894   9.283  0.0509 -0.1926 -0.0244
  657ERGO    R210307  13.487   6.065   9.112 -0.1317 -0.1090 -0.0822
  657ERGO    R310308  13.527   5.838   8.968  0.0372 -0.1020 -0.0490
  657ERGO    R410309  13.479   6.046   8.767 -0.0558 -0.1511 -0.0822
  657ERGO    R510310  13.374   5.856   8.785  0.0581 -0.2170 -0.0802
  657ERGO    C110311  13.512   5.821   8.431  0.1471 -0.1690 -0.0511
  657ERGO    C210312  13.623   5.929   8.182  0.2653 -0.0208 -0.2303
  658ERGO   ROH10313   1.562  16.077   9.008 -0.1649 -0.1024 -0.0589
  658ERGO    R110314   1.505  15.926   8.776 -0.2011 -0.0969 -0.0552
  658ERGO    R210315   1.304  15.996   8.599 -0.1092  0.0153 -0.1261
  658ERGO    R310316   1.505  15.983   8.417 -0.0600 -0.1418 -0.0609
  658ERGO    R410317   1.263  15.926   8.263 -0.0343 -0.0382 -0.1233
  658ERGO    R510318   1.443  15.804   8.271 -0.1105 -0.1360 -0.0392
  658ERGO    C110319   1.428  15.874   7.896  0.0554 -0.2170 -0.0605
  658ERGO    C210320   1.488  16.026   7.617  0.0190 -0.1998  0.1256
  659ERGO   ROH10321   9.949   0.058   9.460 -0.3151 -0.0785 -0.0819
  659ERGO    R110322   9.826   0.131   9.215 -0.2716 -0.0318 -0.0917
  659ERGO    R210323   9.925   0.332   9.053 -0.2841  0.0559 -0.0037
  659ERGO    R310324   9.922   0.137   8.864 -0.1755  0.1114 -0.0617
  659ERGO    R410325   9.914   0.387   8.712 -0.1215  0.1394  0.0046
  659ERGO    R510326   9.775   0.220   8.694 -0.0942  0.1385 -0.1109
  659ERGO    C110327   9.904   0.235   8.336  0.0751  0.2402 -0.0451
  659ERGO    C210328   9.985   0.174   8.084  0.1547 -0.1356 -0.0834
  660ERGO   ROH10329   0.279   8.697   9.088  0.1491  0.0026 -0.0504
  660ERGO    R110330   0.204   8.765   8.824  0.2411  0.2014 -0.0226
  660ERGO    R210331   0.373   8.898   8.651  0.5706 -0.3153 -0.0851
  660ERGO    R310332   0.320   8.687   8.488 -0.1211 -0.1779 -0.0755
  660ERGO    R410333   0.400   8.905   8.307  0.7257 -0.4047 -0.0790
  660ERGO    R510334   0.217   8.786   8.296  0.2710  0.2092 -0.1257
  660ERGO    C110335   0.365   8.710   7.953  0.1666 -0.3279 -0.0662
  660ERGO    C210336   0.466   8.531   7.653  0.3207 -0.0742 -0.0685
  661ERGO   ROH10337  12.588   6.487   9.612  0.1734 -0.0208  0.1429
  661ERGO    R110338  12.556   6.601   9.355  0.2300  0.0031  0.1462
  661ERGO    R210339  12.665   6.488   9.128  0.0279 -0.1428  0.1189
  661ERGO    R310340  12.409   6.500   9.038  0.0107  0.1569  0.1966
  661ERGO    R410341  12.574   6.528   8.797 -0.0191 -0.3000  0.1119
  661ERGO    R510342  12.416   6.663   8.862  0.1975 -0.0028  0.0500
  661ERGO    C110343  12.281   6.564   8.520 -0.0628 -0.1102  0.1809
  661ERGO    C210344  12.246   6.457   8.269  0.0305  0.3479  0.2972
  662ERGO   ROH10345   5.844   0.186   9.354  0.0389 -0.1954 -0.0709
  662ERGO    R110346   5.825   0.300   9.095  0.1520  0.0707  0.0349
  662ERGO    R210347   6.046   0.381   8.952  0.2436 -0.1072  0.0741
  662ERGO    R310348   5.942   0.218   8.761 -0.0209  0.2100 -0.0613
  662ERGO    R410349   6.159   0.362   8.626  0.3049 -0.1176  0.0955
  662ERGO    R510350   5.951   0.349   8.560  0.2896  0.3253  0.0229
  662ERGO    C110351   6.127   0.199   8.256  0.0923  0.1741 -0.0191
  662ERGO    C210352   6.381   0.203   8.034  0.3443  0.1124  0.0573
  663ERGO   ROH10353   2.759  10.007   5.791 -0.1146 -0.0260  0.0960
  663ERGO    R110354   2.696  10.116   6.044  0.0101  0.0199  0.1065
  663ERGO    R210355   2.885  10.143   6.246  0.1441  0.2001 -0.0460
  663ERGO    R310356   2.803  10.402   6.242 -0.0150  0.1520 -0.0660
  663ERGO    R410357   2.890  10.355   6.518 -0.0485  0.2005 -0.0399
  663ERGO    R510358   2.697  10.434   6.455 -0.0866  0.0837 -0.0870
  663ERGO    C110359   2.817  10.722   6.673 -0.3100  0.1554 -0.0551
  663ERGO    C210360   2.611  10.831   6.920 -0.0986  0.3647  0.2337
  664ERGO   ROH10361  11.682  15.686   9.067 -0.0005  0.0716 -0.0314
  664ERGO    R110362  11.469  15.813   8.930 -0.0486  0.0254 -0.0022
  664ERGO    R210363  11.418  16.084   8.952 -0.0422  0.0376 -0.0774
  664ERGO    R310364  11.434  16.075   8.681 -0.1311 -0.0589 -0.0792
  664ERGO    R410365  11.237  16.284   8.735  0.1975  0.2554 -0.0792
  664ERGO    R510366  11.211  16.112   8.605 -0.0991  0.2602 -0.0259
  664ERGO    C110367  11.148  16.392   8.355  0.2538  0.2914 -0.0819
  664ERGO    C210368  10.997  16.578   8.051  0.0034 -0.0277  0.0456
  665ERGO   ROH10369   1.486  13.452   5.606 -0.2459  0.0000  0.0691
  665ERGO    R110370   1.625  13.361   5.835 -0.2195 -0.0864  0.0195
  665ERGO    R210371   1.796  13.523   5.979 -0.0476 -0.1994 -0.0550
  665ERGO    R310372   1.639  13.450   6.188 -0.0187 -0.0772  0.0103
  665ERGO    R410373   1.900  13.511   6.309  0.0100 -0.0462 -0.0669
  665ERGO    R510374   1.786  13.327   6.332 -0.0070 -0.0220  0.0460
  665ERGO    C110375   1.812  13.436   6.697  0.0707  0.1577 -0.0125
  665ERGO    C210376   1.849  13.370   6.912  0.0690  0.3408  0.2552
  666ERGO   ROH10377   2.291   9.878   9.025 -0.2354 -0.2373  0.1696
  666ERGO    R110378   2.282  10.064   8.813 -0.2117 -0.0965  0.2922
  666ERGO    R210379   2.424  10.029   8.578 -0.1120  0.1071  0.3270
  666ERGO    R310380   2.179  10.062   8.463 -0.0760  0.1106  0.2472
  666ERGO    R410381   2.371  10.143   8.256  0.0156 -0.1873  0.1965
  666ERGO    R510382   2.203  10.261   8.331  0.0520 -0.0260  0.0510
  666ERGO    C110383   2.111  10.241   7.961  0.1237 -0.3555  0.0455
  666ERGO    C210384   2.151  10.363   7.669  0.1991 -0.0050  0.2102
  667ERGO   ROH10385   9.884   7.350   9.545 -0.0818 -0.3943 -0.0313
  667ERGO    R110386   9.686   7.442   9.364 -0.0004 -0.1493 -0.0000
  667ERGO    R210387   9.746   7.525   9.108  0.0813 -0.0601  0.0467
  667ERGO    R310388   9.558   7.341   9.039 -0.0543  0.1170 -0.0632
  667ERGO    R410389   9.638   7.464   8.785  0.0414  0.2024  0.0079
  667ERGO    R510390   9.435   7.445   8.861  0.0257  0.3095 -0.0080
  667ERGO    C110391   9.400   7.255   8.532 -0.1092  0.5216 -0.1178
  667ERGO    C210392   9.250   7.389   8.210  0.0340 -0.3793  0.2300
  668ERGO   ROH10393  15.759   7.557   9.614  0.1910 -0.1459 -0.1083
  668ERGO    R110394  15.770   7.573   9.331  0.2776 -0.1204 -0.1039
  668ERGO    R210395  15.840   7.357   9.173  0.0320 -0.1947 -0.1167
  668ERGO    R310396  15.603   7.411   9.051  0.1272  0.1354 -0.1653
  668ERGO    R410397  15.759   7.267   8.849 -0.1389 -0.3681 -0.0283
  668ERGO    R510398  15.663   7.461   8.825  0.2256 -0.2007 -0.2184
  668ERGO    C110399  15.490   7.265   8.546 -0.1490 -0.1591 -0.0223
  668ERGO    C210400  15.387   7.148   8.316 -0.1056  0.1257  0.0147
  669ERGO   ROH10401   6.407  17.386   9.275 -0.1517  0.0973  0.1087
  669ERGO    R110402   6.489  17.374   9.004  0.0170  0.0241  0.1619
  669ERGO    R210403   6.543  17.135   8.876 -0.1681 -0.0306  0.1839
  669ERGO    R310404   6.362  17.228   8.696  0.0551  0.1903  0.0661
  669ERGO    R410405   6.533  17.049   8.541 -0.2251 -0.2460  0.2392
  669ERGO    R510406   6.486  17.256   8.494  0.1755 -0.1815  0.0806
  669ERGO    C110407   6.357  17.086   8.178 -0.0487 -0.1639  0.1609
  669ERGO    C210408   6.231  17.139   7.826  0.2115 -0.0305  0.0481
  670ERGO   ROH10409  13.208  17.078   8.685  0.2013 -0.1208  0.1181
  670ERGO    R110410  13.227  16.960   8.429  0.1572 -0.0488  0.0800
  670ERGO    R210411  13.008  16.925   8.264  0.1036 -0.1130  0.1539
  670ERGO    R310412  13.162  17.061   8.085 -0.0283  0.0090  0.1328
  670ERGO    R410413  12.993  16.885   7.921  0.0883 -0.1091  0.1549
  670ERGO    R510414  13.211  16.899   7.915  0.0718  0.0579  0.1210
  670ERGO    C110415  13.129  16.989   7.553 -0.0444  0.0078  0.1356
  670ERGO    C210416  13.025  17.034   7.254 -0.0887 -0.0614 -0.0955
  671ERGO   ROH10417  12.324  13.149   9.365 -0.0671 -0.5238  0.0519
  671ERGO    R110418  12.183  12.998   9.171 -0.2116 -0.2285 -0.0794
  671ERGO    R210419  12.057  13.115   8.954  0.0666  0.0612 -0.0962
  671ERGO    R310420  12.208  12.940   8.812 -0.1310 -0.1145 -0.0921
  671ERGO    R410421  12.060  13.091   8.610  0.0668  0.0705 -0.0961
  671ERGO    R510422  12.067  12.874   8.630 -0.1938  0.0605 -0.1054
  671ERGO    C110423  12.204  12.913   8.275 -0.1185 -0.0889 -0.0923
  671ERGO    C210424  12.208  12.825   8.051 -0.0636  0.3762  0.0891
  672ERGO   ROH10425   1.809  14.947   8.953 -0.1735  0.0832  0.0411
  672ERGO    R110426   1.863  14.950   8.675 -0.0819 -0.0201  0.0564
  672ERGO    R210427   1.825  14.728   8.514 -0.2106 -0.0287  0.0898
  672ERGO    R310428   1.673  14.900   8.369 -0.0270  0.0671  0.0094
  672ERGO    R410429   1.751  14.692   8.178 -0.1669 -0.0426  0.0822
  672ERGO    R510430   1.778  14.906   8.154  0.0246 -0.0760  0.0336
  672ERGO    C110431   1.565  14.833   7.846  0.0308  0.0392  0.0024
  672ERGO    C210432   1.328  15.060   7.532  0.1203  0.2263 -0.1024
  673ERGO   ROH10433  14.224   1.185   8.808  0.1443  0.0473  0.0369
  673ERGO    R110434  14.287   1.333   8.575 -0.0876  0.0206 -0.0450
  673ERGO    R210435  14.547   1.392   8.501 -0.1710  0.2632 -0.1487
  673ERGO    R310436  14.472   1.276   8.267 -0.1261  0.0882 -0.0834
  673ERGO    R410437  14.746   1.369   8.220 -0.2843  0.5164 -0.2540
  673ERGO    R510438  14.571   1.414   8.098 -0.4342  0.2163 -0.1722
  673ERGO    C110439  14.793   1.247   7.836 -0.3082  0.4996 -0.2539
  673ERGO    C210440  14.924   1.255   7.539  0.3511  0.1899  0.1503
  674PSPI    C110441  14.724  12.343   5.174  0.2198  0.0809 -0.0845
  674PSPI    C210442  14.493  12.033   5.074  0.0449  0.1840 -0.0052
  674PSPI    C310443  14.629  12.280   4.791 -0.3477  0.4046 -0.0091
  674PSPI   PO410444  14.909  12.250   5.314  0.2355  0.0714 -0.1785
  674PSPI   GL110445  14.773  12.056   5.706 -0.2421 -0.1530 -0.1816
  674PSPI   GL210446  15.098  11.993   5.749  0.2296 -0.0686 -0.3432
  674PSPI   C1A10447  14.657  12.027   6.079  0.2625 -0.0131 -0.2596
  674PSPI   C2A10448  14.453  11.961   6.451  0.0978 -0.2275 -0.1342
  674PSPI   C3A10449  14.368  12.166   6.806 -0.3931 -0.4091 -0.0385
  674PSPI   C4A10450  14.531  12.179   7.204 -0.3178  0.3550  0.0490
  674PSPI   C1B10451  15.071  11.759   6.190  0.0352 -0.0764  0.3697
  674PSPI   C2B10452  14.919  11.850   6.492 -0.0886  0.0023 -0.0955
  674PSPI   C3B10453  14.701  11.713   6.841 -0.1178 -0.0592 -0.0057
  674PSPI   C4B10454  14.737  11.732   7.267  0.1016  0.0587  0.0128
  675PSPI    C110455   5.661  18.837   5.607  0.1288  0.0118 -0.0296
  675PSPI    C210456   5.594  19.098   5.903 -0.1455 -0.2018  0.1007
  675PSPI    C310457   5.325  19.053   5.611 -0.0034 -0.1915 -0.0328
  675PSPI   PO410458   5.897  18.811   5.614  0.3705 -0.0052 -0.2913
  675PSPI   GL110459   6.245  18.947   5.855  0.0984  0.0085 -0.0249
  675PSPI   GL210460   6.327  19.117   6.198 -0.0733  0.1888 -0.3180
  675PSPI   C1A10461   6.194  18.618   6.275 -0.0980 -0.1548  0.0361
  675PSPI   C2A10462   6.407  18.543   6.612 -0.4139 -0.0527 -0.2344
  675PSPI   C3A10463   6.586  18.241   6.928  0.2161  0.1884 -0.1525
  675PSPI   C4A10464   6.410  17.972   7.227  0.3209 -0.0951 -0.0624
  675PSPI   C1B10465   5.924  19.158   6.388 -0.3219 -0.0665  0.1019
  675PSPI   C2B10466   5.826  19.004   6.759 -0.0661 -0.3072 -0.2477
  675PSPI   C3B10467   5.681  18.763   7.012  0.0259  0.0257  0.1299
  675PSPI   C4B10468   5.736  18.297   7.122 -0.3080 -0.1439  0.0281
  676PSPI    C110469  12.248   5.872   5.476  0.0435  0.0046  0.2570
  676PSPI    C210470  12.307   5.535   5.268  0.1162  0.2117 -0.0651
  676PSPI    C310471  11.938   5.686   5.303  0.1165  0.2263 -0.1242
  676PSPI   PO410472  12.593   5.814   5.648 -0.1052  0.1758  0.3880
  676PSPI   GL110473  12.488   5.910   5.981 -0.0150  0.2524 -0.2228
  676PSPI   GL210474  12.776   6.049   6.189 -0.1542  0.0567 -0.1743
  676PSPI   C1A10475  12.276   5.976   6.297  0.3281 -0.1127 -0.0595
  676PSPI   C2A10476  11.972   5.996   6.707 -0.0088  0.2487 -0.1617
  676PSPI   C3A10477  11.624   6.065   6.908  0.1778  0.0459  0.3130
  676PSPI   C4A10478  11.177   6.022   6.941  0.0394 -0.3506 -0.0713
  676PSPI   C1B10479  12.849   6.530   6.152 -0.2155  0.0880 -0.2202
  676PSPI   C2B10480  13.090   6.904   6.216 -0.1140 -0.3067 -0.0124
  676PSPI   C3B10481  12.968   7.326   6.282 -0.0843  0.4083 -0.3559
  676PSPI   C4B10482  12.834   7.663   6.484  0.0011 -0.4702  0.0803
  677PSPI    C110483   8.162   0.690   5.374  0.0049  0.0363  0.4320
  677PSPI    C210484   8.454   0.927   5.236  0.1573 -0.3572  0.0575
  677PSPI    C310485   8.073   0.999   5.135  0.1687 -0.1002  0.1905
  677PSPI   PO410486   8.362   0.535   5.602  0.0999  0.1343  0.4371
  677PSPI   GL110487   8.512   0.426   6.004 -0.0913 -0.1560  0.0416
  677PSPI   GL210488   8.509   0.133   5.853  0.1775  0.1225 -0.0705
  677PSPI   C1A10489   8.565   0.342   6.390  0.2940  0.0110 -0.0734
  677PSPI   C2A10490   8.503   0.246   6.772  0.3174  0.1735 -0.1169
  677PSPI   C3A10491   8.562   0.195   7.172 -0.0948 -0.0469  0.0593
  677PSPI   C4A10492   8.829  -0.010   7.402 -0.3057 -0.1059  0.0927
  677PSPI   C1B10493   8.776  -0.123   6.020  0.1391 -0.0259 -0.0577
  677PSPI   C2B10494   8.910  -0.508   6.206 -0.0990 -0.0325  0.0968
  677PSPI   C3B10495   9.087  -0.699   6.582 -0.2372 -0.1494  0.1801
  677PSPI   C4B10496   9.357  -0.724   6.907  0.1238 -0.0206  0.0375
  678PSPI    C110497   1.787  10.698   5.081 -0.0824  0.2494  0.0761
  678PSPI    C210498   1.543  10.691   4.765  0.2062 -0.2831 -0.1484
  678PSPI    C310499   1.930  10.778   4.717  0.1265  0.3027  0.1683
  678PSPI   PO410500   1.622  10.846   5.275 -0.0264 -0.1142  0.1110
  678PSPI   GL110501   1.542  10.909   5.788 -0.0633 -0.1172  0.2030
  678PSPI   GL210502   1.533  11.243   5.883  0.2124 -0.0838  0.3147
  678PSPI   C1A10503   1.686  10.702   6.082  0.0322  0.1483  0.1364
  678PSPI   C2A10504   1.697  10.475   6.481 -0.2774 -0.1798 -0.1379
  678PSPI   C3A10505   1.998  10.593   6.715  0.2981  0.4269  0.2056
  678PSPI   C4A10506   2.341  10.417   6.917  0.2637 -0.0526  0.2184
  678PSPI   C1B10507   1.227  11.118   6.261 -0.1456  0.0848  0.1895
  678PSPI   C2B10508   1.279  10.746   6.530  0.3447  0.1701  0.2911
  678PSPI   C3B10509   1.254  10.380   6.809 -0.0048 -0.1055 -0.1952
  678PSPI   C4B10510   1.322   9.969   6.879  0.0451 -0.4017 -0.0234
  679PSPI    C110511  18.063   9.323   4.819 -0.1013 -0.1504  0.0158
  679PSPI    C210512  18.448   9.428   4.847 -0.1114 -0.0802 -0.1051
  679PSPI    C310513  18.185   9.675   4.673 -0.2576 -0.0184  0.1975
  679PSPI   PO410514  18.075   9.110   4.850  0.1266 -0.2232 -0.2401
  679PSPI   GL110515  18.175   8.861   5.291  0.4894  0.1434 -0.1225
  679PSPI   GL210516  18.022   9.034   5.466 -0.0951  0.0739 -0.4699
  679PSPI   C1A10517  18.460   8.567   5.479  0.2517 -0.1622  0.1741
  679PSPI   C2A10518  18.590   8.351   5.920 -0.1983 -0.0296 -0.2158
  679PSPI   C3A10519  18.683   8.606   6.256  0.2412  0.0173  0.0180
  679PSPI   C4A10520  18.932   8.731   6.491 -0.0661 -0.1219 -0.2268
  679PSPI   C1B10521  18.205   8.916   5.920 -0.0911  0.1309  0.2848
  679PSPI   C2B10522  18.292   9.033   6.425 -0.2836 -0.0910  0.1415
  679PSPI   C3B10523  18.376   9.132   6.894  0.2032  0.0267 -0.1342
  679PSPI   C4B10524  18.551   9.117   7.340  0.1696 -0.3263 -0.0637
  680PSPI    C110525   5.200   7.785   6.069 -0.1965 -0.2343  0.1614
  680PSPI    C210526   5.426   7.641   5.772 -0.0451  0.0140  0.1530
  680PSPI    C310527   5.029   7.590   5.765 -0.0279 -0.1051 -0.0186
  680PSPI   PO410528   5.234   8.087   6.024 -0.0517  0.0697  0.0334
  680PSPI   GL110529   4.963   8.155   6.324 -0.1430 -0.2705 -0.3841
  680PSPI   GL210530   4.691   8.035   6.351  0.2009 -0.3009  0.2241
  680PSPI   C1A10531   5.204   8.377   6.680  0.2391  0.0601  0.0568
  680PSPI   C2A10532   5.239   8.576   7.126 -0.0177  0.2824 -0.0056
  680PSPI   C3A10533   5.259   8.938   7.528  0.0986 -0.0353  0.0659
  680PSPI   C4A10534   5.461   9.086   8.021 -0.0254  0.2612 -0.1322
  680PSPI   C1B10535   4.427   8.215   6.548  0.0475 -0.1177 -0.0991
  680PSPI   C2B10536   4.312   8.323   7.032 -0.0831  0.0356 -0.1105
  680PSPI   C3B10537   4.111   8.060   7.346 -0.1551  0.0056 -0.0734
  680PSPI   C4B10538   4.414   7.650   7.405  0.2073 -0.1367  0.1378
  681PSPI    C110539  13.922  11.539   4.977 -0.1966  0.2201  0.0815
  681PSPI    C210540  13.825  11.330   4.650 -0.1303  0.0472  0.1711
  681PSPI    C310541  13.540  11.514   4.862 -0.2011 -0.0328  0.1459
  681PSPI   PO410542  14.137  11.637   5.057  0.2168 -0.2732 -0.1624
  681PSPI   GL110543  14.319  11.813   5.521 -0.4032  0.0737  0.1615
  681PSPI   GL210544  14.127  11.538   5.562 -0.1891 -0.0178  0.1630
  681PSPI   C1A10545  14.189  12.028   5.955 -0.0286 -0.1251  0.1617
  681PSPI   C2A10546  13.957  12.388   5.993  0.1751 -0.0894  0.0638
  681PSPI   C3A10547  13.720  12.673   6.114 -0.0608 -0.3783  0.1540
  681PSPI   C4A10548  13.738  12.916   6.474  0.1129 -0.0619 -0.1146
  681PSPI   C1B10549  13.886  11.352   6.013 -0.1159 -0.3566 -0.0024
  681PSPI   C2B10550  13.840  11.398   6.474  0.0620  0.0141 -0.0809
  681PSPI   C3B10551  13.677  11.435   6.882 -0.3205  0.4243  0.2419
  681PSPI   C4B10552  13.595  11.329   7.218  0.0940  0.0493 -0.1188
  682PSPI    C110553   7.405   1.003   5.708  0.1928  0.0148 -0.0564
  682PSPI    C210554   7.210   1.252   5.954  0.1353 -0.2002  0.1189
  682PSPI    C310555   7.258   1.348   5.568 -0.0610 -0.0108  0.1398
  682PSPI   PO410556   7.614   0.983   5.836  0.0655 -0.4322 -0.0199
  682PSPI   GL110557   7.815   1.007   6.215 -0.0409 -0.3093  0.0276
  682PSPI   GL210558   7.763   1.323   6.159  0.1072 -0.0617  0.0784
  682PSPI   C1A10559   7.637   0.910   6.622 -0.0558 -0.0738 -0.1148
  682PSPI   C2A10560   7.567   0.877   7.082 -0.2758 -0.3856  0.3884
  682PSPI   C3A10561   7.755   1.081   7.573 -0.3292  0.0232 -0.1840
  682PSPI   C4A10562   7.806   0.937   7.932  0.0545  0.2614  0.1053
  682PSPI   C1B10563   7.405   1.336   6.398  0.0558 -0.0332 -0.0817
  682PSPI   C2B10564   7.029   1.120   6.407  0.0692 -0.1322  0.0511
  682PSPI   C3B10565   6.565   1.073   6.533  0.2472 -0.1721 -0.0362
  682PSPI   C4B10566   6.182   1.300   6.823 -0.3640  0.0548 -0.1554
  683PSPI    C110567   4.112  19.292   5.060  0.0170  0.1002 -0.0171
  683PSPI    C210568   3.893  19.547   4.844 -0.2964 -0.1698 -0.0246
  683PSPI    C310569   3.879  19.155   4.766 -0.0745 -0.2252  0.2021
  683PSPI   PO410570   4.004  19.323   5.345 -0.2109  0.0520 -0.1523
  683PSPI   GL110571   3.882  19.252   5.751 -0.3831 -0.2013 -0.0196
  683PSPI   GL210572   3.800  19.091   5.923 -0.0911  0.0834  0.1379
  683PSPI   C1A10573   4.006  19.539   6.123  0.3581  0.3092  0.3162
  683PSPI   C2A10574   4.300  19.824   6.382 -0.0002 -0.0357 -0.1094
  683PSPI   C3A10575   4.672  19.722   6.620 -0.0442 -0.0443 -0.2102
  683PSPI   C4A10576   5.108  19.693   6.670 -0.2771 -0.2952 -0.1804
  683PSPI   C1B10577   3.845  19.053   6.233  0.0830  0.1097 -0.0627
  683PSPI   C2B10578   3.801  18.757   6.609  0.1317 -0.1761 -0.0311
  683PSPI   C3B10579   3.908  18.329   6.834 -0.1097  0.1418  0.2447
  683PSPI   C4B10580   4.308  18.380   6.941 -0.1366  0.0367 -0.2567
  684PSPI    C110581   8.845   1.660   5.297  0.2017  0.1489 -0.0567
  684PSPI    C210582   8.628   1.825   5.004  0.1153 -0.1978 -0.1920
  684PSPI    C310583   8.989   1.672   4.924  0.0917 -0.2929 -0.1189
  684PSPI   PO410584   8.886   1.875   5.519  0.0393 -0.4390 -0.1904
  684PSPI   GL110585   9.031   1.972   5.906 -0.4976  0.2444  0.3284
  684PSPI   GL210586   9.068   1.582   6.092  0.2149 -0.1044  0.2926
  684PSPI   C1A10587   8.851   2.154   6.177 -0.0082 -0.5786 -0.1955
  684PSPI   C2A10588   8.817   2.534   6.443  0.0424  0.2536 -0.0858
  684PSPI   C3A10589   8.889   2.634   6.884  0.0468  0.0615 -0.0503
  684PSPI   C4A10590   8.825   2.951   7.230  0.2840  0.2689 -0.1331
  684PSPI   C1B10591   9.395   1.500   6.399  0.0098  0.3289 -0.1377
  684PSPI   C2B10592   9.390   1.595   6.806 -0.0900  0.0152 -0.2359
  684PSPI   C3B10593   9.078   1.725   7.118  0.1766 -0.0473  0.1202
  684PSPI   C4B10594   8.633   1.785   7.007  0.2936 -0.1504 -0.0323
  685PSPI    C110595   3.488  12.831   4.689 -0.0384 -0.1204 -0.0445
  685PSPI    C210596   3.707  12.863   4.356  0.1743 -0.2024  0.0847
  685PSPI    C310597   3.495  12.531   4.424 -0.0688 -0.0853 -0.0851
  685PSPI   PO410598   3.669  12.862   4.907  0.0483  0.4028  0.0526
  685PSPI   GL110599   3.585  12.791   5.388 -0.2207 -0.0503  0.0975
  685PSPI   GL210600   3.187  12.800   5.480  0.1074  0.0029 -0.0604
  685PSPI   C1A10601   3.641  12.462   5.766 -0.4995  0.1024 -0.1736
  685PSPI   C2A10602   3.439  12.529   6.171  0.0919 -0.0047 -0.0885
  685PSPI   C3A10603   3.548  12.830   6.507 -0.2181 -0.0477 -0.0023
  685PSPI   C4A10604   3.523  12.772   6.917 -0.0271  0.0742 -0.2310
  685PSPI   C1B10605   2.996  12.877   5.920  0.0484 -0.3853  0.2265
  685PSPI   C2B10606   3.003  12.797   6.300 -0.2676  0.3059 -0.3769
  685PSPI   C3B10607   3.052  12.822   6.748 -0.4036  0.1675 -0.2987
  685PSPI   C4B10608   3.071  12.957   7.093 -0.1798 -0.2717  0.3942
  686PSPI    C110609  16.041   5.215   5.435  0.0942 -0.4192 -0.0226
  686PSPI    C210610  15.974   5.002   5.103 -0.2285 -0.0808 -0.1830
  686PSPI    C310611  16.009   5.400   5.081  0.2471 -0.0968  0.1278
  686PSPI   PO410612  16.113   5.001   5.624  0.2318  0.0368 -0.0351
  686PSPI   GL110613  16.161   4.879   5.931  0.0198  0.0580  0.2009
  686PSPI   GL210614  15.874   4.769   6.039 -0.0855  0.0080  0.0565
  686PSPI   C1A10615  16.385   4.658   6.252  0.2207 -0.0024 -0.1878
  686PSPI   C2A10616  16.250   4.411   6.678 -0.2164  0.0906 -0.0738
  686PSPI   C3A10617  16.458   4.444   7.089  0.0103 -0.2074  0.4458
  686PSPI   C4A10618  16.731   4.237   7.301 -0.1697 -0.1534  0.0090
  686PSPI   C1B10619  15.901   4.708   6.506 -0.0727 -0.2519  0.0937
  686PSPI   C2B10620  16.052   4.892   6.859  0.0872  0.0192  0.1323
  686PSPI   C3B10621  15.922   4.891   7.341  0.2438  0.2994  0.0162
  686PSPI   C4B10622  15.805   5.283   7.588 -0.2655 -0.0589 -0.0448
  687PSPI    C110623   0.221   5.125   5.352 -0.0475  0.1551 -0.2602
  687PSPI    C210624  -0.044   5.086   5.055 -0.1266  0.2024 -0.1962
  687PSPI    C310625   0.186   5.413   5.077  0.0668  0.0785 -0.3555
  687PSPI   PO410626  -0.011   5.054   5.566 -0.0179 -0.0904  0.0206
  687PSPI   GL110627   0.039   4.898   6.023  0.0400 -0.3475  0.0500
  687PSPI   GL210628   0.319   4.966   5.963 -0.2228 -0.1066  0.2241
  687PSPI   C1A10629  -0.016   4.449   6.174  0.0565 -0.1650  0.1124
  687PSPI   C2A10630   0.104   4.310   6.587 -0.1431 -0.0234  0.0288
  687PSPI   C3A10631   0.339   3.996   6.732 -0.1914  0.0127  0.1924
  687PSPI   C4A10632   0.572   3.836   7.060  0.2330 -0.1839 -0.2355
  687PSPI   C1B10633   0.309   4.862   6.510 -0.2455  0.3191  0.3559
  687PSPI   C2B10634   0.276   4.736   6.930  0.1016  0.1217 -0.1571
  687PSPI   C3B10635   0.353   4.317   7.145 -0.1961  0.0033 -0.0171
  687PSPI   C4B10636   0.698   4.123   7.420  0.4095 -0.2856  0.0536
  688PSPI    C110637   9.985  15.564   4.903  0.0226 -0.2294 -0.2064
  688PSPI    C210638  10.363  15.679   4.844  0.0675 -0.2571  0.0207
  688PSPI    C310639  10.197  15.408   4.601  0.1615 -0.1735 -0.1386
  688PSPI   PO410640   9.911  15.534   5.207  0.0502 -0.3916 -0.1250
  688PSPI   GL110641   9.604  15.704   5.622 -0.1134 -0.0558 -0.1710
  688PSPI   GL210642   9.813  15.652   5.709  0.0804 -0.0022 -0.3906
  688PSPI   C1A10643   9.325  15.588   5.977 -0.1015 -0.2684 -0.1795
  688PSPI   C2A10644   9.050  15.969   6.136 -0.0279 -0.1015  0.1135
  688PSPI   C3A10645   8.895  16.051   6.654  0.1080 -0.0868 -0.0425
  688PSPI   C4A10646   9.213  16.092   7.058  0.0907  0.1715 -0.0307
  688PSPI   C1B10647   9.665  15.160   5.796  0.1009  0.0829  0.3087
  688PSPI   C2B10648   9.567  15.247   6.173 -0.0980  0.0941 -0.4014
  688PSPI   C3B10649   9.319  15.251   6.481  0.1526 -0.2160  0.1009
  688PSPI   C4B10650   9.228  15.359   6.849  0.0840  0.2113  0.2395
  689PSPI    C110651  11.903   7.754   5.391  0.1209 -0.0255  0.0844
  689PSPI    C210652  11.622   8.039   5.388  0.1553  0.0080 -0.0386
  689PSPI    C310653  11.936   8.065   5.142  0.0947 -0.1998 -0.1407
  689PSPI   PO410654  11.863   7.582   5.777  0.1469  0.1088 -0.3207
  689PSPI   GL110655  12.012   7.333   6.135  0.2427  0.2368 -0.4419
  689PSPI   GL210656  11.764   7.435   6.380 -0.0766 -0.1128 -0.0685
  689PSPI   C1A10657  12.365   7.345   6.379  0.2022  0.0323 -0.0399
  689PSPI   C2A10658  12.476   7.340   6.834  0.3324 -0.3598 -0.0640
  689PSPI   C3A10659  12.852   7.339   7.199 -0.0911  0.0520 -0.3086
  689PSPI   C4A10660  13.203   7.381   7.483 -0.1290  0.0624  0.1202
  689PSPI   C1B10661  11.956   7.392   6.770 -0.0341 -0.1326  0.1004
  689PSPI   C2B10662  12.109   7.479   7.137  0.0800 -0.2510  0.2310
  689PSPI   C3B10663  11.975   7.505   7.573 -0.1785  0.0491  0.1296
  689PSPI   C4B10664  12.012   7.380   8.021  0.1958  0.1708 -0.1704
  690PSPI    C110665   2.644   3.085   5.403 -0.1816 -0.0340 -0.0448
  690PSPI    C210666   2.565   3.399   5.169 -0.3164 -0.1451 -0.1498
  690PSPI    C310667   2.662   3.047   5.005  0.3601 -0.0281 -0.0280
  690PSPI   PO410668   2.522   3.152   5.621  0.1211 -0.3139 -0.0695
  690PSPI   GL110669   2.532   3.549   5.987 -0.0040 -0.0297 -0.0048
  690PSPI   GL210670   2.359   3.201   6.084  0.2985 -0.1300 -0.0655
  690PSPI   C1A10671   2.633   3.504   6.438 -0.1490 -0.0936  0.1758
  690PSPI   C2A10672   2.587   3.591   6.855 -0.1693 -0.3084 -0.1867
  690PSPI   C3A10673   2.402   3.705   7.184 -0.3916  0.2706  0.2849
  690PSPI   C4A10674   2.180   3.875   7.437  0.1509  0.1011 -0.2031
  690PSPI   C1B10675   2.511   2.989   6.294  0.0625 -0.0697 -0.1369
  690PSPI   C2B10676   2.649   2.654   6.639  0.0007 -0.1991  0.3932
  690PSPI   C3B10677   2.391   2.542   6.982  0.1285  0.2063  0.0591
  690PSPI   C4B10678   2.148   2.830   7.235 -0.1283 -0.0266 -0.2532
  691PSPI    C110679   6.361   0.970   5.539  0.2067  0.0984 -0.0383
  691PSPI    C210680   6.200   1.324   5.630  0.0181 -0.0425  0.1869
  691PSPI    C310681   6.332   1.254   5.259 -0.2357  0.1529  0.0565
  691PSPI   PO410682   6.373   0.869   5.847 -0.0952 -0.1908 -0.0095
  691PSPI   GL110683   6.318   0.512   5.979 -0.1661  0.2345 -0.4650
  691PSPI   GL210684   6.565   0.278   6.071 -0.0139 -0.0756  0.0124
  691PSPI   C1A10685   6.179   0.510   6.440 -0.1097 -0.0387 -0.0678
  691PSPI   C2A10686   6.243   0.694   6.771 -0.0566  0.2285 -0.0500
  691PSPI   C3A10687   6.423   0.880   7.072 -0.2620  0.0082 -0.1733
  691PSPI   C4A10688   6.726   1.000   7.468 -0.2082  0.3678 -0.5876
  691PSPI   C1B10689   6.510   0.183   6.506  0.0545  0.0235  0.0820
  691PSPI   C2B10690   6.553   0.145   6.957 -0.1033  0.1018 -0.1340
  691PSPI   C3B10691   6.551   0.190   7.464  0.1788 -0.1463  0.0025
  691PSPI   C4B10692   6.230  -0.143   7.698  0.1207 -0.1928 -0.0527
  692PSPI    C110693  14.788  13.574   4.699 -0.2441  0.0140 -0.2991
  692PSPI    C210694  14.934  13.275   4.477  0.4434  0.0137  0.1278
  692PSPI    C310695  14.913  13.645   4.326  0.3172 -0.1011 -0.1410
  692PSPI   PO410696  15.021  13.587   4.951  0.0345  0.2732 -0.2542
  692PSPI   GL110697  14.964  13.609   5.297  0.0693 -0.0082 -0.2743
  692PSPI   GL210698  14.995  13.254   5.381 -0.3825 -0.1636  0.0474
  692PSPI   C1A10699  14.718  13.667   5.632 -0.1999  0.0929 -0.1293
  692PSPI   C2A10700  14.765  13.739   6.091  0.0676  0.4286  0.3461
  692PSPI   C3A10701  14.980  13.775   6.546  0.1860  0.1535 -0.0413
  692PSPI   C4A10702  15.054  13.806   6.895  0.0794 -0.0837 -0.0940
  692PSPI   C1B10703  15.147  13.488   5.780 -0.0200  0.2003  0.1933
  692PSPI   C2B10704  15.116  13.409   6.193  0.1489  0.2279  0.3737
  692PSPI   C3B10705  15.052  13.264   6.601  0.0956 -0.0889 -0.0364
  692PSPI   C4B10706  15.296  13.379   6.957 -0.3988  0.2160 -0.1509
  693POPI    C110707   4.034  16.485   5.137 -0.1857 -0.1213  0.1191
  693POPI    C210708   4.098  16.841   4.967 -0.1810 -0.1301  0.1026
  693POPI    C310709   3.991  16.529   4.741  0.0905 -0.2076  0.0773
  693POPI   PO410710   4.174  16.640   5.395 -0.1810 -0.3977  0.1360
  693POPI   GL110711   3.992  16.511   5.778  0.0318 -0.0593 -0.0104
  693POPI   GL210712   3.807  16.876   5.998 -0.0481 -0.0909 -0.1388
  693POPI   C1A10713   3.883  16.427   6.171 -0.0700 -0.0917 -0.2231
  693POPI   D2A10714   3.474  16.384   6.402  0.1015  0.2174  0.2247
  693POPI   C3A10715   3.532  16.201   6.807 -0.0179 -0.3206 -0.2651
  693POPI   C4A10716   3.623  16.087   7.213 -0.1808 -0.1521  0.1645
  693POPI   C1B10717   3.625  16.861   6.415 -0.3036 -0.1247 -0.3723
  693POPI   C2B10718   3.240  17.030   6.500 -0.0679 -0.3546 -0.0509
  693POPI   C3B10719   3.209  17.440   6.790  0.0360  0.1025  0.1075
  693POPI   C4B10720   2.992  17.542   7.119  0.2119 -0.1330 -0.0513
  694POPI    C110721  13.057  14.515   4.920 -0.0525  0.1722 -0.0244
  694POPI    C210722  13.392  14.733   4.934 -0.0236  0.1253  0.0170
  694POPI    C310723  13.071  14.846   5.144 -0.0299  0.1636 -0.0132
  694POPI   PO410724  13.246  14.184   4.999  0.2715 -0.3746  0.2832
  694POPI   GL110725  13.105  13.868   5.206 -0.2354  0.1136 -0.2822
  694POPI   GL210726  12.845  13.668   5.203 -0.1915  0.1298 -0.2533
  694POPI   C1A10727  13.311  14.081   5.593 -0.1842  0.2168  0.1754
  694POPI   D2A10728  13.509  14.045   5.960 -0.4842  0.1432  0.2637
  694POPI   C3A10729  13.393  13.814   6.336  0.1397  0.0384 -0.1319
  694POPI   C4A10730  13.270  13.805   6.744  0.1379 -0.2365 -0.0470
  694POPI   C1B10731  12.793  13.948   5.631  0.0601  0.0623 -0.1630
  694POPI   C2B10732  12.938  14.161   5.973  0.3806 -0.1344  0.1187
  694POPI   C3B10733  13.033  14.104   6.381  0.1830  0.1344 -0.2254
  694POPI   C4B10734  13.162  14.289   6.779  0.0650 -0.1565 -0.3383
  695POPI    C110735   3.922   7.096   5.393 -0.1274 -0.2231  0.1357
  695POPI    C210736   3.699   7.286   5.122 -0.1067 -0.0203  0.2592
  695POPI    C310737   4.049   7.127   5.015 -0.2671 -0.2634  0.0846
  695POPI   PO410738   3.728   6.954   5.607 -0.3080  0.0024  0.0740
  695POPI   GL110739   3.601   6.856   6.071  0.0762  0.2741 -0.0451
  695POPI   GL210740   3.672   7.150   6.033  0.2781  0.1716  0.0396
  695POPI   C1A10741   3.656   6.950   6.564  0.2932  0.0748 -0.0254
  695POPI   D2A10742   3.487   6.861   6.958  0.2062  0.2941 -0.0208
  695POPI   C3A10743   3.828   6.646   7.233  0.1764  0.2617 -0.1191
  695POPI   C4A10744   4.066   6.259   7.271 -0.2019 -0.0631 -0.2467
  695POPI   C1B10745   3.424   7.294   6.316 -0.2459  0.2233  0.1983
  695POPI   C2B10746   3.377   7.632   6.662 -0.1121 -0.3589  0.2130
  695POPI   C3B10747   3.317   7.977   6.844  0.2920  0.1280  0.1295
  695POPI   C4B10748   3.331   8.385   6.823 -0.2008  0.1774 -0.1232
  696POPI    C110749  15.729  16.499   4.693 -0.0028  0.0008  0.1314
  696POPI    C210750  15.417  16.250   4.670 -0.1597  0.2196 -0.1781
  696POPI    C310751  15.725  16.209   4.418 -0.0873  0.2071 -0.0881
  696POPI   PO410752  15.693  16.524   4.996 -0.1641  0.2490  0.0625
  696POPI   GL110753  15.847  16.808   5.340  0.3265 -0.1249 -0.1229
  696POPI   GL210754  15.500  16.691   5.416  0.3074  0.2712 -0.2607
  696POPI   C1A10755  15.897  17.115   5.715  0.0389 -0.4118  0.3351
  696POPI   D2A10756  16.117  17.303   6.023 -0.0846  0.0416 -0.0251
  696POPI   C3A10757  16.426  17.307   6.292  0.4732 -0.2034 -0.1369
  696POPI   C4A10758  16.814  17.052   6.235  0.2876  0.0949  0.1465
  696POPI   C1B10759  15.669  16.512   5.851 -0.0531 -0.1141 -0.2284
  696POPI   C2B10760  16.006  16.739   6.041 -0.2313 -0.0826 -0.1486
  696POPI   C3B10761  15.895  17.054   6.420 -0.1098  0.1169  0.1113
  696POPI   C4B10762  15.462  16.984   6.728  0.3404 -0.1103  0.1524
  697POPI    C110763  14.033  14.219   4.655  0.0416  0.1852  0.1952
  697POPI    C210764  13.670  14.061   4.708  0.1934 -0.1690  0.2077
  697POPI    C310765  13.805  14.132   4.339 -0.0016  0.2439  0.2100
  697POPI   PO410766  14.183  14.054   4.894  0.3924 -0.1048 -0.0452
  697POPI   GL110767  13.987  13.845   5.255 -0.1969  0.0846  0.0991
  697POPI   GL210768  13.814  13.835   5.442  0.0145  0.4484 -0.0645
  697POPI   C1A10769  14.205  13.550   5.505 -0.0041  0.3290 -0.0853
  697POPI   D2A10770  14.268  13.288   5.849  0.1374  0.1814 -0.0333
  697POPI   C3A10771  14.206  13.381   6.253  0.1573 -0.0627  0.1149
  697POPI   C4A10772  14.505  13.522   6.549 -0.3515 -0.2502  0.1210
  697POPI   C1B10773  13.897  14.166   5.650 -0.0753  0.0323 -0.2133
  697POPI   C2B10774  14.167  14.387   6.011  0.0066  0.2204  0.1607
  697POPI   C3B10775  14.341  14.458   6.388  0.1484 -0.0227 -0.0392
  697POPI   C4B10776  14.157  14.365   6.835 -0.1008 -0.0765 -0.2583
  698POPI    C110777   8.176   4.894   5.638  0.1542 -0.0141  0.0078
  698POPI    C210778   8.474   4.734   5.425  0.1837  0.0590 -0.0059
  698POPI    C310779   8.106   4.757   5.269  0.1328 -0.1855  0.0742
  698POPI   PO410780   8.421   4.834   5.908  0.1130 -0.2912 -0.1678
  698POPI   GL110781   8.659   4.958   6.219 -0.0253  0.0515  0.0919
  698POPI   GL210782   8.887   4.777   6.164 -0.0052  0.1870 -0.1552
  698POPI   C1A10783   8.636   5.010   6.695 -0.1240  0.0074 -0.0915
  698POPI   D2A10784   8.427   5.357   6.974 -0.0632  0.2811 -0.1076
  698POPI   C3A10785   8.016   5.508   7.009  0.4479 -0.2221  0.5086
  698POPI   C4A10786   7.604   5.410   6.872  0.0211 -0.1368  0.4184
  698POPI   C1B10787   9.030   4.802   6.551  0.0994 -0.0015 -0.1323
  698POPI   C2B10788   9.127   4.665   6.915 -0.1611 -0.0394 -0.4731
  698POPI   C3B10789   9.217   4.456   7.293 -0.1488 -0.2133  0.0061
  698POPI   C4B10790   9.242   4.398   7.660  0.0356 -0.2783  0.2194
  699POPI    C110791   8.596   7.990   5.970  0.0781  0.0810 -0.0962
  699POPI    C210792   8.467   7.837   5.624 -0.1121 -0.1668  0.0800
  699POPI    C310793   8.847   7.784   5.738 -0.0559 -0.1064 -0.0769
  699POPI   PO410794   8.480   8.298   5.965  0.0467 -0.1686 -0.2725
  699POPI   GL110795   8.133   8.631   6.046  0.0127 -0.2338  0.0936
  699POPI   GL210796   8.363   8.779   6.304 -0.0473  0.3056  0.0284
  699POPI   C1A10797   7.848   8.613   6.462 -0.0042 -0.0422  0.2429
  699POPI   D2A10798   7.836   8.528   6.859 -0.1836  0.0347  0.0908
  699POPI   C3A10799   8.130   8.783   7.164  0.1582  0.1003  0.0715
  699POPI   C4A10800   8.251   8.771   7.611 -0.0119  0.1221  0.1795
  699POPI   C1B10801   8.471   8.690   6.805  0.2063  0.4041 -0.1065
  699POPI   C2B10802   8.586   8.636   7.255  0.1484  0.2429 -0.2089
  699POPI   C3B10803   8.825   8.334   7.489 -0.0709 -0.0389 -0.2009
  699POPI   C4B10804   8.879   8.074   7.700 -0.0415  0.2693  0.0361
  700POPI    C110805  11.045  15.633   5.254  0.0547  0.0332  0.0537
  700POPI    C210806  11.056  16.031   5.295  0.1377  0.0401 -0.0323
  700POPI    C310807  10.811  15.863   5.026  0.0056  0.0253  0.0959
  700POPI   PO410808  11.035  15.548   5.623  0.1696 -0.0685  0.1288
  700POPI   GL110809  11.061  15.209   6.043  0.4723 -0.3035  0.0382
  700POPI   GL210810  11.020  15.474   6.189 -0.1045 -0.1276 -0.4977
  700POPI   C1A10811  10.964  14.788   6.270 -0.6278 -0.1544  0.1683
  700POPI   D2A10812  11.002  14.510   6.630  0.2209  0.0869 -0.5023
  700POPI   C3A10813  10.654  14.265   6.955 -0.1163 -0.0378  0.0040
  700POPI   C4A10814  10.478  13.858   6.846 -0.2514  0.0507  0.0252
  700POPI   C1B10815  11.044  15.292   6.611 -0.3001  0.2969 -0.0233
  700POPI   C2B10816  11.293  15.044   6.822 -0.1515 -0.2485 -0.0712
  700POPI   C3B10817  11.558  14.853   7.155 -0.4262 -0.0386 -0.1153
  700POPI   C4B10818  11.746  14.493   7.429 -0.1276 -0.3289 -0.0428
  701POPI    C110819   5.533  16.437   5.495  0.0115  0.2657  0.1266
  701POPI    C210820   5.617  16.772   5.697 -0.4979  0.3834  0.1566
  701POPI    C310821   5.455  16.794   5.332  0.0202  0.1671 -0.0961
  701POPI   PO410822   5.382  16.260   5.716 -0.0757 -0.1875 -0.1668
  701POPI   GL110823   5.458  16.405   6.134  0.0115 -0.1553 -0.1577
  701POPI   GL210824   5.738  16.443   6.124  0.1379  0.2426  0.1443
  701POPI   C1A10825   5.337  16.853   6.161 -0.2344 -0.1831  0.2983
  701POPI   D2A10826   5.276  17.269   6.315  0.1133 -0.2695  0.3781
  701POPI   C3A10827   5.097  17.243   6.710  0.3643  0.0172 -0.1405
  701POPI   C4A10828   5.291  17.150   7.150  0.0545  0.1263  0.2505
  701POPI   C1B10829   5.679  16.416   6.541 -0.0438 -0.1740 -0.0386
  701POPI   C2B10830   5.972  16.371   6.864  0.1140 -0.2019 -0.0469
  701POPI   C3B10831   6.306  16.387   7.153  0.0018 -0.0843  0.3702
  701POPI   C4B10832   6.296  16.022   7.450 -0.0426 -0.2601 -0.2956
  702POPI    C110833  14.256   7.107   5.633  0.0775 -0.0197 -0.1881
  702POPI    C210834  13.889   7.028   5.771  0.0996 -0.0950 -0.1722
  702POPI    C310835  14.029   7.402   5.779  0.0841 -0.0917 -0.0306
  702POPI   PO410836  14.374   6.877   5.781 -0.1458 -0.0708 -0.0809
  702POPI   GL110837  14.194   6.577   6.097  0.1015 -0.1359 -0.3601
  702POPI   GL210838  14.158   6.294   6.363  0.0998  0.3770 -0.1505
  702POPI   C1A10839  13.935   6.774   6.453 -0.0683  0.0212 -0.2072
  702POPI   D2A10840  13.824   6.743   6.876 -0.0468 -0.1416  0.3406
  702POPI   C3A10841  13.592   6.410   7.018  0.0737  0.0790  0.2089
  702POPI   C4A10842  13.295   6.316   7.286  0.1175  0.3770  0.1614
  702POPI   C1B10843  13.975   6.339   6.729  0.1050  0.4807 -0.0372
  702POPI   C2B10844  14.061   6.394   7.185  0.4736 -0.0516 -0.0355
  702POPI   C3B10845  14.071   6.730   7.510  0.3559  0.0057  0.3470
  702POPI   C4B10846  13.920   7.046   7.777  0.3170  0.0563 -0.1615
  703POPI    C110847   4.755  13.516   5.146 -0.0325 -0.1030  0.2459
  703POPI    C210848   4.780  13.121   5.091  0.1974 -0.0613  0.0312
  703POPI    C310849   4.901  13.371   4.803 -0.0112  0.1671  0.1380
  703POPI   PO410850   4.784  13.585   5.407  0.0137 -0.0394 -0.0753
  703POPI   GL110851   4.627  13.618   5.875  0.1045 -0.1636  0.2732
  703POPI   GL210852   4.776  13.283   5.818 -0.1747  0.1510  0.0488
  703POPI   C1A10853   4.592  13.544   6.275  0.0396  0.2204  0.1673
  703POPI   D2A10854   4.635  13.418   6.676  0.1667 -0.3730 -0.2794
  703POPI   C3A10855   4.837  13.039   6.736  0.0846  0.0657 -0.1396
  703POPI   C4A10856   4.811  12.545   6.782 -0.1449 -0.0931  0.3309
  703POPI   C1B10857   4.765  13.028   6.203  0.0521  0.0616  0.0059
  703POPI   C2B10858   4.573  12.700   6.324  0.1711 -0.1247  0.4015
  703POPI   C3B10859   4.309  12.374   6.554  0.0860 -0.0124 -0.2661
  703POPI   C4B10860   4.237  11.946   6.756  0.2278 -0.1670 -0.0231
  704POPI    C110861   6.251   9.553   5.623  0.0037 -0.3293  0.0414
  704POPI    C210862   6.240   9.697   5.250 -0.1962 -0.0185  0.1625
  704POPI    C310863   5.999   9.396   5.356 -0.4519  0.1797  0.1532
  704POPI   PO410864   6.543   9.631   5.666 -0.0760 -0.0135 -0.2526
  704POPI   GL110865   6.812   9.805   5.999  0.1266  0.1891  0.1392
  704POPI   GL210866   7.087   9.624   6.051  0.1515  0.1910  0.3557
  704POPI   C1A10867   6.736   9.702   6.389 -0.0518  0.1084 -0.0333
  704POPI   D2A10868   6.784   9.865   6.760 -0.2250  0.2183 -0.1240
  704POPI   C3A10869   6.924  10.254   6.893 -0.1427  0.0922 -0.1626
  704POPI   C4A10870   7.233  10.560   6.720  0.1568 -0.1221 -0.0370
  704POPI   C1B10871   7.242   9.539   6.387  0.3826 -0.3844 -0.1841
  704POPI   C2B10872   7.340   9.794   6.643 -0.3586  0.1595 -0.0805
  704POPI   C3B10873   7.505  10.118   6.891 -0.4192 -0.4051  0.0035
  704POPI   C4B10874   7.439  10.129   7.254 -0.3531 -0.0753  0.1668
  705POPI    C110875  17.203   1.664   4.446 -0.0836 -0.1639 -0.0266
  705POPI    C210876  17.481   1.386   4.522  0.0807 -0.1178 -0.4321
  705POPI    C310877  17.591   1.758   4.423 -0.1360  0.0518 -0.0561
  705POPI   PO410878  16.963   1.675   4.728 -0.2012 -0.0972  0.0153
  705POPI   GL110879  16.697   1.420   5.007 -0.1006  0.1078 -0.1650
  705POPI   GL210880  16.877   1.527   5.259 -0.0058 -0.1383 -0.1880
  705POPI   C1A10881  16.439   1.519   5.434  0.0898  0.0885 -0.4617
  705POPI   D2A10882  16.534   1.653   5.944  0.0873 -0.2452  0.0116
  705POPI   C3A10883  16.897   1.480   6.211  0.0930 -0.1884 -0.0255
  705POPI   C4A10884  17.294   1.510   6.157  0.1818  0.1985 -0.0513
  705POPI   C1B10885  16.842   1.337   5.679 -0.2790  0.0934 -0.0892
  705POPI   C2B10886  17.154   0.978   5.828  0.0518 -0.2257 -0.2415
  705POPI   C3B10887  17.323   0.701   6.062  0.2657  0.1732 -0.1515
  705POPI   C4B10888  17.504   0.641   6.457  0.1186 -0.3910 -0.1103
  706POPI    C110889  17.162   1.924   5.173  0.0647 -0.0084  0.1093
  706POPI    C210890  17.377   1.951   4.837  0.1183 -0.1610  0.1308
  706POPI    C310891  17.562   1.907   5.189  0.0578 -0.1222  0.1676
  706POPI   PO410892  16.920   2.105   5.144  0.1637  0.2696  0.2332
  706POPI   GL110893  16.693   2.045   5.380  0.1158 -0.0997 -0.0016
  706POPI   GL210894  16.774   2.330   5.646  0.1565 -0.0694  0.0387
  706POPI   C1A10895  17.017   1.849   5.729 -0.2147 -0.5608  0.1308
  706POPI   D2A10896  17.474   1.846   5.816  0.0856 -0.2234  0.0889
  706POPI   C3A10897  17.624   2.195   6.116  0.5100  0.0987 -0.0997
  706POPI   C4A10898  17.794   2.467   6.413 -0.2222 -0.0297  0.0072
  706POPI   C1B10899  16.599   2.195   6.059 -0.2334 -0.0753  0.0218
  706POPI   C2B10900  16.583   2.499   6.448 -0.1889 -0.0089  0.2672
  706POPI   C3B10901  16.456   2.902   6.604  0.1236 -0.2461 -0.0607
  706POPI   C4B10902  16.530   3.253   6.687  0.0956  0.1171  0.0479
  707POPI    C110903  16.070  10.382   4.937  0.0903 -0.1980 -0.1875
  707POPI    C210904  16.107  10.746   4.775 -0.1431 -0.0441  0.0953
  707POPI    C310905  15.988  10.438   4.549 -0.0118  0.0672 -0.1297
  707POPI   PO410906  15.910  10.451   5.144 -0.2984 -0.0113 -0.1135
  707POPI   GL110907  15.747  10.422   5.439  0.1755  0.2493  0.4703
  707POPI   GL210908  15.482  10.759   5.320  0.2612 -0.0715 -0.4068
  707POPI   C1A10909  15.609  10.464   5.729 -0.1630 -0.1038 -0.0361
  707POPI   D2A10910  15.488  10.284   6.088 -0.4657 -0.2059 -0.1457
  707POPI   C3A10911  15.138  10.579   6.188 -0.0186 -0.2313  0.0149
  707POPI   C4A10912  15.296  10.958   6.284 -0.1003 -0.1243 -0.3809
  707POPI   C1B10913  15.322  10.865   5.661  0.0805  0.2110  0.2619
  707POPI   C2B10914  14.888  11.008   5.865  0.2856  0.1925 -0.1793
  707POPI   C3B10915  14.695  10.848   6.193  0.0573  0.5041 -0.0415
  707POPI   C4B10916  14.405  10.476   6.345 -0.1874 -0.0639  0.0408
  708POPI    C110917  19.094  11.521   4.762 -0.0140  0.0185  0.0808
  708POPI    C210918  19.293  11.179   4.818  0.0112  0.0232  0.0202
  708POPI    C310919  19.103  11.246   4.472  0.1265  0.1307 -0.0230
  708POPI   PO410920  18.988  11.621   5.011  0.1432  0.0143  0.0200
  708POPI   GL110921  18.928  11.386   5.437 -0.0570  0.0434 -0.2545
  708POPI   GL210922  18.616  11.587   5.440 -0.0573  0.1872  0.0561
  708POPI   C1A10923  19.220  11.107   5.685 -0.0575 -0.2059  0.3489
  708POPI   D2A10924  19.162  10.767   6.051 -0.0178  0.3091  0.2725
  708POPI   C3A10925  19.245  10.870   6.450  0.2183 -0.1106 -0.1135
  708POPI   C4A10926  19.355  10.747   6.816 -0.3512 -0.2942 -0.1097
  708POPI   C1B10927  18.623  11.687   5.908 -0.0646  0.1111 -0.0351
  708POPI   C2B10928  18.536  11.777   6.285 -0.0757 -0.1072 -0.0002
  708POPI   C3B10929  18.671  12.033   6.651 -0.1879 -0.0362 -0.1042
  708POPI   C4B10930  18.766  12.045   7.074  0.2998  0.0187  0.0628
  709POPI    C110931   9.126  14.743   4.749  0.0128  0.0146  0.0836
  709POPI    C210932   8.830  14.839   4.497  0.2293  0.0216 -0.1726
  709POPI    C310933   9.059  14.519   4.424  0.0519 -0.2025  0.2234
  709POPI   PO410934   9.230  14.885   4.948  0.0496  0.3246 -0.2134
  709POPI   GL110935   9.179  14.798   5.397 -0.0404  0.2264 -0.0442
  709POPI   GL210936   9.223  14.910   5.687 -0.0431 -0.2258 -0.2571
  709POPI   C1A10937   9.221  14.442   5.755 -0.1648 -0.2214 -0.0600
  709POPI   D2A10938   9.096  14.348   6.133 -0.0093 -0.1490 -0.1379
  709POPI   C3A10939   9.218  13.931   6.410 -0.1979 -0.0972 -0.2186
  709POPI   C4A10940   9.331  13.613   6.781  0.0160 -0.0838  0.0129
  709POPI   C1B10941   9.395  14.808   6.053 -0.2773 -0.2894 -0.1581
  709POPI   C2B10942   9.255  14.737   6.429 -0.0065 -0.0459  0.2437
  709POPI   C3B10943   9.168  14.615   6.936  0.0382 -0.1456 -0.0130
  709POPI   C4B10944   9.125  14.670   7.375  0.0557  0.3003  0.0713
  710POPI    C110945   0.351  18.029   4.635  0.0588  0.1855 -0.0897
  710POPI    C210946   0.650  17.799   4.767 -0.2163 -0.1257  0.0034
  710POPI    C310947   0.692  18.005   4.427  0.1105 -0.1458  0.0278
  710POPI   PO410948   0.314  18.157   4.891  0.3105 -0.1857 -0.2382
  710POPI   GL110949   0.611  18.080   5.260  0.0663 -0.1658 -0.0609
  710POPI   GL210950   0.843  17.983   5.182  0.1240  0.2425 -0.0807
  710POPI   C1A10951   0.509  18.061   5.721 -0.1915  0.2850  0.1122
  710POPI   D2A10952   0.532  18.171   6.156  0.0637  0.1877  0.1222
  710POPI   C3A10953   0.524  17.771   6.361 -0.0986 -0.0022  0.0485
  710POPI   C4A10954   0.423  17.508   6.704 -0.1092  0.3975  0.0543
  710POPI   C1B10955   1.078  18.134   5.560 -0.1776 -0.1584  0.0581
  710POPI   C2B10956   1.236  18.364   5.877  0.0166  0.1148 -0.3765
  710POPI   C3B10957   1.335  18.511   6.297  0.0081 -0.0929  0.1813
  710POPI   C4B10958   1.633  18.668   6.370  0.0603 -0.4661 -0.0783
  711POPI    C110959  10.421   2.347   5.541 -0.2125 -0.1707 -0.4620
  711POPI    C210960  10.427   2.726   5.411 -0.0001 -0.0482 -0.1086
  711POPI    C310961  10.266   2.439   5.184 -0.1054  0.2420 -0.4077
  711POPI   PO410962  10.691   2.273   5.670  0.0851  0.1354 -0.0036
  711POPI   GL110963  11.066   2.268   5.888  0.0137 -0.0631 -0.0425
  711POPI   GL210964  11.125   1.933   5.970  0.0627 -0.0222 -0.3058
  711POPI   C1A10965  10.786   2.368   6.259 -0.2304 -0.2250  0.0234
  711POPI   D2A10966  10.817   2.181   6.623 -0.0586  0.1501 -0.2906
  711POPI   C3A10967  11.055   2.515   6.888 -0.1810  0.0459  0.1230
  711POPI   C4A10968  10.995   2.493   7.324 -0.1549 -0.1296 -0.3579
  711POPI   C1B10969  11.095   1.814   6.358  0.1395  0.2874  0.0088
  711POPI   C2B10970  11.409   1.555   6.659  0.0245  0.0693 -0.1316
  711POPI   C3B10971  11.584   1.577   7.116 -0.2203 -0.1383  0.3218
  711POPI   C4B10972  12.124   1.716   7.131 -0.0212  0.0549  0.2600
  712POPI    C110973   5.660   7.182   5.812 -0.0798  0.0705 -0.0358
  712POPI    C210974   5.293   7.152   5.655 -0.1284 -0.4022  0.1500
  712POPI    C310975   5.567   6.869   5.581  0.2457  0.0086 -0.0879
  712POPI   PO410976   5.653   7.290   5.947 -0.0344  0.0066  0.2277
  712POPI   GL110977   5.535   7.424   6.281  0.0464 -0.0238 -0.4268
  712POPI   GL210978   5.530   7.240   6.433  0.4261  0.1150 -0.0409
  712POPI   C1A10979   5.632   7.564   6.773  0.1483 -0.2206 -0.1091
  712POPI   D2A10980   5.353   7.608   7.170  0.1567  0.1376  0.0807
  712POPI   C3A10981   4.990   7.425   6.995  0.0108  0.0194  0.0606
  712POPI   C4A10982   4.612   7.313   7.120 -0.0691 -0.2117  0.0861
  712POPI   C1B10983   5.250   7.085   6.645  0.0597  0.1981  0.1551
  712POPI   C2B10984   5.063   6.795   7.040 -0.1919 -0.1767  0.1575
  712POPI   C3B10985   4.759   6.856   7.279  0.0787  0.1103  0.0028
  712POPI   C4B10986   4.484   6.536   7.535  0.0073  0.4703  0.1832
  713POPI    C110987  16.086   5.733   5.515 -0.2807 -0.0035 -0.1127
  713POPI    C210988  16.394   5.966   5.617 -0.3317  0.0650 -0.1149
  713POPI    C310989  16.434   5.702   5.320 -0.3392  0.2200 -0.2552
  713POPI   PO410990  15.936   5.657   5.658 -0.2046 -0.0510 -0.1794
  713POPI   GL110991  15.963   5.362   6.010 -0.1150 -0.0932  0.0297
  713POPI   GL210992  15.715   5.497   6.256  0.0334  0.0181 -0.0981
  713POPI   C1A10993  16.105   5.170   6.361 -0.2272 -0.1496  0.3309
  713POPI   D2A10994  16.276   5.295   6.745 -0.1654 -0.0675  0.1664
  713POPI   C3A10995  16.758   5.313   6.757 -0.0671 -0.2603 -0.1536
  713POPI   C4A10996  17.085   5.017   6.898  0.0939  0.2710 -0.0214
  713POPI   C1B10997  15.826   5.716   6.665  0.0687 -0.1600 -0.2264
  713POPI   C2B10998  15.879   5.959   7.005  0.2146 -0.2526 -0.4162
  713POPI   C3B10999  15.930   6.297   7.270  0.0183 -0.1932 -0.1938
  713POPI   C4B11000  15.934   6.640   7.544 -0.2332  0.1323 -0.2165
  714POPI    C111001  12.894  18.879   4.658  0.2715 -0.0448  0.1347
  714POPI    C211002  13.088  18.602   4.445 -0.0480  0.0235 -0.2577
  714POPI    C311003  12.698  18.664   4.383 -0.0885  0.2286  0.1704
  714POPI   PO411004  12.944  18.905   4.932 -0.3476  0.2608 -0.1149
  714POPI   GL111005  12.876  19.065   5.338  0.1237 -0.3070 -0.2396
  714POPI   GL211006  12.814  19.426   5.362  0.0734  0.2380  0.1085
  714POPI   C1A11007  12.930  18.798   5.693  0.0764  0.2096  0.0132
  714POPI   D2A11008  13.176  18.475   5.854  0.1503  0.1183 -0.2634
  714POPI   C3A11009  13.443  18.541   6.161 -0.2280  0.0785 -0.0408
  714POPI   C4A11010  13.720  18.198   6.580 -0.2431 -0.0291  0.2174
  714POPI   C1B11011  12.803  19.247   5.844  0.3027  0.2251  0.3067
  714POPI   C2B11012  12.673  19.268   6.205  0.2413 -0.1998  0.1838
  714POPI   C3B11013  12.437  19.051   6.498 -0.3761 -0.2474  0.1046
  714POPI   C4B11014  12.602  18.692   6.773  0.1434 -0.4209 -0.0437
  715POPI    C111015   7.262  15.669   5.064 -0.0613  0.1458  0.1224
  715POPI    C211016   7.323  16.065   5.071 -0.2571  0.1770  0.1157
  715POPI    C311017   7.354  15.864   4.727  0.1653  0.1322  0.1749
  715POPI   PO411018   7.111  15.639   5.250  0.2010 -0.1052 -0.1018
  715POPI   GL111019   6.993  15.373   5.663 -0.1096  0.0672  0.0740
  715POPI   GL211020   7.305  15.515   5.707  0.3133  0.0724  0.0851
  715POPI   C1A11021   6.831  15.201   6.088 -0.1339 -0.1812 -0.2141
  715POPI   D2A11022   6.968  15.149   6.531 -0.3126  0.0568  0.1250
  715POPI   C3A11023   6.870  15.341   6.978 -0.3881 -0.0489 -0.1691
  715POPI   C4A11024   6.555  15.607   7.047  0.1436 -0.1464  0.0557
  715POPI   C1B11025   7.583  15.550   5.973 -0.1324  0.1362  0.1139
  715POPI   C2B11026   7.607  15.666   6.441 -0.4934 -0.0898 -0.0292
  715POPI   C3B11027   7.390  15.985   6.628  0.1415 -0.3128  0.0958
  715POPI   C4B11028   7.341  16.394   6.824 -0.5075  0.3807 -0.4607
  716POPI    C111029  17.253   9.121   5.210  0.0206  0.0513  0.0073
  716POPI    C211030  17.529   9.074   4.924 -0.1579  0.0197 -0.1614
  716POPI    C311031  17.596   8.930   5.291  0.1860  0.2929 -0.1116
  716POPI   PO411032  17.188   9.330   5.211  0.2156 -0.2218 -0.3966
  716POPI   GL111033  17.079   9.544   5.581 -0.0760  0.1322  0.3402
  716POPI   GL211034  16.815   9.344   5.624 -0.4607  0.0983 -0.3105
  716POPI   C1A11035  17.205   9.279   5.978  0.1666  0.2813 -0.1103
  716POPI   D2A11036  17.391   9.206   6.416 -0.0066  0.2461 -0.1210
  716POPI   C3A11037  17.311   8.887   6.618  0.0969  0.3865  0.0399
  716POPI   C4A11038  16.903   8.708   6.672  0.0781 -0.2118 -0.0494
  716POPI   C1B11039  16.709   9.469   5.992 -0.3549  0.0832 -0.2085
  716POPI   C2B11040  16.691   9.704   6.414  0.2693 -0.1189 -0.1357
  716POPI   C3B11041  16.842  10.023   6.666  0.0157  0.1251  0.1264
  716POPI   C4B11042  17.087  10.083   6.917 -0.0665  0.2147 -0.4993
  717POPI    C111043   1.553  17.844   4.772 -0.3193 -0.2181  0.1122
  717POPI    C211044   1.157  17.898   4.782 -0.3371 -0.3036 -0.0905
  717POPI    C311045   1.338  17.809   4.436 -0.1044  0.0067 -0.0531
  717POPI   PO411046   1.627  17.633   4.951  0.3461  0.0707 -0.1549
  717POPI   GL111047   1.695  17.383   5.320  0.1381 -0.1104  0.5122
  717POPI   GL211048   1.759  17.069   5.456 -0.2186  0.0448 -0.0742
  717POPI   C1A11049   1.387  17.459   5.634 -0.0398 -0.0426 -0.1141
  717POPI   D2A11050   0.925  17.652   5.700  0.2829 -0.0833 -0.2008
  717POPI   C3A11051   0.976  17.950   6.127  0.0374 -0.1704 -0.1935
  717POPI   C4A11052   0.988  18.209   6.579  0.0060 -0.1037 -0.0275
  717POPI   C1B11053   1.522  17.021   5.816 -0.3533 -0.2301  0.1218
  717POPI   C2B11054   1.290  17.151   6.094 -0.2197  0.1083  0.3383
  717POPI   C3B11055   1.224  17.118   6.552  0.2043  0.0429 -0.3290
  717POPI   C4B11056   0.988  17.173   7.058 -0.3647 -0.1967  0.1136
  718POPI    C111057  15.674   8.636   5.194  0.1124 -0.1047  0.0495
  718POPI    C211058  15.893   8.640   4.859  0.0671 -0.2103  0.0181
  718POPI    C311059  15.528   8.805   4.862  0.1561 -0.0119  0.0774
  718POPI   PO411060  15.799   8.757   5.362  0.1976 -0.0185  0.2245
  718POPI   GL111061  15.923   9.062   5.618 -0.0757 -0.1002  0.2425
  718POPI   GL211062  15.725   8.874   5.863 -0.2513 -0.1480 -0.2040
  718POPI   C1A11063  16.241   9.186   5.826 -0.0551 -0.0676  0.4847
  718POPI   D2A11064  16.206   9.376   6.217 -0.4312 -0.2492 -0.0371
  718POPI   C3A11065  16.383   9.356   6.704  0.0974 -0.3809 -0.3936
  718POPI   C4A11066  16.654   9.715   6.942  0.0602 -0.1471  0.2009
  718POPI   C1B11067  16.085   8.861   6.160 -0.4406  0.0220  0.1467
  718POPI   C2B11068  16.284   8.902   6.603  0.1688 -0.0644 -0.1630
  718POPI   C3B11069  16.462   8.979   7.016 -0.2260 -0.1203 -0.1318
  718POPI   C4B11070  16.669   9.296   7.169 -0.1638  0.0483  0.0835
  719POPI    C111071   8.275   4.239   5.279 -0.1136 -0.1777 -0.2385
  719POPI    C211072   8.669   4.306   5.289 -0.0967 -0.3067  0.1143
  719POPI    C311073   8.455   4.420   4.971  0.1988 -0.0995 -0.0151
  719POPI   PO411074   8.185   4.303   5.526  0.2525 -0.1539  0.1329
  719POPI   GL111075   8.262   4.019   6.001 -0.4000  0.4179  0.2110
  719POPI   GL211076   8.029   3.736   6.214  0.0925  0.0815 -0.0744
  719POPI   C1A11077   8.581   3.856   6.347  0.0648  0.1797  0.3116
  719POPI   D2A11078   8.619   3.701   6.697 -0.1329 -0.0978 -0.0760
  719POPI   C3A11079   8.963   3.630   6.927 -0.3304 -0.1919 -0.0073
  719POPI   C4A11080   9.023   3.480   7.399  0.0334  0.1303  0.0117
  719POPI   C1B11081   8.194   3.920   6.644 -0.0913  0.0639  0.1253
  719POPI   C2B11082   8.147   4.105   6.974  0.3532  0.2906 -0.4191
  719POPI   C3B11083   8.270   4.299   7.284  0.2575  0.0663 -0.0698
  719POPI   C4B11084   8.308   4.405   7.749  0.0684  0.0415 -0.0481
  720POPI    C111085   6.155  16.950   5.126 -0.1182 -0.1599 -0.0522
  720POPI    C211086   5.943  16.647   5.280 -0.2424 -0.2952 -0.4776
  720POPI    C311087   5.796  16.861   4.975 -0.0689  0.0688 -0.3127
  720POPI   PO411088   6.238  17.155   5.382  0.0397  0.0976 -0.0963
  720POPI   GL111089   6.441  17.255   5.787  0.1285 -0.0588 -0.1967
  720POPI   GL211090   6.491  17.344   6.126 -0.0171  0.3096  0.0021
  720POPI   C1A11091   6.581  16.887   5.920 -0.1153  0.0049 -0.1137
  720POPI   D2A11092   6.818  16.612   6.181  0.0612  0.0078  0.3822
  720POPI   C3A11093   6.739  16.186   6.222 -0.0596  0.1562  0.1101
  720POPI   C4A11094   6.542  15.736   6.031  0.3270  0.0470 -0.0812
  720POPI   C1B11095   6.580  17.021   6.390 -0.0790 -0.2080  0.1995
  720POPI   C2B11096   6.572  17.014   6.737  0.1219 -0.1406 -0.1703
  720POPI   C3B11097   6.620  16.773   7.094  0.1232 -0.0362  0.3154
  720POPI   C4B11098   6.728  16.921   7.477  0.1606 -0.1892  0.0328
  721POPI    C111099   2.742  16.949   5.271  0.0427 -0.0389 -0.0019
  721POPI    C211100   2.903  17.045   4.917  0.0603 -0.0655 -0.0013
  721POPI    C311101   3.132  17.037   5.245  0.0862 -0.2332 -0.0227
  721POPI   PO411102   2.620  16.685   5.256 -0.1832 -0.1734 -0.0674
  721POPI   GL111103   2.620  16.528   5.682  0.0539  0.1880 -0.1712
  721POPI   GL211104   3.024  16.609   5.575 -0.2544  0.0295 -0.2728
  721POPI   C1A11105   2.572  16.468   6.138  0.1318  0.3225  0.0910
  721POPI   D2A11106   2.289  16.221   6.425 -0.0202 -0.2193  0.1742
  721POPI   C3A11107   1.871  16.407   6.519 -0.0147  0.0611  0.0795
  721POPI   C4A11108   1.404  16.573   6.677  0.1470  0.2127  0.1685
  721POPI   C1B11109   3.024  16.306   5.942 -0.3885  0.0623 -0.1986
  721POPI   C2B11110   3.227  15.956   6.167 -0.3239 -0.1887  0.3417
  721POPI   C3B11111   3.737  15.954   6.428 -0.1661  0.2398  0.1128
  721POPI   C4B11112   3.954  15.837   6.811 -0.1854 -0.0913 -0.1157
  722POPI    C111113   6.934  10.972   5.448 -0.0000 -0.3784  0.0233
  722POPI    C211114   7.244  11.136   5.256 -0.0974 -0.0869  0.1090
  722POPI    C311115   7.003  10.879   5.066 -0.1331  0.1189 -0.1296
  722POPI   PO411116   6.834  11.322   5.607  0.0786  0.0159  0.3564
  722POPI   GL111117   6.679  11.457   5.966  0.0987  0.3367  0.1940
  722POPI   GL211118   6.546  11.667   6.177  0.4020  0.2018 -0.2378
  722POPI   C1A11119   6.602  11.075   6.307  0.0539 -0.0682 -0.2445
  722POPI   D2A11120   6.825  10.734   6.507  0.3652  0.0995 -0.0699
  722POPI   C3A11121   6.581  10.640   6.857  0.3230  0.4177  0.1351
  722POPI   C4A11122   6.790  10.491   7.293  0.3379 -0.0403  0.3742
  722POPI   C1B11123   6.332  11.451   6.533 -0.2467  0.0102  0.2076
  722POPI   C2B11124   5.890  11.404   6.788  0.0926  0.3078  0.1307
  722POPI   C3B11125   5.584  11.712   6.951  0.2522 -0.1271 -0.0580
  722POPI   C4B11126   5.349  12.047   6.902 -0.0858 -0.1891  0.0368
  723POPI    C111127  18.317  13.086   5.029 -0.4213 -0.2665 -0.3919
  723POPI    C211128  18.053  13.151   5.322  0.0302 -0.2220  0.0197
  723POPI    C311129  18.132  13.439   5.056 -0.0173 -0.0818  0.1560
  723POPI   PO411130  18.415  12.742   5.160 -0.1525 -0.2253 -0.0688
  723POPI   GL111131  18.521  12.527   5.605 -0.3321  0.2808  0.0123
  723POPI   GL211132  18.346  12.683   5.677 -0.0508  0.0130 -0.0591
  723POPI   C1A11133  18.648  12.444   5.982  0.0086 -0.3433 -0.1029
  723POPI   D2A11134  18.881  12.560   6.333 -0.1826 -0.2977 -0.1689
  723POPI   C3A11135  19.109  12.866   6.315 -0.3044 -0.1743 -0.1052
  723POPI   C4A11136  19.212  13.164   5.943 -0.3340  0.1520 -0.2659
  723POPI   C1B11137  18.093  12.351   5.896 -0.5251 -0.3059 -0.2423
  723POPI   C2B11138  18.072  12.013   6.148  0.1911 -0.1976 -0.3703
  723POPI   C3B11139  17.963  11.613   6.294 -0.1540  0.1384 -0.0565
  723POPI   C4B11140  17.732  11.439   6.723  0.0039 -0.3308  0.0816
  724POPI    C111141   2.067   3.331   5.172  0.0533 -0.2856 -0.3591
  724POPI    C211142   1.990   3.723   5.172  0.2980 -0.2344 -0.0751
  724POPI    C311143   2.114   3.544   4.837 -0.0131 -0.1122 -0.2594
  724POPI   PO411144   1.774   3.262   5.353 -0.0386 -0.0088 -0.1494
  724POPI   GL111145   1.491   3.363   5.674  0.0709 -0.0419 -0.0886
  724POPI   GL211146   1.366   3.126   5.786  0.2608 -0.3104 -0.0124
  724POPI   C1A11147   1.490   3.614   6.097  0.4820  0.3974  0.0462
  724POPI   D2A11148   1.841   3.665   6.439 -0.2466 -0.1197 -0.2209
  724POPI   C3A11149   2.196   3.434   6.543  0.3372  0.0018  0.0266
  724POPI   C4A11150   2.443   3.153   6.976  0.1124 -0.1685  0.1005
  724POPI   C1B11151   1.220   2.992   6.172 -0.0270  0.3005 -0.1125
  724POPI   C2B11152   1.392   3.288   6.547 -0.1551 -0.1202  0.0174
  724POPI   C3B11153   1.114   3.670   6.602  0.1846  0.1498  0.2066
  724POPI   C4B11154   0.756   3.754   6.565  0.0718  0.1880  0.2270
  725POPI    C111155   1.658   1.206   5.261  0.2057  0.0223 -0.4212
  725POPI    C211156   1.976   1.053   5.450  0.0629  0.1280 -0.0889
  725POPI    C311157   1.699   0.810   5.295  0.1315  0.0410 -0.0756
  725POPI   PO411158   1.738   1.553   5.280  0.3585 -0.0997  0.3528
  725POPI   GL111159   1.573   1.908   5.536 -0.0151 -0.0960  0.1272
  725POPI   GL211160   1.436   1.746   5.758  0.0295  0.1278 -0.2759
  725POPI   C1A11161   1.535   2.234   5.774  0.0383 -0.0950  0.1208
  725POPI   D2A11162   1.732   2.457   6.050  0.4434 -0.3808  0.1608
  725POPI   C3A11163   1.767   2.856   5.980  0.1777  0.3740  0.1979
  725POPI   C4A11164   1.832   3.154   6.278 -0.3241 -0.0771  0.3088
  725POPI   C1B11165   1.297   1.585   6.066  0.0640 -0.1070 -0.0425
  725POPI   C2B11166   1.222   1.509   6.503  0.0802  0.0711  0.1135
  725POPI   C3B11167   1.213   1.600   6.989 -0.4033 -0.1944  0.2386
  725POPI   C4B11168   1.536   1.493   7.333 -0.0329  0.0991 -0.3961
  726POPI    C111169  14.818   6.431   5.343 -0.1142 -0.1976  0.1820
  726POPI    C211170  14.429   6.512   5.292 -0.1262 -0.1638  0.3222
  726POPI    C311171  14.611   6.247   5.054 -0.1163  0.1777 -0.0623
  726POPI   PO411172  14.886   6.389   5.656 -0.0531  0.2415  0.1646
  726POPI   GL111173  15.114   6.603   5.894 -0.0134  0.1873  0.0917
  726POPI   GL211174  14.846   6.768   6.013 -0.0083  0.2433 -0.1876
  726POPI   C1A11175  15.101   6.470   6.280 -0.1298 -0.1594 -0.0518
  726POPI   D2A11176  15.094   6.435   6.759 -0.0285 -0.0341 -0.3247
  726POPI   C3A11177  14.906   6.699   6.991 -0.2308 -0.0650 -0.0775
  726POPI   C4A11178  14.569   6.626   7.292 -0.1897 -0.1060  0.0530
  726POPI   C1B11179  14.644   7.219   6.330 -0.1989  0.2581  0.0511
  726POPI   C2B11180  14.443   7.347   6.682 -0.7288 -0.1535 -0.4391
  726POPI   C3B11181  14.311   7.599   7.042  0.0869  0.0512  0.1640
  726POPI   C4B11182  14.215   7.327   7.418  0.1168  0.3212  0.0182
  727POPI    C111183   8.085  14.864   5.198 -0.5165  0.0183  0.1713
  727POPI    C211184   7.949  14.518   5.051 -0.2485 -0.0661  0.1170
  727POPI    C311185   8.302  14.531   5.239  0.0309  0.2824 -0.4045
  727POPI   PO411186   7.936  15.037   5.357  0.0291 -0.1444 -0.2668
  727POPI   GL111187   7.870  14.976   5.814  0.2793 -0.1210 -0.1157
  727POPI   GL211188   7.769  14.685   6.040  0.3126 -0.3562  0.1507
  727POPI   C1A11189   7.883  15.204   6.229 -0.0684  0.0483 -0.1181
  727POPI   D2A11190   7.873  15.336   6.637  0.0346 -0.0271 -0.0171
  727POPI   C3A11191   7.792  15.703   6.897 -0.1307 -0.0395  0.2363
  727POPI   C4A11192   7.640  16.067   7.120 -0.0875  0.0004  0.0216
  727POPI   C1B11193   7.585  14.748   6.509  0.0516 -0.0307  0.0909
  727POPI   C2B11194   7.253  14.656   6.824 -0.1945  0.1279  0.1786
  727POPI   C3B11195   6.910  14.732   7.137 -0.2125 -0.0315 -0.0761
  727POPI   C4B11196   6.947  14.840   7.572  0.0128 -0.0816 -0.0937
  728POPI    C111197  12.711   7.997   5.517 -0.0062  0.1087 -0.0496
  728POPI    C211198  12.823   8.099   5.147  0.1209  0.0380 -0.0316
  728POPI    C311199  12.443   7.998   5.221  0.0488  0.2529 -0.0997
  728POPI   PO411200  12.819   8.112   5.660  0.2068 -0.1160 -0.3079
  728POPI   GL111201  12.913   8.310   5.939 -0.0729  0.2798 -0.1445
  728POPI   GL211202  13.214   8.484   5.919  0.3254 -0.2477  0.0338
  728POPI   C1A11203  12.997   8.138   6.319  0.1373  0.1208 -0.1120
  728POPI   D2A11204  12.912   8.137   6.723 -0.2035 -0.1075 -0.0149
  728POPI   C3A11205  13.010   7.743   6.941 -0.0784 -0.1982  0.0464
  728POPI   C4A11206  13.339   7.405   7.006 -0.2056 -0.0954  0.1854
  728POPI   C1B11207  12.991   8.628   6.410  0.0709  0.0383 -0.1003
  728POPI   C2B11208  13.266   8.629   6.720  0.0354 -0.0720 -0.0435
  728POPI   C3B11209  13.141   8.619   7.166  0.1157 -0.1665 -0.0262
  728POPI   C4B11210  12.975   8.593   7.552  0.3232 -0.2236  0.2246
  729POPI    C111211  12.042  16.402   4.972 -0.2030  0.2389  0.0915
  729POPI    C211212  11.775  16.605   5.191 -0.2210  0.2644  0.0460
  729POPI    C311213  11.684  16.493   4.818 -0.2291  0.1304  0.0877
  729POPI   PO411214  12.269  16.600   5.057  0.1414 -0.1180  0.0675
  729POPI   GL111215  12.215  16.803   5.497 -0.0052 -0.2754  0.0818
  729POPI   GL211216  11.903  16.834   5.642 -0.0075  0.1732  0.2275
  729POPI   C1A11217  12.538  16.672   5.829  0.0947  0.1186 -0.2118
  729POPI   D2A11218  12.724  17.054   5.971  0.1173  0.2537  0.1545
  729POPI   C3A11219  13.032  17.214   5.925  0.0443 -0.1388  0.1022
  729POPI   C4A11220  12.978  17.696   5.832 -0.2503 -0.0285  0.0572
  729POPI   C1B11221  11.704  16.929   6.018 -0.1959  0.1059 -0.1252
  729POPI   C2B11222  11.496  16.951   6.414 -0.1774 -0.1065  0.0901
  729POPI   C3B11223  11.370  17.033   6.882 -0.1174  0.1295 -0.0969
  729POPI   C4B11224  11.473  16.917   7.293  0.0239  0.4766  0.1693
  730POPI    C111225   2.919   4.642   5.643 -0.1735  0.1746 -0.0787
  730POPI    C211226   2.936   4.436   5.300 -0.2369  0.0741 -0.0220
  730POPI    C311227   3.118   4.792   5.329  0.4250 -0.2558  0.0767
  730POPI   PO411228   3.136   4.509   5.831 -0.0161 -0.0436  0.1330
  730POPI   GL111229   3.292   4.808   6.231 -0.1921  0.0640  0.0691
  730POPI   GL211230   3.505   5.058   6.117 -0.1681 -0.0388 -0.0834
  730POPI   C1A11231   3.369   4.759   6.680 -0.0978 -0.2989 -0.4144
  730POPI   D2A11232   3.501   4.812   7.072  0.0146 -0.2910  0.1081
  730POPI   C3A11233   3.234   4.734   7.359  0.0503 -0.0332  0.0753
  730POPI   C4A11234   2.902   4.679   7.659  0.1498  0.0582 -0.1006
  730POPI   C1B11235   3.093   5.317   6.186 -0.0926 -0.5070  0.2514
  730POPI   C2B11236   2.853   5.615   6.392 -0.1671 -0.3062 -0.0476
  730POPI   C3B11237   2.610   5.955   6.630 -0.2050  0.0170  0.1742
  730POPI   C4B11238   2.393   5.853   6.886 -0.1695  0.2140 -0.1730
  731POPI    C111239  18.677  15.580   5.142 -0.0707  0.1292  0.1265
  731POPI    C211240  18.886  15.890   5.001 -0.1953  0.1292 -0.0637
  731POPI    C311241  19.010  15.516   4.929 -0.2812  0.1287 -0.2110
  731POPI   PO411242  18.369  15.563   5.087 -0.1278 -0.3581  0.0725
  731POPI   GL111243  18.138  15.691   5.571 -0.3512 -0.1703  0.0398
  731POPI   GL211244  18.152  16.055   5.551 -0.0304  0.0303 -0.3033
  731POPI   C1A11245  18.112  15.386   5.971 -0.1599 -0.0689 -0.0999
  731POPI   D2A11246  18.395  15.198   6.335 -0.2128 -0.1012  0.2366
  731POPI   C3A11247  18.560  15.203   6.615 -0.1855 -0.0539 -0.0466
  731POPI   C4A11248  18.303  15.474   6.935 -0.0203 -0.0232  0.0344
  731POPI   C1B11249  17.903  16.265   5.874 -0.0417  0.1029 -0.0998
  731POPI   C2B11250  17.677  16.514   6.123 -0.1144 -0.1771 -0.2321
  731POPI   C3B11251  17.184  16.555   6.253  0.0794 -0.3571 -0.1844
  731POPI   C4B11252  16.749  16.557   5.981  0.3521 -0.0604 -0.3099
  732POPI    C111253  18.622  14.433   5.388 -0.2634  0.0289 -0.3430
  732POPI    C211254  18.720  14.066   5.515 -0.2899  0.0778 -0.1793
  732POPI    C311255  18.893  14.217   5.187  0.0620  0.0983  0.0100
  732POPI   PO411256  18.347  14.413   5.461  0.0824  0.2179  0.1899
  732POPI   GL111257  17.993  14.353   5.878  0.0606 -0.1570 -0.3959
  732POPI   GL211258  17.771  14.010   5.802 -0.0418  0.0253  0.0369
  732POPI   C1A11259  17.968  14.303   6.245  0.3572  0.2090  0.0844
  732POPI   D2A11260  17.709  13.956   6.280 -0.2607  0.1421 -0.1295
  732POPI   C3A11261  17.465  13.835   6.616 -0.0949 -0.0220  0.1219
  732POPI   C4A11262  17.110  13.868   6.827 -0.5000  0.0658  0.0223
  732POPI   C1B11263  17.374  13.792   5.942 -0.0121  0.1594 -0.0172
  732POPI   C2B11264  17.009  13.748   6.262 -0.0703 -0.0182  0.0519
  732POPI   C3B11265  16.599  13.901   6.352 -0.1812  0.2089 -0.1005
  732POPI   C4B11266  16.263  13.803   6.317  0.1733  0.0584 -0.0718
  733POPI    C111267   9.828  10.796   5.572  0.0889  0.2746 -0.2125
  733POPI    C211268   9.652  10.501   5.368  0.1721  0.1083 -0.0466
  733POPI    C311269   9.700  10.860   5.199 -0.2694  0.1398 -0.1175
  733POPI   PO411270   9.770  10.721   5.813 -0.0961 -0.1584 -0.0749
  733POPI   GL111271   9.610  10.382   6.147  0.1094 -0.2804 -0.0289
  733POPI   GL211272   9.240  10.467   6.144  0.4389 -0.0245  0.0315
  733POPI   C1A11273   9.458  10.639   6.555  0.0425 -0.0231 -0.2977
  733POPI   D2A11274   9.393  10.749   7.036 -0.0120  0.0486  0.0644
  733POPI   C3A11275   9.201  10.512   7.308  0.3601  0.2741  0.0894
  733POPI   C4A11276   8.991  10.520   7.707 -0.1193 -0.0226  0.3745
  733POPI   C1B11277   8.961  10.574   6.373 -0.0162 -0.1003  0.0876
  733POPI   C2B11278   8.694  10.350   6.804 -0.1612 -0.1192  0.1915
  733POPI   C3B11279   8.579  10.345   7.304  0.4972  0.2266 -0.1064
  733POPI   C4B11280   8.322  10.109   7.508  0.1361 -0.1670 -0.0950
  734POPI    C111281   9.833   3.721   5.320 -0.1388 -0.0538  0.0262
  734POPI    C211282   9.700   3.636   4.953  0.1441  0.0604 -0.1053
  734POPI    C311283   9.556   3.953   5.149  0.0004  0.0054 -0.1208
  734POPI   PO411284   9.869   3.409   5.412  0.1728  0.3082  0.0166
  734POPI   GL111285   9.948   3.243   5.758 -0.1948 -0.0141  0.0404
  734POPI   GL211286  10.038   2.958   5.770 -0.4390  0.0519  0.2526
  734POPI   C1A11287   9.971   3.346   6.122 -0.2625 -0.3577  0.0334
  734POPI   D2A11288  10.304   3.509   6.501  0.3048  0.1427  0.0480
  734POPI   C3A11289  10.535   3.395   6.875  0.2269 -0.0314 -0.2506
  734POPI   C4A11290  10.561   3.367   7.309  0.2051  0.1818 -0.1496
  734POPI   C1B11291   9.797   2.789   6.133 -0.0655  0.1312 -0.0602
  734POPI   C2B11292   9.691   2.910   6.570  0.1810  0.1616 -0.3506
  734POPI   C3B11293   9.813   3.148   6.895  0.0398 -0.0017  0.1285
  734POPI   C4B11294   9.819   3.213   7.255  0.4590  0.1184 -0.1896
  735POPI    C111295  15.739   4.040   5.123 -0.1643  0.0854  0.1423
  735POPI    C211296  16.088   4.035   4.929 -0.0333 -0.0573  0.3765
  735POPI    C311297  15.943   4.380   5.070 -0.0954  0.0362  0.0905
  735POPI   PO411298  15.732   3.887   5.331  0.1518 -0.0044  0.3139
  735POPI   GL111299  15.792   3.901   5.744  0.0247  0.1428  0.3167
  735POPI   GL211300  15.509   4.084   5.847  0.1086  0.0922  0.2037
  735POPI   C1A11301  16.088   3.749   5.895 -0.5007  0.0695 -0.0712
  735POPI   D2A11302  16.250   3.616   6.251  0.1506 -0.0950 -0.0117
  735POPI   C3A11303  16.251   3.776   6.626 -0.0009 -0.1600  0.2300
  735POPI   C4A11304  16.176   3.939   7.074 -0.2690  0.1147  0.0685
  735POPI   C1B11305  15.403   4.004   6.177  0.2143  0.1895 -0.0572
  735POPI   C2B11306  15.205   4.084   6.417 -0.0824 -0.2114 -0.0664
  735POPI   C3B11307  15.180   3.864   6.776  0.2115  0.0153 -0.0916
  735POPI   C4B11308  15.259   3.509   7.091  0.1322  0.2461  0.0312
  736POPI    C111309   1.304   8.507   5.262 -0.0503  0.1759 -0.0347
  736POPI    C211310   1.306   8.220   4.984 -0.0781  0.0613  0.0823
  736POPI    C311311   1.574   8.517   4.967 -0.0065 -0.0077 -0.0018
  736POPI   PO411312   1.101   8.433   5.495 -0.0444  0.6830 -0.1028
  736POPI   GL111313   1.096   8.553   5.917 -0.0890  0.0717 -0.4360
  736POPI   GL211314   0.804   8.650   5.801  0.0759 -0.3161 -0.1279
  736POPI   C1A11315   0.903   8.237   6.237 -0.3739 -0.0329  0.0073
  736POPI   D2A11316   0.877   8.069   6.720 -0.2669 -0.0513 -0.0980
  736POPI   C3A11317   0.700   8.220   7.098 -0.0881  0.1204 -0.0362
  736POPI   C4A11318   0.539   8.047   7.472  0.1160  0.0086  0.2281
  736POPI   C1B11319   0.424   8.924   5.924  0.0294  0.0505  0.2512
  736POPI   C2B11320   0.041   9.240   5.921  0.0760 -0.1141  0.0271
  736POPI   C3B11321  -0.369   9.269   6.120  0.1968 -0.0539  0.0979
  736POPI   C4B11322  -0.784   9.396   6.202 -0.1311  0.3030  0.0110
  737POPS   CNO11323  14.741   1.395   5.133 -0.1296 -0.2954 -0.1050
  737POPS   PO411324  14.558   1.809   5.012 -0.2923 -0.0828  0.3017
  737POPS   GL111325  14.647   1.966   5.464  0.0277  0.1157 -0.1918
  737POPS   GL211326  14.882   1.618   5.555  0.3505 -0.2860 -0.0820
  737POPS   C1A11327  14.742   2.152   5.747 -0.1860  0.1679  0.2923
  737POPS   D2A11328  14.745   2.251   6.192 -0.2832  0.0685  0.0433
  737POPS   C3A11329  14.552   2.456   6.446 -0.3575 -0.1540  0.0954
  737POPS   C4A11330  14.310   2.671   6.728  0.2122 -0.5179  0.1845
  737POPS   C1B11331  15.263   1.529   5.691  0.1419 -0.1968  0.1469
  737POPS   C2B11332  15.482   1.616   5.973  0.2017  0.0496  0.2074
  737POPS   C3B11333  15.567   1.415   6.280  0.1879  0.3697 -0.0806
  737POPS   C4B11334  15.361   1.056   6.410 -0.3844 -0.3088 -0.2446
  738POPS   CNO11335  14.264   3.940   4.941 -0.2812 -0.3723 -0.2336
  738POPS   PO411336  14.173   3.774   5.319 -0.1371  0.2088  0.2559
  738POPS   GL111337  14.123   3.673   5.757  0.0274  0.0923 -0.0634
  738POPS   GL211338  14.404   3.575   5.954  0.0697  0.1688 -0.1640
  738POPS   C1A11339  14.010   3.491   6.245 -0.0236  0.0144  0.3659
  738POPS   D2A11340  13.972   3.636   6.697  0.1452  0.2949  0.1617
  738POPS   C3A11341  14.249   3.752   7.037 -0.1726  0.1128 -0.3838
  738POPS   C4A11342  14.416   4.114   7.259 -0.2531 -0.0061 -0.0792
  738POPS   C1B11343  14.662   3.290   6.216 -0.1403  0.2178  0.3473
  738POPS   C2B11344  14.966   3.119   6.157  0.1955 -0.0199  0.3065
  738POPS   C3B11345  15.080   2.770   6.309  0.0949 -0.0893 -0.0893
  738POPS   C4B11346  15.122   2.288   6.482  0.1947  0.0159 -0.1209
  739POPS   CNO11347   2.665  18.823   5.136 -0.4944 -0.2081 -0.6555
  739POPS   PO411348   2.382  18.898   5.467  0.2153  0.1399  0.2545
  739POPS   GL111349   2.282  18.660   5.740 -0.2171 -0.2254 -0.2402
  739POPS   GL211350   2.270  18.235   5.706  0.0392  0.2172 -0.1502
  739POPS   C1A11351   2.129  18.503   6.157 -0.4740  0.2488 -0.1942
  739POPS   D2A11352   1.945  18.196   6.549 -0.0176 -0.1253  0.2051
  739POPS   C3A11353   1.960  17.767   6.237  0.0068  0.0371 -0.0813
  739POPS   C4A11354   1.768  17.715   5.793 -0.2327  0.2331 -0.0760
  739POPS   C1B11355   2.308  18.039   6.098 -0.0082 -0.2230 -0.0405
  739POPS   C2B11356   2.334  17.905   6.504 -0.1896  0.2549 -0.2320
  739POPS   C3B11357   2.516  17.601   6.917  0.1245 -0.6253 -0.0322
  739POPS   C4B11358   2.633  17.216   7.226 -0.3562  0.1538 -0.1553
  740POPS   CNO11359  10.921  14.165   5.439  0.1532 -0.0276 -0.2863
  740POPS   PO411360  11.287  13.885   5.369  0.3055  0.0683  0.2341
  740POPS   GL111361  11.641  14.186   5.368 -0.0345  0.0801 -0.1955
  740POPS   GL211362  11.416  14.311   5.563  0.0255 -0.1475  0.1028
  740POPS   C1A11363  12.032  14.043   5.674  0.2688 -0.0923  0.3009
  740POPS   D2A11364  12.371  13.912   5.955  0.1869 -0.0393 -0.4850
  740POPS   C3A11365  12.247  13.848   6.420 -0.2092 -0.2449  0.2344
  740POPS   C4A11366  12.205  13.737   6.773  0.0108 -0.0502 -0.0513
  740POPS   C1B11367  11.701  14.267   5.963 -0.0346  0.1270  0.0908
  740POPS   C2B11368  12.013  14.359   6.081 -0.1385  0.1990  0.2034
  740POPS   C3B11369  12.500  14.364   6.102  0.3168  0.2158 -0.2934
  740POPS   C4B11370  12.531  14.268   6.561  0.2281  0.0048  0.1114
  741POPS   CNO11371  12.391  10.212   5.295  0.1151  0.2444 -0.3784
  741POPS   PO411372  12.819  10.131   5.342  0.1600 -0.1170 -0.1213
  741POPS   GL111373  12.943   9.956   5.771  0.3646 -0.3508  0.0493
  741POPS   GL211374  12.796   9.724   5.918 -0.2425 -0.0361  0.1334
  741POPS   C1A11375  13.154   9.948   6.164 -0.1694  0.1179 -0.3713
  741POPS   D2A11376  13.429   9.759   6.391 -0.0115  0.1565 -0.0610
  741POPS   C3A11377  13.304   9.967   6.790 -0.0584 -0.0029  0.1309
  741POPS   C4A11378  13.107  10.151   7.069  0.1013  0.1737 -0.1136
  741POPS   C1B11379  12.746   9.641   6.328 -0.4155  0.0239 -0.1348
  741POPS   C2B11380  12.532   9.544   6.753 -0.1613 -0.0384 -0.1360
  741POPS   C3B11381  12.501   9.412   7.233  0.0413 -0.0183  0.1603
  741POPS   C4B11382  12.407   9.469   7.700 -0.1401  0.0843 -0.1997
  742POPS   CNO11383   2.435  13.629   5.279  0.0383 -0.0341 -0.0546
  742POPS   PO411384   2.910  13.482   5.122  0.2618 -0.4455  0.3843
  742POPS   GL111385   3.035  13.562   5.547 -0.1094 -0.0421  0.2015
  742POPS   GL211386   2.829  13.668   5.663  0.1761 -0.3002 -0.1506
  742POPS   C1A11387   3.086  13.317   5.939 -0.0893 -0.0303 -0.3096
  742POPS   D2A11388   3.147  13.254   6.363  0.0807  0.0382 -0.1074
  742POPS   C3A11389   3.262  13.644   6.570 -0.4653  0.2033  0.3114
  742POPS   C4A11390   3.071  14.117   6.529 -0.4112 -0.3360 -0.0471
  742POPS   C1B11391   2.874  13.691   6.106  0.3458 -0.0836  0.1020
  742POPS   C2B11392   2.785  13.606   6.563 -0.0696  0.1112 -0.3432
  742POPS   C3B11393   2.908  13.422   6.917 -0.2672 -0.2530 -0.4400
  742POPS   C4B11394   2.616  13.279   7.278 -0.3559 -0.1208  0.0635
  743POPS   CNO11395  10.931  13.210   5.565 -0.0643 -0.0845  0.0488
  743POPS   PO411396  11.337  13.024   5.640  0.6803 -0.3893 -0.2488
  743POPS   GL111397  11.295  13.319   5.897  0.0449  0.1633 -0.1051
  743POPS   GL211398  11.519  13.124   6.121  0.2068  0.0052 -0.0987
  743POPS   C1A11399  11.300  13.592   6.219  0.0592  0.3097  0.1459
  743POPS   D2A11400  11.374  13.747   6.561  0.0483 -0.0125 -0.1155
  743POPS   C3A11401  11.522  13.843   6.989 -0.0467 -0.1937  0.1998
  743POPS   C4A11402  11.605  13.969   7.419  0.1478  0.1060 -0.2061
  743POPS   C1B11403  11.765  13.325   6.374  0.0024  0.0748 -0.0247
  743POPS   C2B11404  12.157  13.091   6.437  0.4487  0.0284 -0.1569
  743POPS   C3B11405  12.273  12.695   6.649 -0.2718  0.3263  0.3034
  743POPS   C4B11406  12.628  12.482   6.626 -0.1658 -0.0547  0.1226
  744POPS   CNO11407   8.979  13.523   4.818  0.1244 -0.1315 -0.5247
  744POPS   PO411408   9.188  13.739   5.289  0.1324  0.0279  0.0466
  744POPS   GL111409   9.181  13.914   5.706 -0.0719  0.0766  0.3197
  744POPS   GL211410   8.994  13.723   5.822  0.1248  0.1074 -0.2832
  744POPS   C1A11411   9.491  14.093   5.929 -0.1901 -0.1812  0.2768
  744POPS   D2A11412   9.724  13.939   6.301 -0.0129 -0.0503 -0.2071
  744POPS   C3A11413   9.704  13.884   6.812  0.4986  0.1728  0.0326
  744POPS   C4A11414   9.535  13.766   7.247 -0.0113 -0.2069  0.2776
  744POPS   C1B11415   8.740  14.045   6.035  0.1033 -0.1523  0.0506
  744POPS   C2B11416   8.355  14.080   6.336 -0.2144  0.0250  0.0451
  744POPS   C3B11417   8.306  14.299   6.739  0.1086 -0.2203  0.1026
  744POPS   C4B11418   8.249  14.496   7.104 -0.4561 -0.2016 -0.0268
  745POPS   CNO11419   7.269  12.746   5.764  0.1350 -0.2761 -0.1478
  745POPS   PO411420   6.769  12.819   5.807 -0.0674 -0.0936  0.1543
  745POPS   GL111421   6.965  12.554   6.102  0.0817  0.1761  0.2385
  745POPS   GL211422   7.324  12.334   6.097  0.0747 -0.2190 -0.0859
  745POPS   C1A11423   6.823  12.419   6.511  0.1631  0.2715  0.0001
  745POPS   D2A11424   6.875  12.236   6.988 -0.0788  0.1465 -0.0850
  745POPS   C3A11425   7.096  11.974   7.326  0.2044 -0.0832 -0.1073
  745POPS   C4A11426   7.208  11.583   7.533  0.0331  0.2699 -0.0523
  745POPS   C1B11427   7.343  12.165   6.522  0.2032 -0.3688  0.0592
  745POPS   C2B11428   7.367  12.069   6.909 -0.0791  0.0642 -0.0877
  745POPS   C3B11429   7.590  11.947   7.194  0.0757 -0.0012  0.4307
  745POPS   C4B11430   7.757  11.640   7.457  0.0805 -0.4415  0.1187
  746POPS   CNO11431  10.517   9.098   5.448  0.1367  0.0291 -0.1085
  746POPS   PO411432  10.876   9.342   5.576 -0.0918 -0.0842  0.0125
  746POPS   GL111433  10.814   9.544   5.955  0.1467  0.1460  0.0073
  746POPS   GL211434  10.840   9.851   6.038 -0.1438  0.1016  0.1029
  746POPS   C1A11435  10.697   9.431   6.386  0.1746  0.0670 -0.1936
  746POPS   D2A11436  10.755   9.486   6.786  0.0169 -0.2022 -0.0952
  746POPS   C3A11437  11.192   9.465   7.025  0.0084 -0.0667  0.0736
  746POPS   C4A11438  11.514   9.703   7.209  0.1117 -0.2125 -0.0315
  746POPS   C1B11439  10.947   9.854   6.480  0.3803 -0.2232  0.1068
  746POPS   C2B11440  10.991   9.974   6.844  0.1682  0.4802 -0.0403
  746POPS   C3B11441  11.091  10.072   7.303 -0.0166 -0.0388 -0.0676
  746POPS   C4B11442  11.332   9.928   7.606  0.0499  0.0631 -0.1931
  747POPS   CNO11443  19.296   9.068   4.581  0.0344 -0.1032 -0.4271
  747POPS   PO411444  19.397   9.342   5.030  0.0913 -0.1595 -0.0623
  747POPS   GL111445  19.639   9.363   5.378  0.0801 -0.1160 -0.1796
  747POPS   GL211446  19.939   9.122   5.519  0.1824  0.2045  0.0859
  747POPS   C1A11447  19.735   9.686   5.689 -0.0564  0.0852  0.2873
  747POPS   D2A11448  20.005   9.954   5.727 -0.0154  0.1845  0.2552
  747POPS   C3A11449  20.129  10.121   6.015  0.2127  0.5033 -0.0412
  747POPS   C4A11450  20.170  10.447   6.432  0.0283  0.0592  0.1854
  747POPS   C1B11451  20.360   9.081   5.861  0.0511 -0.2782  0.1339
  747POPS   C2B11452  20.277   8.901   6.253 -0.0267 -0.0139  0.3038
  747POPS   C3B11453  20.099   8.569   6.563 -0.0751  0.2835 -0.4179
  747POPS   C4B11454  19.776   8.476   6.712 -0.1667 -0.0259 -0.4264
  748POPS   CNO11455   1.605  12.714   5.186  0.0988 -0.2276  0.1170
  748POPS   PO411456   1.706  12.428   5.020 -0.2965  0.1237 -0.2795
  748POPS   GL111457   1.711  12.198   5.410 -0.2182 -0.1794  0.3400
  748POPS   GL211458   1.442  11.903   5.543 -0.2797 -0.4946  0.1130
  748POPS   C1A11459   1.566  12.390   5.801 -0.0336  0.1308  0.0528
  748POPS   D2A11460   1.570  12.885   5.919  0.1384 -0.2005  0.1457
  748POPS   C3A11461   1.600  12.853   6.411 -0.0896  0.2006  0.2851
  748POPS   C4A11462   1.812  12.940   6.702 -0.0817 -0.0453 -0.2201
  748POPS   C1B11463   1.267  11.794   6.000 -0.1220  0.0029  0.0595
  748POPS   C2B11464   1.527  11.975   6.365 -0.0140  0.0408 -0.1450
  748POPS   C3B11465   1.749  11.755   6.719  0.1667  0.0046 -0.0211
  748POPS   C4B11466   2.167  11.691   6.993  0.0003  0.3052  0.1074
  749POPS   CNO11467  19.068  10.137   4.414  0.5051 -0.1597 -0.0342
  749POPS   PO411468  19.034  10.002   4.873 -0.1144  0.0749 -0.1010
  749POPS   GL111469  18.973   9.917   5.399  0.2868 -0.1935  0.0463
  749POPS   GL211470  19.115  10.026   5.504  0.0138 -0.2252 -0.0303
  749POPS   C1A11471  18.822   9.543   5.683  0.1546  0.1442  0.0057
  749POPS   D2A11472  18.354   9.497   5.774  0.0804 -0.3367 -0.1223
  749POPS   C3A11473  18.040   9.384   6.083 -0.2382  0.1797  0.1672
  749POPS   C4A11474  17.881   9.392   6.529 -0.0378  0.1118  0.1248
  749POPS   C1B11475  19.198   9.780   5.883 -0.1128  0.0982 -0.1819
  749POPS   C2B11476  19.014   9.819   6.263 -0.0979 -0.0185  0.1310
  749POPS   C3B11477  18.854   9.674   6.588 -0.0101  0.1465 -0.3723
  749POPS   C4B11478  18.745   9.193   6.628 -0.1209  0.1502 -0.1536
  750POPS   CNO11479   7.482   2.265   6.017  0.3398 -0.2583 -0.0858
  750POPS   PO411480   7.801   2.031   5.799  0.1315 -0.1856  0.0929
  750POPS   GL111481   7.850   1.847   6.149  0.1344 -0.0809 -0.1822
  750POPS   GL211482   8.013   2.093   6.372 -0.0985  0.0768  0.0459
  750POPS   C1A11483   7.724   1.744   6.494  0.0198  0.0696 -0.3801
  750POPS   D2A11484   7.521   1.864   6.920 -0.2349  0.0111 -0.2742
  750POPS   C3A11485   7.608   1.952   7.212 -0.2875 -0.1131 -0.2203
  750POPS   C4A11486   7.764   2.056   7.653 -0.2485  0.0304  0.2510
  750POPS   C1B11487   7.914   2.110   6.809 -0.2889  0.1528 -0.0872
  750POPS   C2B11488   7.847   2.465   7.146 -0.0461  0.3432  0.2157
  750POPS   C3B11489   7.526   2.446   7.478 -0.2419  0.0867 -0.0602
  750POPS   C4B11490   7.419   2.388   7.915 -0.0130 -0.2372  0.0134
  751POPS   CNO11491   1.072  14.183   5.095  0.1094 -0.0492  0.1551
  751POPS   PO411492   0.832  14.506   5.177  0.1632 -0.1418  0.0902
  751POPS   GL111493   0.458  14.514   5.641 -0.0735 -0.0079 -0.1420
  751POPS   GL211494   0.431  14.168   5.786  0.1061  0.0090  0.0693
  751POPS   C1A11495   0.581  14.656   6.002 -0.0805  0.2490  0.1121
  751POPS   D2A11496   0.623  14.784   6.339 -0.2456 -0.0393  0.0692
  751POPS   C3A11497   0.950  14.814   6.653  0.1505  0.0429 -0.1537
  751POPS   C4A11498   1.014  15.075   7.062 -0.0017 -0.0840  0.0289
  751POPS   C1B11499   0.460  14.105   6.261 -0.0583  0.2045 -0.0571
  751POPS   C2B11500   0.408  14.271   6.637 -0.0425  0.0689  0.1978
  751POPS   C3B11501   0.081  14.412   6.826 -0.1098  0.0138 -0.1829
  751POPS   C4B11502  -0.236  14.608   7.105 -0.0477 -0.2151 -0.0533
  752POPS   CNO11503   4.933   8.649   5.027  0.1807 -0.2005 -0.0061
  752POPS   PO411504   4.726   8.375   5.381 -0.0447 -0.0289 -0.0706
  752POPS   GL111505   4.414   8.567   5.670 -0.1403  0.1911 -0.2382
  752POPS   GL211506   4.040   8.471   5.748 -0.2014  0.4341 -0.3266
  752POPS   C1A11507   4.522   8.674   5.980  0.0162  0.1396 -0.1558
  752POPS   D2A11508   4.444   9.082   6.179 -0.0679  0.1024  0.0135
  752POPS   C3A11509   4.665   8.963   6.521 -0.2043 -0.3130  0.1995
  752POPS   C4A11510   4.849   8.631   6.403 -0.1823 -0.2187  0.0166
  752POPS   C1B11511   4.050   8.568   6.185  0.0653 -0.3213  0.4184
  752POPS   C2B11512   4.275   8.722   6.568 -0.1145 -0.2026 -0.1894
  752POPS   C3B11513   4.688   8.558   6.850 -0.2249 -0.0041 -0.1798
  752POPS   C4B11514   4.921   8.923   6.954  0.0576  0.1298  0.0353
  753POPS   CNO11515   5.586   6.410   5.855  0.3109 -0.0330  0.1248
  753POPS   PO411516   5.241   6.176   6.152  0.0985  0.2693  0.1937
  753POPS   GL111517   5.206   6.063   6.593 -0.2334 -0.2477 -0.0979
  753POPS   GL211518   5.295   5.754   6.602 -0.2210 -0.4187  0.1446
  753POPS   C1A11519   5.353   6.103   6.998  0.2387 -0.1873 -0.1920
  753POPS   D2A11520   5.401   6.103   7.451 -0.2006 -0.0258  0.2947
  753POPS   C3A11521   5.568   6.248   7.741  0.2751 -0.0527  0.0033
  753POPS   C4A11522   5.599   6.572   7.954 -0.2174  0.1446 -0.0359
  753POPS   C1B11523   5.484   5.620   6.998  0.0119  0.0558  0.1197
  753POPS   C2B11524   5.690   5.570   7.404 -0.0028 -0.1328 -0.1731
  753POPS   C3B11525   5.871   5.852   7.721  0.1221 -0.1332  0.0505
  753POPS   C4B11526   6.172   5.809   8.144  0.1626  0.0049  0.1546
  754POPS   CNO11527  15.012   2.593   4.470 -0.1125 -0.1998 -0.1019
  754POPS   PO411528  15.219   2.637   4.800 -0.0862 -0.1398  0.0285
  754POPS   GL111529  15.271   2.683   5.244  0.1715 -0.0063  0.3063
  754POPS   GL211530  14.958   2.641   5.359 -0.2984 -0.1332  0.1077
  754POPS   C1A11531  15.308   2.556   5.696  0.0291  0.1073  0.2691
  754POPS   D2A11532  15.302   2.451   6.036 -0.1225 -0.0128 -0.2902
  754POPS   C3A11533  15.276   2.056   5.877  0.1057 -0.2162 -0.1351
  754POPS   C4A11534  14.870   1.804   6.031  0.1381 -0.4398  0.2902
  754POPS   C1B11535  14.817   2.615   5.837 -0.1866 -0.2524  0.2197
  754POPS   C2B11536  14.583   2.791   6.072 -0.1856  0.0385 -0.2626
  754POPS   C3B11537  14.697   3.004   6.612 -0.2527 -0.4004 -0.2054
  754POPS   C4B11538  15.052   3.115   6.801  0.1235 -0.0309  0.1674
  755POPS   CNO11539   6.622  15.643   5.385 -0.3069  0.0402 -0.0677
  755POPS   PO411540   6.485  15.248   5.474  0.1119  0.3561  0.1914
  755POPS   GL111541   6.213  15.263   5.851 -0.1839 -0.0294  0.1243
  755POPS   GL211542   5.838  15.159   5.836 -0.0169  0.0604 -0.1730
  755POPS   C1A11543   5.991  15.638   6.029 -0.2807 -0.3370  0.1603
  755POPS   D2A11544   5.711  15.963   6.347  0.0273 -0.1151 -0.1079
  755POPS   C3A11545   5.311  16.036   6.538  0.0141 -0.0170 -0.1309
  755POPS   C4A11546   5.014  16.312   6.341  0.1891  0.2241  0.4145
  755POPS   C1B11547   5.494  15.423   6.003 -0.3104  0.1092 -0.0736
  755POPS   C2B11548   5.436  15.585   6.414 -0.2678 -0.1446  0.0857
  755POPS   C3B11549   5.208  15.637   6.824 -0.1306  0.2061  0.2568
  755POPS   C4B11550   5.010  15.763   7.210  0.4260  0.1799 -0.0141
  756POPS   CNO11551  16.368   0.497   4.697  0.1503 -0.0753  0.1749
  756POPS   PO411552  15.894   0.530   4.859  0.1164  0.0186 -0.2442
  756POPS   GL111553  16.202   0.345   5.137  0.1295 -0.0593  0.0409
  756POPS   GL211554  16.475   0.545   5.258  0.4657  0.2575  0.1673
  756POPS   C1A11555  16.334   0.174   5.623 -0.1033 -0.0208 -0.1256
  756POPS   D2A11556  16.481  -0.247   5.916  0.2064 -0.0337  0.0210
  756POPS   C3A11557  16.298  -0.666   5.839  0.0594  0.1484  0.1286
  756POPS   C4A11558  16.408  -1.039   6.015 -0.1088  0.0354 -0.0140
  756POPS   C1B11559  16.750   0.541   5.677  0.2673  0.2579  0.2260
  756POPS   C2B11560  16.847   0.566   6.090 -0.0042  0.0854  0.1189
  756POPS   C3B11561  17.005   0.457   6.516 -0.0441  0.0942  0.4041
  756POPS   C4B11562  17.159   0.751   6.844  0.0536 -0.0631 -0.0498
  757POPS   CNO11563  11.826   8.526   5.454  0.2311  0.3901 -0.1059
  757POPS   PO411564  12.137   8.242   5.547 -0.0634 -0.0634  0.0109
  757POPS   GL111565  11.821   8.266   5.892  0.0250  0.1660  0.3113
  757POPS   GL211566  11.686   7.963   5.926 -0.3569 -0.0032  0.0855
  757POPS   C1A11567  11.899   8.258   6.353  0.4363  0.0440  0.3318
  757POPS   D2A11568  12.109   8.461   6.738 -0.4163 -0.2720 -0.1183
  757POPS   C3A11569  12.412   8.854   6.588 -0.3145  0.5687 -0.1734
  757POPS   C4A11570  12.749   9.108   6.303  0.0001  0.1527  0.1317
  757POPS   C1B11571  11.385   7.819   6.288  0.2036 -0.2560 -0.0244
  757POPS   C2B11572  11.379   7.682   6.720 -0.0593 -0.2173  0.1519
  757POPS   C3B11573  11.144   7.710   7.041 -0.0393  0.3490  0.5002
  757POPS   C4B11574  11.303   7.845   7.438  0.0785 -0.0646 -0.2473
  758POPS   CNO11575   6.348   0.158   5.620 -0.3446 -0.0515  0.0387
  758POPS   PO411576   6.532  -0.224   5.388 -0.0381 -0.1606 -0.3326
  758POPS   GL111577   6.815  -0.204   5.801 -0.0546  0.0290  0.0687
  758POPS   GL211578   7.071  -0.446   5.780 -0.0782  0.0561 -0.0310
  758POPS   C1A11579   6.797  -0.188   6.129 -0.0269 -0.0371  0.1840
  758POPS   D2A11580   6.745  -0.374   6.454  0.1258 -0.1577  0.2809
  758POPS   C3A11581   6.316  -0.277   6.705  0.0129 -0.0467 -0.1050
  758POPS   C4A11582   6.098   0.112   6.842  0.0374 -0.0127 -0.1219
  758POPS   C1B11583   7.292  -0.375   6.253 -0.0197  0.0831  0.0793
  758POPS   C2B11584   7.600  -0.116   6.489  0.1981  0.0715  0.2673
  758POPS   C3B11585   7.888  -0.242   6.753 -0.1111  0.0467  0.3331
  758POPS   C4B11586   8.350  -0.272   6.821  0.0767 -0.0216  0.0862
  759POPS   CNO11587  11.305   8.707   4.867  0.0884 -0.0126 -0.1333
  759POPS   PO411588  11.460   8.838   5.335 -0.1136  0.0560 -0.0984
  759POPS   GL111589  11.438   8.638   5.805 -0.1681 -0.1694  0.3245
  759POPS   GL211590  11.739   8.726   5.975 -0.0349  0.1253  0.2832
  759POPS   C1A11591  11.412   8.334   6.211  0.3511 -0.0106  0.2588
  759POPS   D2A11592  11.512   8.303   6.633 -0.2321 -0.1768  0.1453
  759POPS   C3A11593  11.783   7.949   6.880  0.1172  0.2780 -0.0853
  759POPS   C4A11594  12.011   7.951   7.296 -0.0824  0.0986  0.2980
  759POPS   C1B11595  11.503   8.835   6.328  0.4392  0.3375  0.0935
  759POPS   C2B11596  11.049   8.891   6.665  0.0551 -0.1421 -0.2516
  759POPS   C3B11597  11.034   8.496   6.830 -0.0181  0.3163 -0.2836
  759POPS   C4B11598  11.067   8.097   6.802 -0.1532  0.2633 -0.2590
  760POPS   CNO11599  11.615   1.122   5.419 -0.3130 -0.1605 -0.1714
  760POPS   PO411600  12.055   0.964   5.614 -0.0941  0.2324 -0.0666
  760POPS   GL111601  11.909   1.170   5.977  0.0117  0.2537  0.0930
  760POPS   GL211602  12.163   1.164   6.124 -0.0567  0.0175  0.1817
  760POPS   C1A11603  11.698   1.051   6.359 -0.2893  0.0661 -0.1163
  760POPS   D2A11604  11.664   1.041   6.746  0.4294  0.3150  0.1112
  760POPS   C3A11605  11.783   1.134   7.176  0.1375 -0.2419 -0.0788
  760POPS   C4A11606  11.918   1.244   7.618  0.1475 -0.0997  0.4081
  760POPS   C1B11607  12.491   1.161   6.359  0.1584 -0.0475  0.2923
  760POPS   C2B11608  12.742   1.262   6.685 -0.1380 -0.1308  0.1447
  760POPS   C3B11609  12.969   1.143   6.979 -0.0660  0.0078  0.3639
  760POPS   C4B11610  13.117   0.870   7.183 -0.1582 -0.4432 -0.0137
  761POPS   CNO11611  11.742   2.694   5.298 -0.0375  0.0178 -0.2386
  761POPS   PO411612  11.566   2.627   5.716  0.1600 -0.5102 -0.4612
  761POPS   GL111613  11.347   2.862   5.978  0.4159  0.1994 -0.2726
  761POPS   GL211614  11.090   2.756   6.103  0.0146 -0.1044 -0.1315
  761POPS   C1A11615  11.313   2.980   6.521  0.3050  0.0592  0.2786
  761POPS   D2A11616  11.529   2.809   6.813 -0.1784  0.0812 -0.2185
  761POPS   C3A11617  11.932   2.951   6.774 -0.0639  0.0521  0.0107
  761POPS   C4A11618  12.437   3.035   6.713  0.3423  0.3556  0.4238
  761POPS   C1B11619  11.275   2.486   6.467  0.1626  0.1510  0.0649
  761POPS   C2B11620  11.303   2.113   6.707  0.0095  0.0528 -0.3662
  761POPS   C3B11621  11.253   2.051   7.120 -0.0091 -0.0231 -0.1264
  761POPS   C4B11622  11.405   1.902   7.415 -0.2317 -0.0694  0.0945
  762POPS   CNO11623  13.247  16.538   4.620  0.1639 -0.3834  0.0901
  762POPS   PO411624  13.408  16.807   4.795  0.0711  0.1574  0.1579
  762POPS   GL111625  13.398  17.040   5.175 -0.4103  0.0843 -0.1584
  762POPS   GL211626  13.128  16.997   5.339  0.2027 -0.3072  0.0943
  762POPS   C1A11627  13.638  17.016   5.551 -0.0466  0.1260  0.2302
  762POPS   D2A11628  13.652  17.248   5.854  0.0240  0.1144 -0.2084
  762POPS   C3A11629  13.588  17.246   6.331 -0.0524  0.3565  0.0661
  762POPS   C4A11630  13.464  17.300   6.723 -0.0993 -0.4569 -0.0497
  762POPS   C1B11631  13.116  16.687   5.725  0.0703  0.1215 -0.3179
  762POPS   C2B11632  13.191  16.423   6.140 -0.1500  0.1037 -0.1696
  762POPS   C3B11633  13.145  16.065   6.464 -0.5287  0.0575 -0.0487
  762POPS   C4B11634  13.172  15.690   6.761 -0.0492 -0.0806  0.1070
  763POPS   CNO11635   4.223   1.505   5.314 -0.1430  0.1815 -0.1494
  763POPS   PO411636   4.176   1.965   5.154 -0.0132 -0.0806 -0.3061
  763POPS   GL111637   4.160   2.067   5.655  0.0412 -0.0992 -0.0697
  763POPS   GL211638   3.932   2.293   5.900  0.1650 -0.1787 -0.0696
  763POPS   C1A11639   4.351   1.991   6.123  0.1878  0.2483 -0.2125
  763POPS   D2A11640   4.187   2.413   6.387 -0.1023 -0.3589  0.2282
  763POPS   C3A11641   4.181   2.392   6.830 -0.0283 -0.1612  0.0783
  763POPS   C4A11642   4.290   2.549   7.226  0.1827  0.3143  0.0343
  763POPS   C1B11643   3.861   2.126   6.174 -0.0067 -0.2179 -0.4008
  763POPS   C2B11644   4.038   1.955   6.492  0.0996 -0.0882  0.0443
  763POPS   C3B11645   4.111   1.881   6.933 -0.0379 -0.0593 -0.2087
  763POPS   C4B11646   3.909   2.025   7.286 -0.1829  0.3044  0.0492
  764POPS   CNO11647  11.391   7.489   5.507 -0.0602 -0.0338 -0.2473
  764POPS   PO411648  11.152   7.100   5.613  0.1232  0.2921  0.0921
  764POPS   GL111649  10.886   7.159   5.984 -0.2205 -0.1288 -0.0123
  764POPS   GL211650  10.907   6.874   6.213 -0.0724  0.1679 -0.2275
  764POPS   C1A11651  10.597   7.376   6.181  0.0566 -0.2760  0.0356
  764POPS   D2A11652  10.587   7.397   6.663  0.0054  0.0971  0.2140
  764POPS   C3A11653  10.662   7.509   7.049 -0.0833  0.0714 -0.0915
  764POPS   C4A11654  10.365   7.525   7.502 -0.0555  0.0753  0.1362
  764POPS   C1B11655  11.003   6.824   6.664 -0.3826 -0.0984  0.1176
  764POPS   C2B11656  11.014   7.185   6.869  0.0427 -0.0243 -0.2968
  764POPS   C3B11657  11.015   7.334   7.366 -0.0680  0.1819 -0.2225
  764POPS   C4B11658  10.992   7.598   7.768 -0.1029 -0.2223  0.2062
  765POPS   CNO11659  10.768  10.775   5.541 -0.1732 -0.4097 -0.0219
  765POPS   PO411660  11.096  11.101   5.477 -0.3404  0.0148  0.2089
  765POPS   GL111661  11.284  11.009   5.853 -0.0624  0.1242 -0.1362
  765POPS   GL211662  11.083  10.840   6.016  0.0624  0.0520  0.3289
  765POPS   C1A11663  11.357  11.128   6.293 -0.0970  0.0967 -0.1534
  765POPS   D2A11664  11.461  11.355   6.687  0.1988  0.1484 -0.2511
  765POPS   C3A11665  11.631  11.073   7.101 -0.2481 -0.0030 -0.3147
  765POPS   C4A11666  11.371  11.106   7.513  0.2032 -0.4443  0.2221
  765POPS   C1B11667  10.813  11.057   6.312  0.2020  0.0450 -0.1315
  765POPS   C2B11668  10.741  11.299   6.715 -0.3305  0.2861  0.0725
  765POPS   C3B11669  10.369  11.334   6.873 -0.0344  0.0660  0.0736
  765POPS   C4B11670   9.949  11.373   6.898  0.0687 -0.1441 -0.0186
  766POPS   CNO11671   6.231   4.678   5.781 -0.0991  0.0364  0.0288
  766POPS   PO411672   6.257   5.064   6.114  0.3384  0.0969 -0.1975
  766POPS   GL111673   6.041   4.801   6.288 -0.6773  0.1492  0.2160
  766POPS   GL211674   6.381   4.631   6.337  0.0457 -0.0633  0.1739
  766POPS   C1A11675   5.795   4.547   6.481  0.3154 -0.1732 -0.1886
  766POPS   D2A11676   5.898   4.180   6.479 -0.1317 -0.2730  0.0676
  766POPS   C3A11677   6.197   4.093   6.729 -0.1150  0.0251  0.0401
  766POPS   C4A11678   6.446   4.103   7.082 -0.1634  0.0204 -0.0434
  766POPS   C1B11679   6.392   4.578   6.725 -0.0728 -0.0004 -0.0400
  766POPS   C2B11680   6.130   4.552   6.970  0.3060 -0.1395 -0.0277
  766POPS   C3B11681   6.073   4.507   7.496 -0.0426 -0.2840 -0.0640
  766POPS   C4B11682   5.607   4.358   7.538 -0.1083 -0.0414 -0.0373
  767POPS   CNO11683   7.514  17.672   5.224  0.1154 -0.2265 -0.3586
  767POPS   PO411684   7.123  17.498   5.033  0.3980  0.0355  0.2458
  767POPS   GL111685   7.282  17.349   5.486  0.1981  0.0107 -0.1256
  767POPS   GL211686   6.963  17.169   5.733 -0.3566 -0.2708 -0.4146
  767POPS   C1A11687   7.338  17.420   5.964 -0.4030 -0.3137 -0.2707
  767POPS   D2A11688   7.363  17.645   6.308 -0.0103  0.1498  0.1900
  767POPS   C3A11689   7.356  17.460   6.734  0.0209 -0.3269  0.0140
  767POPS   C4A11690   7.652  17.174   7.069  0.2078  0.0406  0.1016
  767POPS   C1B11691   7.181  16.866   5.985 -0.0187 -0.0622  0.0387
  767POPS   C2B11692   7.136  16.871   6.455  0.2747 -0.0468 -0.1932
  767POPS   C3B11693   7.127  17.005   6.930 -0.1802  0.1349 -0.4895
  767POPS   C4B11694   6.912  17.233   7.152  0.1155 -0.0188 -0.2958
  768POPS   CNO11695   5.955   7.058   6.241  0.2481 -0.0958  0.0276
  768POPS   PO411696   6.429   7.058   6.036  0.2023 -0.0088 -0.0414
  768POPS   GL111697   6.477   7.214   6.449 -0.1797  0.3789 -0.1632
  768POPS   GL211698   6.653   7.506   6.493  0.3678  0.2384 -0.0013
  768POPS   C1A11699   6.333   6.983   6.968  0.0565 -0.0982  0.0266
  768POPS   D2A11700   6.283   7.132   7.313 -0.1543  0.1632 -0.0079
  768POPS   C3A11701   6.427   7.452   7.436  0.0479 -0.1248  0.0419
  768POPS   C4A11702   6.586   7.790   7.562  0.0607  0.1617  0.1440
  768POPS   C1B11703   6.439   7.450   6.881  0.3132 -0.1130  0.0608
  768POPS   C2B11704   6.069   7.658   7.157 -0.1575  0.2552  0.2661
  768POPS   C3B11705   6.127   8.057   7.269 -0.0654 -0.0745 -0.0587
  768POPS   C4B11706   6.351   8.290   7.596  0.2435 -0.0389  0.1684
  769POPS   CNO11707   1.665  10.258   4.611  0.1380 -0.2088 -0.2496
  769POPS   PO411708   2.088  10.321   4.878  0.0740  0.4320  0.0226
  769POPS   GL111709   1.898  10.049   5.273  0.1465  0.2195  0.1422
  769POPS   GL211710   1.725  10.241   5.564  0.3212 -0.2908 -0.0326
  769POPS   C1A11711   1.719   9.793   5.662  0.2892  0.2005  0.1090
  769POPS   D2A11712   1.504   9.411   5.772 -0.1701  0.2922  0.2965
  769POPS   C3A11713   1.210   9.525   6.052  0.0870  0.2566  0.3147
  769POPS   C4A11714   1.090   9.809   6.396 -0.0481 -0.2705 -0.0309
  769POPS   C1B11715   1.912  10.162   6.025 -0.1158 -0.0732 -0.3924
  769POPS   C2B11716   1.774  10.002   6.432 -0.0223  0.0987  0.3141
  769POPS   C3B11717   1.614   9.559   6.613 -0.6120  0.2369  0.1455
  769POPS   C4B11718   1.176   9.273   6.520  0.0158 -0.1774 -0.1493
  770POPS   CNO11719  17.830   0.165   4.303 -0.2079  0.0440 -0.0133
  770POPS   PO411720  17.806   0.314   4.713  0.3413 -0.4965 -0.3242
  770POPS   GL111721  18.080   0.256   5.046 -0.0395  0.2553 -0.1410
  770POPS   GL211722  18.364   0.477   5.022 -0.0225 -0.4244 -0.2258
  770POPS   C1A11723  17.887   0.261   5.407 -0.1781 -0.2014  0.0575
  770POPS   D2A11724  17.697   0.465   5.842  0.1877 -0.2655 -0.1489
  770POPS   C3A11725  17.554   0.212   6.246  0.3554 -0.0394  0.1715
  770POPS   C4A11726  17.671  -0.177   6.485 -0.0421  0.0546  0.0677
  770POPS   C1B11727  18.382   0.493   5.527  0.1295  0.1327  0.0946
  770POPS   C2B11728  18.274   0.293   5.903 -0.0165  0.1659 -0.1629
  770POPS   C3B11729  18.026  -0.073   6.159 -0.1524 -0.0612  0.1572
  770POPS   C4B11730  18.115  -0.432   6.437  0.2869  0.0540 -0.0439
  771POPS   CNO11731  13.048   8.594   5.468 -0.0387  0.1232 -0.4119
  771POPS   PO411732  13.075   8.943   5.308  0.0326 -0.0326  0.5390
  771POPS   GL111733  13.144   8.977   5.749 -0.0036  0.0335  0.1843
  771POPS   GL211734  13.022   9.274   5.653 -0.2958 -0.0814  0.0829
  771POPS   C1A11735  13.283   8.965   6.284 -0.2758  0.0857 -0.2018
  771POPS   D2A11736  13.681   8.867   6.566  0.2288 -0.0854 -0.3354
  771POPS   C3A11737  14.032   8.771   6.395 -0.4199  0.0281  0.1651
  771POPS   C4A11738  14.438   8.535   6.427  0.1347 -0.2561  0.4069
  771POPS   C1B11739  13.209   9.383   6.021  0.2152  0.1811  0.2328
  771POPS   C2B11740  13.114   9.355   6.467 -0.1132 -0.1646 -0.1262
  771POPS   C3B11741  13.017   9.544   6.864 -0.3269 -0.1829 -0.0842
  771POPS   C4B11742  13.212   9.623   7.215 -0.3351 -0.2993 -0.2051
  772POPS   CNO11743  11.447   5.789   5.386 -0.2841 -0.0933 -0.2002
  772POPS   PO411744  11.172   5.683   5.671 -0.2037 -0.0699 -0.1614
  772POPS   GL111745  11.439   5.727   6.041  0.4476 -0.0576 -0.2080
  772POPS   GL211746  11.662   5.974   6.166 -0.1468 -0.1390  0.0833
  772POPS   C1A11747  11.367   5.826   6.552  0.1515 -0.2580  0.0056
  772POPS   D2A11748  11.375   5.502   6.992  0.1764 -0.1593  0.0117
  772POPS   C3A11749  10.937   5.418   6.973  0.1068  0.1865 -0.0023
  772POPS   C4A11750  10.706   5.196   6.758  0.1165 -0.4595  0.1437
  772POPS   C1B11751  11.931   6.367   6.355 -0.2817 -0.0386 -0.1865
  772POPS   C2B11752  12.326   6.475   6.509  0.0622 -0.1416  0.4615
  772POPS   C3B11753  12.657   6.879   6.458  0.2304  0.1748 -0.2003
  772POPS   C4B11754  12.936   7.080   6.702  0.0326 -0.0220  0.0327
  773POPS   CNO11755   9.601  18.100   4.877 -0.1932 -0.1313  0.2573
  773POPS   PO411756   9.497  17.904   5.267  0.3211 -0.2257 -0.3063
  773POPS   GL111757   9.373  17.890   5.769 -0.0997  0.1973 -0.0836
  773POPS   GL211758   9.626  18.012   5.970 -0.0122 -0.0244  0.4376
  773POPS   C1A11759   9.188  17.858   6.150 -0.2755 -0.1437  0.2210
  773POPS   D2A11760   9.303  17.839   6.623 -0.1789 -0.1480 -0.0301
  773POPS   C3A11761   9.081  17.593   6.983  0.3227 -0.0966 -0.3200
  773POPS   C4A11762   9.278  17.128   7.013 -0.2706 -0.3388  0.2175
  773POPS   C1B11763   9.833  18.127   6.224 -0.1757 -0.1435 -0.1575
  773POPS   C2B11764  10.161  18.233   6.395 -0.1228  0.0197 -0.0776
  773POPS   C3B11765  10.266  18.553   6.154  0.2133 -0.0334 -0.0939
  773POPS   C4B11766  10.346  18.995   6.092  0.4645 -0.4021 -0.2780
  774POPS   CNO11767   9.145   0.404   5.237 -0.2896 -0.1546 -0.0222
  774POPS   PO411768   8.970   0.061   5.044 -0.2820 -0.1793  0.2882
  774POPS   GL111769   9.242  -0.156   5.334  0.0752  0.0688 -0.1726
  774POPS   GL211770   9.052  -0.270   5.595 -0.0555 -0.3038 -0.2944
  774POPS   C1A11771   9.548  -0.393   5.646 -0.1203 -0.0663  0.1595
  774POPS   D2A11772   9.681  -0.679   5.978 -0.3752  0.1891 -0.3045
  774POPS   C3A11773   9.853  -0.608   6.388 -0.0791  0.1690 -0.3623
  774POPS   C4A11774   9.795  -0.510   6.762 -0.2952  0.1501 -0.0261
  774POPS   C1B11775   9.051  -0.732   5.605 -0.1717 -0.0132  0.1581
  774POPS   C2B11776   9.256  -0.958   5.833 -0.0283 -0.2321  0.0427
  774POPS   C3B11777   9.380  -0.981   6.269 -0.1019  0.2061  0.0195
  774POPS   C4B11778   9.715  -1.050   6.652  0.3169  0.0853  0.3528
  775POPS   CNO11779   9.066   6.412   5.704 -0.0011 -0.2846  0.1450
  775POPS   PO411780   9.137   6.758   5.831 -0.1631 -0.1395  0.1387
  775POPS   GL111781   9.309   6.854   6.281  0.1517 -0.0172  0.0084
  775POPS   GL211782   9.470   6.587   6.521  0.0439 -0.1898 -0.2535
  775POPS   C1A11783   9.112   6.955   6.598 -0.1035  0.1225 -0.0123
  775POPS   D2A11784   8.876   7.138   6.992 -0.2465 -0.2989  0.1591
  775POPS   C3A11785   8.937   7.360   7.322 -0.1591  0.1051 -0.0993
  775POPS   C4A11786   8.974   7.578   7.759  0.0554  0.1437  0.1207
  775POPS   C1B11787   9.478   6.746   6.915 -0.1755 -0.0519  0.1017
  775POPS   C2B11788   9.560   6.742   7.293 -0.3214  0.0832  0.0743
  775POPS   C3B11789   9.373   6.573   7.757  0.6135  0.2170 -0.0194
  775POPS   C4B11790   9.463   6.259   8.019 -0.2304  0.1190 -0.5013
  776POPS   CNO11791  14.561   0.141   4.375  0.0778 -0.1054 -0.2046
  776POPS   PO411792  14.518   0.124   4.780 -0.0885 -0.0638 -0.1553
  776POPS   GL111793  14.630  -0.094   5.141  0.1188 -0.1073  0.2696
  776POPS   GL211794  14.555  -0.435   5.190  0.1211  0.0486 -0.0635
  776POPS   C1A11795  14.723  -0.148   5.572 -0.2317  0.2775  0.4115
  776POPS   D2A11796  14.916   0.089   6.087 -0.0194 -0.1699 -0.1438
  776POPS   C3A11797  15.120   0.043   6.565  0.1169  0.0571 -0.0805
  776POPS   C4A11798  15.443  -0.158   6.790 -0.1127  0.0046 -0.2289
  776POPS   C1B11799  14.725  -0.732   5.455  0.5274  0.0844  0.0082
  776POPS   C2B11800  14.730  -1.118   5.801 -0.1317  0.1574  0.1244
  776POPS   C3B11801  14.988  -1.095   6.208  0.2440 -0.0406 -0.3111
  776POPS   C4B11802  15.013  -1.170   6.653 -0.1345 -0.1537  0.0712
  777POPS   CNO11803   3.580   3.756   5.785  0.0752 -0.1765 -0.0118
  777POPS   PO411804   3.277   3.491   5.705  0.1468 -0.0652 -0.1581
  777POPS   GL111805   3.087   3.634   6.041 -0.0730  0.0585  0.2450
  777POPS   GL211806   3.214   3.501   6.363  0.0345  0.0523 -0.4122
  777POPS   C1A11807   2.913   3.954   6.372  0.1713 -0.0804  0.4514
  777POPS   D2A11808   2.939   4.347   6.491 -0.1009  0.1343 -0.0241
  777POPS   C3A11809   2.483   4.512   6.637 -0.5558  0.1909  0.2177
  777POPS   C4A11810   2.058   4.491   6.652  0.1787 -0.3905 -0.0167
  777POPS   C1B11811   3.073   3.669   6.705  0.1492  0.1359 -0.5185
  777POPS   C2B11812   3.009   3.812   7.111 -0.4357  0.0708  0.5118
  777POPS   C3B11813   2.677   4.139   6.898  0.0053 -0.0161 -0.0515
  777POPS   C4B11814   2.348   4.394   7.194  0.1602  0.1571  0.1539
  778POPS   CNO11815   8.955   5.906   5.681 -0.1039 -0.5208 -0.0575
  778POPS   PO411816   9.138   5.914   6.055 -0.0349  0.1612  0.1342
  778POPS   GL111817   9.305   5.796   6.387 -0.0611 -0.2251  0.4072
  778POPS   GL211818   9.654   5.965   6.365 -0.0220  0.0799 -0.0927
  778POPS   C1A11819   9.396   6.116   6.760  0.2634  0.0860  0.1912
  778POPS   D2A11820   9.355   6.288   7.211 -0.2003 -0.3012  0.3506
  778POPS   C3A11821   9.142   6.166   7.553  0.3733 -0.3730 -0.0050
  778POPS   C4A11822   9.015   5.964   7.846 -0.3396 -0.0927 -0.2074
  778POPS   C1B11823   9.893   6.336   6.587 -0.2841 -0.0681  0.3434
  778POPS   C2B11824   9.987   6.437   6.989 -0.0947  0.1535  0.1298
  778POPS   C3B11825  10.102   6.719   7.337 -0.0153  0.0109 -0.0671
  778POPS   C4B11826  10.332   7.031   7.651 -0.1503  0.1043  0.0356
  779POPS   CNO11827   3.700   9.192   5.169  0.3296 -0.3017 -0.1623
  779POPS   PO411828   4.100   9.276   5.097  0.0850 -0.0829  0.1453
  779POPS   GL111829   3.984   9.358   5.562  0.0057 -0.2843 -0.0500
  779POPS   GL211830   4.225   9.542   5.772  0.0903 -0.3117  0.2408
  779POPS   C1A11831   3.675   9.382   5.930 -0.0517  0.1425  0.0444
  779POPS   D2A11832   3.457   9.010   6.101  0.0595  0.1913  0.0473
  779POPS   C3A11833   3.323   8.922   6.467 -0.1347 -0.1895 -0.0686
  779POPS   C4A11834   3.377   8.811   6.959 -0.3854 -0.1001 -0.0277
  779POPS   C1B11835   4.064   9.477   6.160  0.1021 -0.1907 -0.6202
  779POPS   C2B11836   3.908   9.666   6.571  0.2104 -0.1611  0.1441
  779POPS   C3B11837   3.615   9.802   6.854  0.1544 -0.0669 -0.1422
  779POPS   C4B11838   3.530  10.292   6.911 -0.1945 -0.2301  0.1135
  780POPS   CNO11839   3.548   4.822   5.583  0.0872 -0.0773 -0.1091
  780POPS   PO411840   3.518   4.335   5.530  0.3874 -0.2095  0.0187
  780POPS   GL111841   3.563   4.304   5.939  0.1375  0.1144 -0.0910
  780POPS   GL211842   3.387   4.022   6.141  0.0143  0.2156  0.1412
  780POPS   C1A11843   3.603   4.394   6.399 -0.0296  0.0611 -0.3155
  780POPS   D2A11844   3.320   4.233   6.771  0.0118  0.0440  0.0652
  780POPS   C3A11845   3.135   4.274   7.153  0.1382  0.2772 -0.3894
  780POPS   C4A11846   2.839   4.188   7.531 -0.0801 -0.4956 -0.0284
  780POPS   C1B11847   3.559   3.899   6.485  0.0522  0.1872  0.1509
  780POPS   C2B11848   3.689   3.929   6.799  0.2338  0.0219  0.0711
  780POPS   C3B11849   3.994   4.103   7.067 -0.0226 -0.1700 -0.2088
  780POPS   C4B11850   4.433   4.346   7.214 -0.0390  0.1387  0.3972
  781POPS   CNO11851  14.942   9.909   5.725 -0.3330 -0.1704 -0.0508
  781POPS   PO411852  14.870  10.085   5.328  0.0862  0.1647  0.0288
  781POPS   GL111853  14.573  10.247   5.492 -0.1946  0.1047  0.1192
  781POPS   GL211854  14.429   9.926   5.753 -0.0985 -0.1751  0.1938
  781POPS   C1A11855  14.595  10.406   5.860 -0.1293 -0.1675 -0.2656
  781POPS   D2A11856  14.782  10.176   6.325  0.2511  0.1110  0.0462
  781POPS   C3A11857  14.885  10.061   6.769 -0.0015 -0.2068 -0.2846
  781POPS   C4A11858  14.868   9.936   7.120  0.3626  0.4254  0.0590
  781POPS   C1B11859  14.181  10.094   6.085 -0.0919 -0.1966 -0.2030
  781POPS   C2B11860  14.269  10.072   6.590 -0.1643  0.1561  0.1511
  781POPS   C3B11861  14.325  10.246   6.944 -0.2012  0.2790  0.0149
  781POPS   C4B11862  14.303  10.438   7.346  0.0891  0.0013  0.1615
  782POPS   CNO11863   8.219  18.317   4.950 -0.0052 -0.2168 -0.1690
  782POPS   PO411864   8.217  17.877   5.050 -0.1349  0.1074  0.0293
  782POPS   GL111865   7.964  17.902   5.419 -0.0210  0.0620 -0.1933
  782POPS   GL211866   7.879  18.132   5.550 -0.0160 -0.0047  0.2435
  782POPS   C1A11867   8.268  17.886   5.955 -0.0322 -0.0939 -0.2224
  782POPS   D2A11868   8.458  18.017   6.434  0.1779  0.1474 -0.1246
  782POPS   C3A11869   8.301  18.180   6.830  0.2604 -0.1219  0.3855
  782POPS   C4A11870   8.311  18.483   7.117  0.2091 -0.0863 -0.1506
  782POPS   C1B11871   7.987  18.433   5.953  0.3040  0.1631  0.0037
  782POPS   C2B11872   8.361  18.500   6.237  0.0929  0.0420  0.2001
  782POPS   C3B11873   8.599  18.515   6.518 -0.0137  0.1368  0.0203
  782POPS   C4B11874   8.780  18.915   6.792  0.0904  0.2980  0.0350
  783POPS   CNO11875  10.194   7.859   5.612  0.0168 -0.1578 -0.1822
  783POPS   PO411876   9.939   8.208   5.594  0.2235  0.0292  0.0175
  783POPS   GL111877   9.985   8.361   6.061 -0.1309 -0.1418  0.2516
  783POPS   GL211878   9.831   8.456   6.190 -0.0229 -0.0253  0.1139
  783POPS   C1A11879  10.312   8.378   6.394 -0.2996 -0.0018 -0.2313
  783POPS   D2A11880  10.519   8.457   6.780  0.1409 -0.2796 -0.3574
  783POPS   C3A11881  10.672   8.866   7.035 -0.0293 -0.0417  0.2493
  783POPS   C4A11882  10.705   8.947   7.540 -0.0350 -0.0476 -0.1365
  783POPS   C1B11883   9.888   8.614   6.619 -0.2428 -0.1930 -0.1099
  783POPS   C2B11884   9.773   8.868   6.900 -0.2872 -0.1400 -0.2779
  783POPS   C3B11885   9.556   8.730   7.291  0.1567  0.2676 -0.2787
  783POPS   C4B11886   9.641   8.722   7.697  0.1240  0.0806  0.0708
  784POPS   CNO11887   4.456   3.376   5.885 -0.1006  0.1526  0.1584
  784POPS   PO411888   4.062   3.329   5.926  0.2528 -0.0570  0.0319
  784POPS   GL111889   4.101   3.269   6.319 -0.1928 -0.0447  0.0684
  784POPS   GL211890   4.416   3.078   6.329 -0.1921  0.1308 -0.0002
  784POPS   C1A11891   4.172   3.463   6.779 -0.3628  0.0463  0.1746
  784POPS   D2A11892   4.447   3.505   7.130 -0.1019 -0.1734 -0.0934
  784POPS   C3A11893   4.377   3.863   7.429 -0.1464  0.1305  0.1757
  784POPS   C4A11894   4.584   4.083   7.698  0.0497  0.0291  0.2408
  784POPS   C1B11895   4.521   2.856   6.630 -0.0569 -0.1975  0.2398
  784POPS   C2B11896   4.429   3.025   7.076 -0.2110 -0.4168 -0.0463
  784POPS   C3B11897   4.254   2.997   7.471  0.2341 -0.3545 -0.0270
  784POPS   C4B11898   4.055   2.735   7.713  0.2354 -0.1246 -0.1038
  785POPS   CNO11899   8.970  11.103   5.426  0.0081  0.1446  0.1513
  785POPS   PO411900   8.905  10.610   5.470  0.1866  0.2099  0.1101
  785POPS   GL111901   8.843  10.915   5.855  0.2204  0.2184 -0.0837
  785POPS   GL211902   8.648  10.856   6.041  0.3770 -0.1095  0.1923
  785POPS   C1A11903   8.631  11.275   5.808 -0.0718 -0.2464  0.0762
  785POPS   D2A11904   8.424  11.599   5.940 -0.0716  0.0366 -0.2331
  785POPS   C3A11905   8.066  11.802   6.149  0.2669  0.1292  0.0683
  785POPS   C4A11906   7.660  11.814   6.060  0.0299 -0.1870 -0.3577
  785POPS   C1B11907   8.701  11.050   6.445  0.2067 -0.0503 -0.5359
  785POPS   C2B11908   8.863  10.894   6.743 -0.3536  0.0186  0.1190
  785POPS   C3B11909   8.738  10.859   7.104  0.2797  0.0529  0.0643
  785POPS   C4B11910   8.541  10.909   7.518  0.3310  0.0649 -0.2740
  786POPS   CNO11911   6.654  10.548   5.602 -0.1954 -0.3818 -0.0365
  786POPS   PO411912   6.205  10.579   5.568 -0.2824 -0.0546 -0.1011
  786POPS   GL111913   6.169  10.332   5.891  0.1134 -0.1134  0.3017
  786POPS   GL211914   6.538  10.194   6.003  0.2290  0.1006  0.3342
  786POPS   C1A11915   5.914  10.086   6.011 -0.0283  0.2466 -0.4318
  786POPS   D2A11916   5.578   9.997   6.227 -0.0561  0.0078 -0.2443
  786POPS   C3A11917   5.439   9.869   6.657  0.0723  0.2270  0.0043
  786POPS   C4A11918   5.482   9.905   7.114  0.3240  0.0381  0.0241
  786POPS   C1B11919   6.268   9.934   6.290 -0.2132 -0.0523 -0.0008
  786POPS   C2B11920   5.964  10.015   6.561  0.1500  0.1401  0.0216
  786POPS   C3B11921   5.689  10.255   6.866  0.0570  0.0439 -0.0875
  786POPS   C4B11922   5.707  10.358   7.269 -0.1160  0.1665  0.0728
  787POPS   CNO11923  14.352  16.436   5.059 -0.1971 -0.1419 -0.0562
  787POPS   PO411924  14.609  16.751   5.000  0.0276 -0.2071 -0.0417
  787POPS   GL111925  14.511  16.865   5.326  0.1322  0.2212 -0.0118
  787POPS   GL211926  14.207  16.780   5.468  0.0629  0.0964 -0.1450
  787POPS   C1A11927  14.580  16.938   5.719  0.1075  0.1337 -0.2402
  787POPS   D2A11928  14.477  17.085   6.098 -0.0440  0.1049 -0.0255
  787POPS   C3A11929  14.363  16.856   6.466 -0.1134  0.0093 -0.3250
  787POPS   C4A11930  14.566  16.987   6.889  0.3738 -0.2342  0.2001
  787POPS   C1B11931  14.072  16.918   5.809 -0.2149 -0.1791 -0.1754
  787POPS   C2B11932  13.992  16.873   6.150  0.4582 -0.1374 -0.2677
  787POPS   C3B11933  13.600  16.728   6.271  0.0265  0.0623 -0.2895
  787POPS   C4B11934  13.183  16.984   6.407 -0.0492 -0.0989  0.1516
  788POPS   CNO11935  14.107   1.660   4.874 -0.1020  0.4081  0.1850
  788POPS   PO411936  14.305   1.331   4.580  0.1855 -0.0207 -0.1818
  788POPS   GL111937  14.574   0.962   4.887 -0.0789  0.0964  0.0538
  788POPS   GL211938  14.467   0.590   4.961  0.1904  0.0026  0.2467
  788POPS   C1A11939  14.803   0.955   5.162 -0.0037  0.0007 -0.2423
  788POPS   D2A11940  14.790   1.085   5.596 -0.0248 -0.0271  0.0373
  788POPS   C3A11941  14.529   1.426   5.792 -0.1676 -0.1131 -0.3706
  788POPS   C4A11942  14.139   1.519   5.657 -0.3115 -0.3101 -0.3915
  788POPS   C1B11943  14.404   0.711   5.377 -0.2117 -0.1988 -0.2652
  788POPS   C2B11944  14.288   0.935   5.816  0.1410  0.0566 -0.0902
  788POPS   C3B11945  14.565   1.080   6.164  0.1664 -0.0568 -0.1874
  788POPS   C4B11946  14.631   1.330   6.492  0.1519 -0.0477 -0.3458
  789POPS   CNO11947   7.047   2.320   5.721  0.0736  0.5134 -0.0707
  789POPS   PO411948   6.703   2.237   5.863  0.0577  0.5089 -0.1302
  789POPS   GL111949   7.005   2.088   6.174 -0.1741 -0.5279  0.1422
  789POPS   GL211950   7.051   2.318   6.379 -0.1567  0.2310 -0.0639
  789POPS   C1A11951   7.147   1.879   6.524 -0.0511  0.0288 -0.0051
  789POPS   D2A11952   7.061   1.522   6.714  0.3995  0.1046 -0.1907
  789POPS   C3A11953   7.411   1.347   6.908 -0.0630  0.2278 -0.0156
  789POPS   C4A11954   7.800   1.297   7.105  0.1935  0.0659  0.5243
  789POPS   C1B11955   6.989   2.706   6.542  0.0714 -0.0197  0.3024
  789POPS   C2B11956   7.005   2.780   6.971  0.1815  0.0655 -0.0999
  789POPS   C3B11957   7.216   3.048   7.206  0.0530  0.1840 -0.2141
  789POPS   C4B11958   7.213   3.506   7.141 -0.0251  0.0225  0.0416
  790POPS   CNO11959  17.201  15.854   4.799  0.1056  0.1497  0.3301
  790POPS   PO411960  17.324  15.511   5.123 -0.1086 -0.0211  0.2878
  790POPS   GL111961  17.198  15.221   5.545 -0.3659  0.1197  0.1526
  790POPS   GL211962  16.813  15.244   5.535 -0.3092 -0.0161 -0.1742
  790POPS   C1A11963  17.164  14.936   5.901 -0.0311 -0.1583 -0.0549
  790POPS   D2A11964  17.388  14.932   6.143  0.0531 -0.0359 -0.1154
  790POPS   C3A11965  17.181  15.227   6.363  0.1427  0.1039 -0.0574
  790POPS   C4A11966  16.893  15.499   6.424 -0.2067 -0.1321  0.2420
  790POPS   C1B11967  16.689  15.658   5.589  0.0506 -0.0487  0.0322
  790POPS   C2B11968  16.689  15.841   6.027 -0.4531 -0.1340  0.1208
  790POPS   C3B11969  16.476  16.169   6.247 -0.1126 -0.1928 -0.2546
  790POPS   C4B11970  16.498  16.293   6.611  0.0835 -0.2820  0.1219
  791POPS   CNO11971   7.855  16.127   5.414  0.0894  0.0134 -0.2594
  791POPS   PO411972   8.221  15.942   5.216 -0.4318 -0.1706 -0.0292
  791POPS   GL111973   8.182  15.815   5.640  0.2481  0.0998 -0.0690
  791POPS   GL211974   8.007  15.479   5.780 -0.1004  0.0787  0.1698
  791POPS   C1A11975   8.116  16.165   5.881  0.1083  0.1333 -0.0612
  791POPS   D2A11976   7.903  16.515   5.934 -0.0176  0.4979 -0.0622
  791POPS   C3A11977   7.604  16.685   6.322  0.0017 -0.1176 -0.0571
  791POPS   C4A11978   7.587  16.803   6.697 -0.3781 -0.1628 -0.2428
  791POPS   C1B11979   8.103  15.632   6.127 -0.1588 -0.1280  0.4310
  791POPS   C2B11980   8.265  15.786   6.554 -0.0994  0.0902  0.0439
  791POPS   C3B11981   8.327  16.053   6.910 -0.1989 -0.1638  0.1484
  791POPS   C4B11982   8.521  16.373   6.626 -0.0623 -0.2751 -0.2005
  792POPS   CNO11983   0.106  16.307   4.957 -0.1239 -0.0506  0.1261
  792POPS   PO411984   0.117  15.904   5.002 -0.1252  0.0022  0.0870
  792POPS   GL111985   0.399  15.942   5.428 -0.1685  0.0246  0.1686
  792POPS   GL211986   0.036  15.973   5.512  0.0053  0.0145 -0.0130
  792POPS   C1A11987   0.595  15.889   5.788 -0.2642 -0.1674 -0.0416
  792POPS   D2A11988   0.649  16.285   6.164 -0.0996  0.0128  0.1905
  792POPS   C3A11989   0.910  16.301   6.568  0.2866 -0.2067 -0.0384
  792POPS   C4A11990   0.972  16.668   6.922  0.0392  0.0861  0.1077
  792POPS   C1B11991   0.119  15.681   5.780  0.0833  0.2210 -0.1741
  792POPS   C2B11992   0.060  15.361   6.017 -0.0553 -0.1947 -0.4079
  792POPS   C3B11993  -0.199  15.492   6.400  0.2083  0.3499 -0.2383
  792POPS   C4B11994  -0.418  15.476   6.907  0.0895  0.3072 -0.0051
  793POPS   CNO11995  11.183   3.163   5.633  0.0253 -0.0148 -0.2140
  793POPS   PO411996  11.482   3.177   5.375 -0.1347  0.2102  0.1162
  793POPS   GL111997  11.661   3.269   5.682  0.1469 -0.0133 -0.0819
  793POPS   GL211998  11.981   3.189   5.692 -0.1989 -0.3408  0.0916
  793POPS   C1A11999  11.678   3.294   6.107  0.1163 -0.1243  0.0692
  793POPS   D2A12000  11.704   3.377   6.580 -0.1576 -0.1262 -0.2462
  793POPS   C3A12001  11.320   3.375   6.830  0.0165 -0.2585 -0.1236
  793POPS   C4A12002  10.944   3.557   6.945  0.0436  0.1876 -0.1917
  793POPS   C1B12003  12.032   2.888   5.986  0.1443  0.3929 -0.1514
  793POPS   C2B12004  11.880   2.670   6.312 -0.1285 -0.0888  0.0775
  793POPS   C3B12005  11.882   2.302   6.516  0.0055  0.3971 -0.0287
  793POPS   C4B12006  12.203   2.034   6.748  0.4441 -0.0556 -0.0524
  794POPS   CNO12007  12.405  10.601   4.900  0.2870  0.0091 -0.2712
  794POPS   PO412008  12.708  10.668   5.277  0.1095  0.0788  0.2053
  794POPS   GL112009  12.804  10.491   5.724  0.1361  0.3733  0.0176
  794POPS   GL212010  13.063  10.433   5.673  0.0893  0.2450 -0.4495
  794POPS   C1A12011  12.627  10.411   6.176  0.2821  0.0988  0.0850
  794POPS   D2A12012  12.439  10.483   6.569 -0.1131  0.0471 -0.4747
  794POPS   C3A12013  12.721  10.468   6.949  0.0982  0.1564  0.2032
  794POPS   C4A12014  12.872  10.702   7.207 -0.2871 -0.0838  0.0836
  794POPS   C1B12015  13.133  10.441   6.127 -0.2440 -0.2412  0.3654
  794POPS   C2B12016  13.066  10.307   6.498 -0.2676 -0.1093  0.0122
  794POPS   C3B12017  12.816  10.042   6.689  0.0098 -0.0831 -0.1247
  794POPS   C4B12018  12.609   9.877   7.056  0.1457 -0.0653  0.3379
  795POPS   CNO12019  17.087   8.960   4.773 -0.1724  0.1748  0.1720
  795POPS   PO412020  17.328   8.599   4.914  0.2297  0.1812 -0.1262
  795POPS   GL112021  17.180   8.660   5.380 -0.2384  0.0402  0.0262
  795POPS   GL212022  17.292   8.880   5.691 -0.0883 -0.2518  0.3550
  795POPS   C1A12023  17.390   8.452   5.801 -0.0279  0.3363  0.0799
  795POPS   D2A12024  17.289   8.127   6.107 -0.0512  0.1078 -0.2729
  795POPS   C3A12025  17.743   7.981   6.211  0.0212 -0.1187 -0.0881
  795POPS   C4A12026  18.180   7.861   5.998 -0.0502 -0.0525 -0.2072
  795POPS   C1B12027  17.584   8.956   5.993  0.0578  0.1910  0.2556
  795POPS   C2B12028  17.771   8.922   6.352  0.0037  0.2015  0.2124
  795POPS   C3B12029  17.994   8.804   6.799 -0.3439  0.2592  0.1115
  795POPS   C4B12030  18.162   8.688   7.155 -0.1658  0.2123  0.1755
  796POPS   CNO12031  11.570  10.926   5.436 -0.4237  0.0966 -0.0414
  796POPS   PO412032  11.735  10.633   5.686 -0.0183  0.2475 -0.0334
  796POPS   GL112033  11.920  10.853   5.933  0.1201  0.0510 -0.1949
  796POPS   GL212034  11.753  11.129   5.964 -0.1856  0.1081 -0.5126
  796POPS   C1A12035  11.939  10.774   6.409 -0.1018 -0.2313  0.0719
  796POPS   D2A12036  12.145  10.885   6.758  0.0945  0.0169  0.1676
  796POPS   C3A12037  12.148  11.025   7.221 -0.1063 -0.0260  0.0782
  796POPS   C4A12038  11.854  11.127   7.638  0.3618 -0.2766 -0.2921
  796POPS   C1B12039  11.843  11.248   6.356 -0.0789  0.3920  0.0450
  796POPS   C2B12040  11.981  11.345   6.834  0.0490  0.1861  0.1378
  796POPS   C3B12041  12.232  11.547   6.960 -0.1170 -0.1268 -0.1257
  796POPS   C4B12042  12.169  11.838   7.250  0.2853  0.1744 -0.2954
  797POPS   CNO12043  12.550  11.499   5.004 -0.4907 -0.0166 -0.0591
  797POPS   PO412044  12.736  11.197   5.234  0.0120 -0.1087  0.3534
  797POPS   GL112045  12.380  11.447   5.512 -0.2000  0.1644  0.3310
  797POPS   GL212046  12.095  11.537   5.290 -0.0095 -0.2542 -0.1535
  797POPS   C1A12047  12.253  11.326   5.910  0.2911 -0.1161 -0.1714
  797POPS   D2A12048  12.334  11.092   6.225 -0.0078  0.1798 -0.2633
  797POPS   C3A12049  12.440  11.231   6.568  0.1704  0.1028 -0.0366
  797POPS   C4A12050  12.645  11.279   7.039  0.4699 -0.0043 -0.3400
  797POPS   C1B12051  12.413  11.982   5.347  0.0101  0.4218 -0.1279
  797POPS   C2B12052  12.675  12.296   5.688  0.2424 -0.1037 -0.3139
  797POPS   C3B12053  12.642  12.536   6.098  0.1264  0.0423  0.3132
  797POPS   C4B12054  12.764  12.881   6.345  0.0429  0.0561 -0.2795
  798POPS   CNO12055   8.269   6.243   5.859 -0.2733  0.1751 -0.1231
  798POPS   PO412056   8.167   6.595   6.091 -0.1340  0.0711  0.0209
  798POPS   GL112057   8.472   6.601   6.449  0.2637  0.2104  0.0500
  798POPS   GL212058   8.601   6.755   6.694 -0.0357  0.4272  0.0373
  798POPS   C1A12059   8.672   6.232   6.607 -0.0172  0.3424  0.5608
  798POPS   D2A12060   8.855   6.082   6.969  0.2758  0.1735  0.3836
  798POPS   C3A12061   8.677   6.105   7.367 -0.2517 -0.1071 -0.0061
  798POPS   C4A12062   8.282   6.229   7.569  0.1269  0.0986 -0.1929
  798POPS   C1B12063   8.386   6.471   6.938 -0.0147  0.0754 -0.0811
  798POPS   C2B12064   8.119   6.187   7.084 -0.4224 -0.0965 -0.0980
  798POPS   C3B12065   8.326   5.789   7.244  0.2478 -0.1232 -0.1077
  798POPS   C4B12066   8.690   5.580   7.297  0.1988 -0.1450  0.3122
  799POPS   CNO12067  10.591   0.076   5.182 -0.2266  0.2038 -0.2653
  799POPS   PO412068  10.565  -0.270   5.472 -0.0086  0.0527 -0.0442
  799POPS   GL112069  10.937  -0.242   5.751 -0.0106  0.1078 -0.3270
  799POPS   GL212070  10.706  -0.013   5.981  0.2763  0.1747  0.2166
  799POPS   C1A12071  11.170  -0.317   6.091 -0.2680 -0.1008  0.1864
  799POPS   D2A12072  11.187  -0.552   6.426 -0.2241  0.1968  0.1259
  799POPS   C3A12073  10.974  -0.687   6.825 -0.0367  0.0220 -0.0534
  799POPS   C4A12074  10.841  -1.095   7.024  0.1723 -0.2532  0.2661
  799POPS   C1B12075  10.904   0.021   6.260 -0.0976  0.1971 -0.0797
  799POPS   C2B12076  11.357   0.030   6.448 -0.2519 -0.0744 -0.3842
  799POPS   C3B12077  11.737   0.121   6.412 -0.0694  0.2414  0.2479
  799POPS   C4B12078  12.160   0.233   6.589  0.2033 -0.0297 -0.0429
  800POPS   CNO12079   5.874  12.704   5.460 -0.2543 -0.0961  0.2201
  800POPS   PO412080   5.448  12.708   5.502 -0.1708 -0.0269  0.1942
  800POPS   GL112081   5.731  12.850   5.905  0.1846 -0.2408  0.0619
  800POPS   GL212082   6.043  13.007   5.881 -0.3457  0.2761  0.0961
  800POPS   C1A12083   5.614  13.235   6.157  0.2512  0.1451  0.3520
  800POPS   D2A12084   5.229  13.361   6.174 -0.1217  0.3195  0.2086
  800POPS   C3A12085   5.220  13.520   6.507 -0.0506  0.2079 -0.1787
  800POPS   C4A12086   5.216  13.381   6.937 -0.1422 -0.3560 -0.0789
  800POPS   C1B12087   6.173  13.016   6.342  0.1426  0.3160 -0.0431
  800POPS   C2B12088   6.243  12.858   6.740  0.0607 -0.0287 -0.4628
  800POPS   C3B12089   6.160  12.727   7.227  0.0476 -0.0700  0.0215
  800POPS   C4B12090   6.115  12.347   7.289  0.0122 -0.0769  0.0744
  801POPS   CNO12091  11.443   1.372   5.952 -0.2947 -0.0533 -0.2677
  801POPS   PO412092  11.164   1.307   5.544 -0.2560 -0.3322  0.0401
  801POPS   GL112093  11.075   1.010   5.776  0.0392  0.0418 -0.1839
  801POPS   GL212094  11.176   0.713   5.734 -0.0508  0.2227 -0.0722
  801POPS   C1A12095  10.801   0.639   6.084 -0.0310 -0.4429 -0.3264
  801POPS   D2A12096  10.755   0.499   6.512  0.0057 -0.4184 -0.1616
  801POPS   C3A12097  10.555   0.366   6.817 -0.1009 -0.1885  0.0788
  801POPS   C4A12098  10.403  -0.059   7.076  0.0744 -0.2371 -0.1520
  801POPS   C1B12099  11.308   0.727   6.225 -0.1249  0.1490  0.0560
  801POPS   C2B12100  11.481   0.581   6.589  0.0698 -0.0905  0.1053
  801POPS   C3B12101  11.606   0.332   6.811  0.0488 -0.2649  0.3846
  801POPS   C4B12102  11.690   0.103   7.099  0.1222  0.2406 -0.0800
  802POPS   CNO12103   3.924  18.784   5.376 -0.2005 -0.4208  0.2705
  802POPS   PO412104   4.351  18.864   5.360  0.1859 -0.4122  0.0043
  802POPS   GL112105   4.300  18.861   5.802  0.0096 -0.0147  0.1084
  802POPS   GL212106   4.407  18.508   5.989  0.0650  0.1101  0.0095
  802POPS   C1A12107   4.300  19.140   6.054  0.3811 -0.0530 -0.3181
  802POPS   D2A12108   4.244  19.313   6.512 -0.3105 -0.0455  0.0492
  802POPS   C3A12109   3.976  19.251   6.778  0.4260  0.0070 -0.3045
  802POPS   C4A12110   3.749  19.142   7.072  0.2291 -0.2907  0.0009
  802POPS   C1B12111   4.203  18.680   6.390 -0.1223 -0.0716 -0.0962
  802POPS   C2B12112   4.220  18.869   6.805 -0.5083 -0.0456 -0.1963
  802POPS   C3B12113   3.955  18.648   7.175 -0.0245  0.0640  0.2115
  802POPS   C4B12114   3.541  18.614   7.068  0.0064 -0.3178 -0.1899
  803YOPS   CNO12115  10.673   4.968   5.699  0.0919  0.0455 -0.0763
  803YOPS   PO412116  11.002   4.865   5.620 -0.4281  0.2399  0.1591
  803YOPS   GL112117  11.014   4.654   6.090 -0.0359  0.5189  0.5418
  803YOPS   GL212118  10.924   4.928   6.127 -0.2254 -0.0360 -0.0544
  803YOPS   C1A12119  10.723   4.610   6.491  0.0822  0.0169 -0.0901
  803YOPS   D2A12120  10.594   4.529   6.835  0.1359  0.2636 -0.0894
  803YOPS   C3A12121  10.815   4.466   7.299  0.2325  0.0425 -0.4393
  803YOPS   C4A12122  11.230   4.511   7.301 -0.1233 -0.1728  0.1502
  803YOPS   C1B12123  11.185   5.002   6.516  0.1462  0.1966  0.0977
  803YOPS   C2B12124  11.512   4.948   6.793 -0.0184  0.1531 -0.2034
  803YOPS   D3B12125  11.757   5.191   7.057 -0.2321  0.1879  0.0819
  803YOPS   C4B12126  12.045   4.985   7.162  0.0868 -0.0491 -0.2127
  804YOPS   CNO12127  13.550   1.715   4.859 -0.1817  0.0323 -0.1543
  804YOPS   PO412128  13.312   1.704   5.236  0.3534  0.1149 -0.1010
  804YOPS   GL112129  13.414   1.670   5.598  0.1292  0.2316  0.2165
  804YOPS   GL212130  13.212   1.468   5.884 -0.0615 -0.1505 -0.3951
  804YOPS   C1A12131  13.698   1.637   5.950  0.0185  0.1338 -0.0309
  804YOPS   D2A12132  13.797   1.646   6.481 -0.2387 -0.1809  0.2786
  804YOPS   C3A12133  13.756   1.709   6.952  0.0736 -0.1974 -0.0071
  804YOPS   C4A12134  13.376   1.948   7.003 -0.0003 -0.2905 -0.0388
  804YOPS   C1B12135  13.521   1.310   6.265 -0.3604  0.1621  0.1496
  804YOPS   C2B12136  13.612   1.212   6.659 -0.2198 -0.2587 -0.0571
  804YOPS   D3B12137  13.574   1.157   7.116  0.3337  0.0535  0.2898
  804YOPS   C4B12138  13.558   1.438   7.402  0.0594 -0.1626 -0.1242
  805YOPS   CNO12139   4.782   1.948   5.837 -0.1301 -0.3381  0.2133
  805YOPS   PO412140   5.095   1.700   5.865 -0.1623 -0.0849 -0.1912
  805YOPS   GL112141   5.300   1.703   6.265  0.0129 -0.2266  0.1265
  805YOPS   GL212142   5.686   1.756   6.375  0.1792 -0.0491  0.3302
  805YOPS   C1A12143   5.161   1.844   6.682  0.4669 -0.0418 -0.1119
  805YOPS   D2A12144   5.147   2.116   7.101 -0.1100  0.0781 -0.0388
  805YOPS   C3A12145   5.188   2.548   7.429  0.0825  0.0875  0.1539
  805YOPS   C4A12146   5.206   2.442   7.875  0.4867 -0.1686  0.2038
  805YOPS   C1B12147   5.753   1.463   6.685  0.2087 -0.3164 -0.2937
  805YOPS   C2B12148   5.565   1.185   6.902  0.2428  0.1614  0.1172
  805YOPS   D3B12149   5.323   0.753   6.975 -0.3981 -0.0629  0.1864
  805YOPS   C4B12150   5.601   0.318   7.031  0.0692 -0.0291 -0.2785
  806YOPS   CNO12151  16.881   0.579   4.484  0.0640 -0.0334  0.0676
  806YOPS   PO412152  16.803   0.952   4.853  0.0897 -0.0012  0.1936
  806YOPS   GL112153  17.135   0.859   5.195  0.1071  0.0890 -0.2434
  806YOPS   GL212154  16.988   0.935   5.396  0.4026  0.2024 -0.1287
  806YOPS   C1A12155  17.172   0.426   5.365 -0.1563 -0.0791  0.4594
  806YOPS   D2A12156  17.418   0.138   5.528 -0.3352  0.5027  0.0421
  806YOPS   C3A12157  17.654  -0.020   5.775  0.1811  0.0108  0.3033
  806YOPS   C4A12158  17.531  -0.396   6.084  0.0188  0.0402 -0.1237
  806YOPS   C1B12159  16.479   1.038   5.551  0.0207  0.0050  0.0227
  806YOPS   C2B12160  16.277   0.820   5.573 -0.1936 -0.1577  0.1586
  806YOPS   D3B12161  16.043   0.514   5.863 -0.2567  0.1332  0.3960
  806YOPS   C4B12162  16.303   0.555   6.216  0.3128  0.2571  0.1297
  807YOPS   CNO12163  16.000  17.161   4.568 -0.0678  0.0243  0.0841
  807YOPS   PO412164  15.667  17.016   4.805 -0.0852 -0.0712 -0.1867
  807YOPS   GL112165  15.514  17.256   5.248 -0.0742  0.1926 -0.1509
  807YOPS   GL212166  15.443  17.168   5.555 -0.0473 -0.1288 -0.0285
  807YOPS   C1A12167  15.324  17.681   5.482 -0.2330 -0.0367  0.2392
  807YOPS   D2A12168  15.151  17.900   5.842 -0.0027 -0.1407 -0.1446
  807YOPS   C3A12169  14.756  17.667   6.082  0.0765  0.0398  0.1145
  807YOPS   C4A12170  14.502  17.994   6.324 -0.0773 -0.1123  0.0167
  807YOPS   C1B12171  15.484  17.060   6.020  0.1086  0.0881  0.3366
  807YOPS   C2B12172  15.323  17.338   6.387 -0.0606 -0.3045  0.1349
  807YOPS   D3B12173  15.344  17.628   6.803  0.0082 -0.2651 -0.1734
  807YOPS   C4B12174  15.460  18.005   6.809 -0.3063 -0.3200 -0.3481
  808YOPS   CNO12175  18.040   6.511   5.741 -0.1868 -0.2982 -0.0269
  808YOPS   PO412176  18.091   6.187   5.730 -0.2590  0.2135 -0.1596
  808YOPS   GL112177  18.177   5.834   6.043 -0.3946 -0.3787 -0.0568
  808YOPS   GL212178  18.131   5.888   6.385 -0.0685 -0.0079  0.1900
  808YOPS   C1A12179  18.502   5.430   6.109 -0.0575 -0.2845  0.1250
  808YOPS   D2A12180  18.671   5.104   6.187  0.4265  0.1481  0.1134
  808YOPS   C3A12181  18.745   4.623   6.174 -0.0074 -0.0034  0.3394
  808YOPS   C4A12182  18.432   4.294   6.306  0.0776  0.2672 -0.3200
  808YOPS   C1B12183  18.410   5.702   6.642  0.0266  0.0485  0.1970
  808YOPS   C2B12184  18.506   5.218   6.664 -0.3055 -0.1753  0.2805
  808YOPS   D3B12185  18.721   4.957   6.816 -0.2021 -0.1439  0.3229
  808YOPS   C4B12186  18.852   5.022   7.266  0.0781  0.0196  0.1349
  809YOPS   CNO12187  17.031   6.059   5.085  0.1058 -0.2022 -0.2404
  809YOPS   PO412188  16.875   5.863   5.467  0.0659 -0.0574 -0.0690
  809YOPS   GL112189  16.890   5.633   5.917  0.0328  0.3256 -0.1475
  809YOPS   GL212190  16.976   5.249   5.837  0.0439  0.1569 -0.2295
  809YOPS   C1A12191  16.738   5.365   6.283  0.1632 -0.2460  0.2835
  809YOPS   D2A12192  16.842   4.983   6.395 -0.0920 -0.0687 -0.2724
  809YOPS   C3A12193  17.136   4.718   6.472 -0.0996 -0.0979 -0.3976
  809YOPS   C4A12194  17.355   4.367   6.750 -0.0307 -0.4370 -0.0327
  809YOPS   C1B12195  17.264   5.130   6.199  0.2727  0.1230  0.1195
  809YOPS   C2B12196  17.416   5.324   6.597  0.0401  0.4544  0.1593
  809YOPS   D3B12197  17.542   5.400   7.025  0.2561 -0.3340 -0.0973
  809YOPS   C4B12198  17.722   5.057   7.351  0.1308  0.3957 -0.1753
  810YOPS   CNO12199  11.964   4.475   4.952 -0.0758 -0.1597  0.0962
  810YOPS   PO412200  12.023   4.273   5.434  0.2072 -0.1592  0.0549
  810YOPS   GL112201  11.967   4.389   5.926  0.1577 -0.0279  0.2437
  810YOPS   GL212202  11.743   4.245   5.847 -0.0639  0.2432 -0.0849
  810YOPS   C1A12203  11.869   4.359   6.382  0.1373  0.2953  0.2113
  810YOPS   D2A12204  11.922   4.563   6.840 -0.1089  0.0183  0.1488
  810YOPS   C3A12205  11.759   4.609   7.256  0.2608  0.0491  0.1640
  810YOPS   C4A12206  11.784   4.871   7.635 -0.0858  0.1634 -0.0482
  810YOPS   C1B12207  11.504   4.457   6.058 -0.1031  0.1397  0.2642
  810YOPS   C2B12208  11.543   4.719   6.334 -0.4543 -0.0065  0.6504
  810YOPS   D3B12209  11.601   5.251   6.339 -0.3843  0.1473 -0.2924
  810YOPS   C4B12210  11.822   5.501   6.651 -0.0962  0.0725 -0.2344
  811YOPS   CNO12211   3.097  17.816   5.117  0.0746 -0.2808 -0.1360
  811YOPS   PO412212   3.127  18.179   5.371  0.0459  0.2584 -0.1421
  811YOPS   GL112213   3.039  18.201   5.758 -0.2466  0.3015 -0.3453
  811YOPS   GL212214   3.008  18.546   5.969 -0.0321 -0.2255 -0.0101
  811YOPS   C1A12215   2.731  17.873   5.915 -0.1079  0.1766 -0.1241
  811YOPS   D2A12216   2.470  17.530   6.038  0.2105  0.2269  0.2181
  811YOPS   C3A12217   2.297  17.271   6.279  0.1106 -0.2469  0.0829
  811YOPS   C4A12218   1.947  17.389   6.628 -0.1143 -0.1979 -0.2698
  811YOPS   C1B12219   2.978  18.813   6.386 -0.0575  0.2676 -0.0124
  811YOPS   C2B12220   2.585  18.915   6.614  0.0638  0.0839  0.1008
  811YOPS   D3B12221   2.491  19.142   7.083 -0.3175  0.1728 -0.0783
  811YOPS   C4B12222   2.781  19.254   7.456  0.0897 -0.2097 -0.1069
  812YOPS   CNO12223   4.507  17.037   5.244 -0.0475  0.0650 -0.2302
  812YOPS   PO412224   4.474  17.342   5.567 -0.0651  0.0763  0.1701
  812YOPS   GL112225   4.174  17.131   5.840 -0.3273  0.1785 -0.0139
  812YOPS   GL212226   4.336  16.978   5.896  0.0646  0.1438 -0.3890
  812YOPS   C1A12227   4.049  17.317   6.175  0.1093 -0.2413  0.2006
  812YOPS   D2A12228   4.086  17.412   6.505 -0.0734 -0.0204 -0.2142
  812YOPS   C3A12229   4.138  17.440   6.984 -0.0543  0.0706 -0.0638
  812YOPS   C4A12230   4.440  17.425   7.304  0.0235 -0.0175 -0.2751
  812YOPS   C1B12231   4.233  16.845   6.347  0.0315  0.1181 -0.2783
  812YOPS   C2B12232   4.503  16.601   6.659 -0.0815 -0.1219 -0.3012
  812YOPS   D3B12233   4.739  16.336   6.849  0.2973 -0.0376  0.3859
  812YOPS   C4B12234   4.922  16.293   7.321  0.0782 -0.1715 -0.2593
  813YOPS   CNO12235   5.473  14.711   5.077  0.0156 -0.2546 -0.1325
  813YOPS   PO412236   5.871  14.681   5.114 -0.1279  0.0152  0.1642
  813YOPS   GL112237   5.893  14.669   5.645  0.1180 -0.0365  0.0301
  813YOPS   GL212238   6.238  14.764   5.649 -0.0447 -0.0702  0.0276
  813YOPS   C1A12239   6.036  14.545   6.080  0.2357  0.0532 -0.1592
  813YOPS   D2A12240   6.443  14.456   6.137 -0.2589  0.1419 -0.2189
  813YOPS   C3A12241   6.806  14.673   6.184  0.1841 -0.1977  0.0050
  813YOPS   C4A12242   6.800  14.687   6.636  0.1058  0.2583  0.1681
  813YOPS   C1B12243   6.369  14.889   6.032  0.3345  0.0152 -0.3051
  813YOPS   C2B12244   6.344  14.925   6.430  0.0852  0.3304  0.0523
  813YOPS   D3B12245   6.304  15.208   6.868 -0.0197  0.1241  0.2077
  813YOPS   C4B12246   6.501  15.078   7.275  0.2166  0.0420  0.1302
  814YOPS   CNO12247  18.824  15.061   5.284  0.2176 -0.2670 -0.0010
  814YOPS   PO412248  18.363  15.287   5.442 -0.0783 -0.0772 -0.3066
  814YOPS   GL112249  18.563  15.323   5.836  0.0382  0.1357 -0.1569
  814YOPS   GL212250  18.872  15.350   5.801  0.2106 -0.0308 -0.1200
  814YOPS   C1A12251  18.635  15.648   6.249 -0.0267 -0.2743 -0.3590
  814YOPS   D2A12252  18.648  15.947   6.514 -0.1555 -0.0903  0.3203
  814YOPS   C3A12253  18.583  16.018   6.937  0.1510 -0.2660  0.0269
  814YOPS   C4A12254  18.773  16.003   7.256 -0.0438  0.2071 -0.0647
  814YOPS   C1B12255  18.942  15.053   6.202  0.1786 -0.2377  0.0269
  814YOPS   C2B12256  19.307  15.008   6.476  0.2911 -0.0741  0.1078
  814YOPS   D3B12257  19.599  15.167   6.454  0.0255 -0.4139  0.0189
  814YOPS   C4B12258  19.880  15.192   6.620 -0.1397 -0.0843 -0.0259
  815YOPS   CNO12259  15.082   0.266   4.336 -0.3187 -0.0790  0.0463
  815YOPS   PO412260  14.891   0.466   4.666 -0.7104  0.1723 -0.0574
  815YOPS   GL112261  14.958   0.480   5.170 -0.3925  0.1230  0.0020
  815YOPS   GL212262  15.056   0.177   5.228  0.1159  0.0842 -0.5987
  815YOPS   C1A12263  15.097   0.572   5.533 -0.0404 -0.0956  0.3412
  815YOPS   D2A12264  15.103   0.764   5.956  0.3989 -0.2231  0.1061
  815YOPS   C3A12265  15.017   1.172   6.015  0.1287  0.0314 -0.2059
  815YOPS   C4A12266  15.059   1.476   6.379  0.1360 -0.0361 -0.1228
  815YOPS   C1B12267  15.193  -0.004   5.662 -0.1642 -0.1018 -0.1772
  815YOPS   C2B12268  15.323   0.330   6.013 -0.1320  0.2481 -0.0635
  815YOPS   D3B12269  15.265   0.491   6.367 -0.1109  0.1784 -0.1034
  815YOPS   C4B12270  15.460   0.348   6.795 -0.1208 -0.2298  0.1309
  816YOPS   CNO12271  12.523   1.059   5.505 -0.4069 -0.3016 -0.1661
  816YOPS   PO412272  12.845   0.874   5.136  0.2249 -0.3002  0.1297
  816YOPS   GL112273  12.852   0.715   5.566 -0.5153  0.2701  0.4847
  816YOPS   GL212274  13.141   0.918   5.784 -0.3032  0.3426  0.1854
  816YOPS   C1A12275  12.700   0.411   5.823  0.1747 -0.1329 -0.1709
  816YOPS   D2A12276  12.421   0.460   6.201  0.0401  0.1830  0.2839
  816YOPS   C3A12277  12.395   0.691   6.506  0.2113 -0.1206  0.0346
  816YOPS   C4A12278  11.982   0.711   6.592 -0.3073 -0.1950  0.5358
  816YOPS   C1B12279  13.322   0.720   5.977 -0.0015  0.0891  0.0565
  816YOPS   C2B12280  13.681   0.823   6.264  0.1326 -0.2355 -0.2921
  816YOPS   D3B12281  13.912   0.490   6.564  0.2467  0.0077  0.0415
  816YOPS   C4B12282  14.279   0.169   6.589 -0.2256 -0.1577 -0.3652
  817YOPS   CNO12283   6.381  18.052   4.963  0.2117 -0.3148  0.4156
  817YOPS   PO412284   6.328  17.671   5.247  0.2160  0.1630 -0.1493
  817YOPS   GL112285   6.461  17.762   5.760  0.0392 -0.4098  0.3479
  817YOPS   GL212286   6.105  17.722   5.846 -0.1721 -0.1377  0.3555
  817YOPS   C1A12287   6.777  18.014   5.935 -0.2954  0.0490  0.0225
  817YOPS   D2A12288   7.181  18.019   6.101 -0.0378  0.2956 -0.4750
  817YOPS   C3A12289   7.635  17.974   6.030 -0.1979  0.0254  0.0765
  817YOPS   C4A12290   7.952  18.176   6.392  0.0468 -0.1833  0.1734
  817YOPS   C1B12291   6.124  17.648   6.239  0.0730  0.0122  0.1807
  817YOPS   C2B12292   6.278  17.371   6.545 -0.1641  0.2764 -0.0139
  817YOPS   D3B12293   6.434  17.419   6.965 -0.0606 -0.1670 -0.1571
  817YOPS   C4B12294   6.308  17.171   7.302 -0.2986 -0.1941  0.4442
  818YOPS   CNO12295  16.140   6.493   6.013 -0.1441 -0.1695  0.0360
  818YOPS   PO412296  16.420   6.489   5.713  0.1608  0.3187  0.2090
  818YOPS   GL112297  16.638   6.410   6.111  0.0369 -0.3329  0.2331
  818YOPS   GL212298  16.780   6.173   6.022 -0.2691 -0.1214  0.1907
  818YOPS   C1A12299  16.336   6.227   6.363  0.2287 -0.2729  0.2481
  818YOPS   D2A12300  15.843   6.168   6.507  0.0499  0.1298  0.1290
  818YOPS   C3A12301  15.445   6.076   6.402  0.1490  0.0833 -0.0233
  818YOPS   C4A12302  15.285   5.770   6.554 -0.0110  0.3358 -0.0784
  818YOPS   C1B12303  16.792   6.111   6.446 -0.0509 -0.1869 -0.1666
  818YOPS   C2B12304  16.674   6.315   6.742  0.1167  0.1611  0.1379
  818YOPS   D3B12305  16.398   6.372   6.976  0.0231 -0.4510  0.0340
  818YOPS   C4B12306  16.390   6.668   7.348  0.1553  0.0818  0.3049
  819YOPS   CNO12307   4.377  14.941   5.401 -0.2385 -0.3809  0.0511
  819YOPS   PO412308   3.981  14.669   5.258 -0.0494  0.2175 -0.3275
  819YOPS   GL112309   4.085  14.589   5.678 -0.2028  0.3150 -0.1804
  819YOPS   GL212310   3.939  14.287   5.928 -0.0995 -0.2190 -0.0677
  819YOPS   C1A12311   4.234  14.727   6.027 -0.1325  0.1419  0.1398
  819YOPS   D2A12312   4.097  15.019   6.260 -0.2781  0.0242  0.1529
  819YOPS   C3A12313   4.134  15.044   6.771 -0.2476  0.1079  0.1772
  819YOPS   C4A12314   3.777  15.084   6.884  0.2017 -0.4276  0.2109
  819YOPS   C1B12315   4.005  14.442   6.330  0.2839  0.0508  0.2079
  819YOPS   C2B12316   3.876  14.503   6.725 -0.3984  0.0774  0.0857
  819YOPS   D3B12317   4.091  14.642   7.049  0.1563  0.2558  0.2637
  819YOPS   C4B12318   4.187  15.061   7.319  0.2761  0.1838  0.2373
  820YOPS   CNO12319   8.562   7.482   6.105  0.1627 -0.2002  0.2077
  820YOPS   PO412320   8.160   7.600   5.919 -0.4778 -0.0982  0.1004
  820YOPS   GL112321   8.060   7.790   6.371 -0.0484  0.1970 -0.0474
  820YOPS   GL212322   8.259   7.593   6.551  0.2615 -0.1866  0.0424
  820YOPS   C1A12323   7.929   7.835   6.884 -0.3991 -0.2813 -0.2019
  820YOPS   D2A12324   8.111   7.736   7.312  0.1528 -0.0329  0.3066
  820YOPS   C3A12325   8.093   7.566   7.677  0.3123 -0.0214 -0.4274
  820YOPS   C4A12326   8.382   7.605   7.980  0.1814  0.2083 -0.1115
  820YOPS   C1B12327   8.666   7.308   6.599  0.0724 -0.2764 -0.2146
  820YOPS   C2B12328   9.017   7.568   6.836 -0.3157  0.2147 -0.0351
  820YOPS   D3B12329   9.421   7.253   7.044  0.0793  0.3896  0.0516
  820YOPS   C4B12330   9.799   7.376   6.815 -0.0233  0.1905 -0.0699
  821YOPS   CNO12331   3.984   0.914   5.618  0.0604  0.0540 -0.0312
  821YOPS   PO412332   4.395   0.736   5.679  0.0083 -0.3166 -0.1082
  821YOPS   GL112333   4.347   0.865   6.058  0.0617  0.0633  0.0799
  821YOPS   GL212334   4.562   0.962   6.198 -0.1018  0.1249 -0.2896
  821YOPS   C1A12335   4.082   0.912   6.403  0.0602 -0.2211 -0.3404
  821YOPS   D2A12336   3.827   0.518   6.672 -0.2885  0.0402 -0.0212
  821YOPS   C3A12337   3.685   0.327   7.040 -0.4120 -0.0259 -0.0935
  821YOPS   C4A12338   3.878   0.454   7.344 -0.1110  0.0879 -0.1718
  821YOPS   C1B12339   4.519   1.211   6.471 -0.1312 -0.2552  0.0944
  821YOPS   C2B12340   4.524   1.349   6.955 -0.0201 -0.0608 -0.0223
  821YOPS   D3B12341   4.301   1.396   7.355  0.0371  0.0636 -0.1886
  821YOPS   C4B12342   4.597   1.312   7.762 -0.4551 -0.0039 -0.0129
  822YOPS   CNO12343  10.191  15.855   5.514 -0.1691 -0.1378 -0.0917
  822YOPS   PO412344  10.594  16.011   5.533 -0.1903 -0.0411 -0.0878
  822YOPS   GL112345  10.579  15.613   5.893  0.2592  0.0573  0.0744
  822YOPS   GL212346  10.623  15.296   5.798  0.2328 -0.0554  0.1413
  822YOPS   C1A12347  10.544  15.557   6.357 -0.1985  0.0929  0.0577
  822YOPS   D2A12348  10.400  15.378   6.708 -0.2051 -0.2516  0.1634
  822YOPS   C3A12349  10.093  15.503   6.986  0.0233  0.0371  0.0525
  822YOPS   C4A12350   9.981  15.234   7.378 -0.1919 -0.0859 -0.0887
  822YOPS   C1B12351  10.597  15.103   6.160  0.2540 -0.1005 -0.0453
  822YOPS   C2B12352  10.638  14.962   6.640 -0.1564  0.1479 -0.0171
  822YOPS   D3B12353  10.585  15.076   7.074  0.1072  0.1037 -0.0381
  822YOPS   C4B12354  10.922  15.263   7.191 -0.3215  0.1616  0.1676
  823YOPS   CNO12355   3.231   1.267   5.720 -0.1360 -0.4145 -0.1046
  823YOPS   PO412356   3.487   0.961   5.854  0.1515  0.1462  0.1628
  823YOPS   GL112357   3.220   0.692   6.162 -0.1057  0.0373 -0.0644
  823YOPS   GL212358   2.926   0.450   5.993 -0.1135  0.0690  0.2319
  823YOPS   C1A12359   3.169   0.397   6.551  0.1306 -0.0290  0.1757
  823YOPS   D2A12360   3.250   0.483   6.995  0.0195 -0.0512 -0.0756
  823YOPS   C3A12361   3.328   0.024   7.306  0.3644  0.1059 -0.0045
  823YOPS   C4A12362   3.474   0.296   7.585 -0.3396  0.1240  0.0215
  823YOPS   C1B12363   2.720   0.568   6.428 -0.0248 -0.0586  0.0537
  823YOPS   C2B12364   2.484   0.905   6.628 -0.0905  0.1381 -0.1049
  823YOPS   D3B12365   2.197   1.112   6.751  0.2649 -0.2330  0.2314
  823YOPS   C4B12366   2.280   1.553   6.823 -0.0010  0.0294  0.0359
  824YOPS   CNO12367  12.851   7.707   5.966  0.2349 -0.0133 -0.2538
  824YOPS   PO412368  13.132   7.725   5.666 -0.1992 -0.1042  0.2297
  824YOPS   GL112369  13.365   7.862   5.870  0.0193 -0.1652  0.2730
  824YOPS   GL212370  13.396   8.094   6.054 -0.0493 -0.3908 -0.0387
  824YOPS   C1A12371  13.867   7.730   6.117 -0.1519 -0.0123 -0.0262
  824YOPS   D2A12372  14.379   7.620   6.178 -0.1740 -0.1416  0.2464
  824YOPS   C3A12373  14.756   7.757   6.096 -0.0398  0.1120 -0.0853
  824YOPS   C4A12374  14.875   8.176   6.287 -0.3077  0.2072 -0.1340
  824YOPS   C1B12375  13.590   8.381   6.372  0.1600  0.3249  0.1549
  824YOPS   C2B12376  13.827   8.470   6.781  0.0839  0.1998  0.2997
  824YOPS   D3B12377  14.120   8.662   6.969  0.1638  0.2132  0.0873
  824YOPS   C4B12378  14.545   8.475   6.926 -0.0418  0.1473 -0.1238
  825YOPS   CNO12379   2.110   0.532   5.423  0.0706 -0.1347  0.0146
  825YOPS   PO412380   2.069   0.054   5.432 -0.1120 -0.4198  0.0223
  825YOPS   GL112381   2.186  -0.040   5.742 -0.2499  0.1202  0.0025
  825YOPS   GL212382   2.553   0.012   5.839  0.0298  0.0263 -0.2410
  825YOPS   C1A12383   2.173  -0.272   6.098  0.1923 -0.2809 -0.1060
  825YOPS   D2A12384   2.106  -0.417   6.425 -0.2291 -0.1548  0.0226
  825YOPS   C3A12385   2.058  -0.634   6.767 -0.1512 -0.0395 -0.2233
  825YOPS   C4A12386   1.637  -0.646   6.950 -0.0768 -0.2520 -0.0915
  825YOPS   C1B12387   2.468   0.183   6.374  0.2260  0.0537 -0.1367
  825YOPS   C2B12388   2.388   0.364   6.752  0.3611  0.1478 -0.0975
  825YOPS   D3B12389   2.327   0.705   7.086  0.4473 -0.0678  0.2142
  825YOPS   C4B12390   2.572   1.152   7.095  0.1696  0.1020 -0.0481
  826YOPS   CNO12391   7.747  13.398   5.431 -0.1101 -0.0621  0.0333
  826YOPS   PO412392   7.387  13.273   5.758 -0.2535  0.0810  0.1316
  826YOPS   GL112393   7.768  13.116   5.920 -0.2026 -0.0106  0.0606
  826YOPS   GL212394   7.658  12.862   6.089  0.1273  0.0397  0.2296
  826YOPS   C1A12395   8.169  12.962   6.194 -0.2137 -0.0733  0.0999
  826YOPS   D2A12396   8.461  13.156   6.434  0.0001  0.1918  0.0385
  826YOPS   C3A12397   8.417  13.570   6.671  0.1360 -0.2779  0.0338
  826YOPS   C4A12398   8.069  13.882   6.637 -0.0302  0.5037 -0.0564
  826YOPS   C1B12399   7.423  12.742   6.414  0.1918  0.0398 -0.1242
  826YOPS   C2B12400   7.290  12.695   6.825  0.1754 -0.3848 -0.3691
  826YOPS   D3B12401   7.346  12.815   7.347 -0.3287 -0.1697 -0.2669
  826YOPS   C4B12402   7.080  12.967   7.700  0.3010 -0.3795 -0.0347
  827YOPS   CNO12403   3.790  13.767   5.457  0.0891 -0.1741 -0.1075
  827YOPS   PO412404   3.848  13.296   5.366 -0.0744  0.1374 -0.1834
  827YOPS   GL112405   4.004  13.147   5.714  0.1739 -0.2017 -0.0227
  827YOPS   GL212406   3.971  12.844   5.744 -0.1273  0.0083  0.4945
  827YOPS   C1A12407   4.234  13.234   6.131  0.2441 -0.1361  0.1140
  827YOPS   D2A12408   4.319  13.099   6.520 -0.0390  0.0501  0.0394
  827YOPS   C3A12409   4.400  13.066   6.965 -0.2428  0.1810 -0.2023
  827YOPS   C4A12410   4.728  13.272   7.218  0.1837 -0.2258 -0.1838
  827YOPS   C1B12411   4.038  12.788   6.242 -0.3930 -0.2058 -0.0888
  827YOPS   C2B12412   4.020  12.791   6.707 -0.0548  0.2139  0.1764
  827YOPS   D3B12413   3.989  12.881   7.122  0.0013 -0.3284 -0.2801
  827YOPS   C4B12414   3.884  12.630   7.433  0.3126 -0.1007 -0.1897
  828YOPS   CNO12415   2.127   4.124   5.449  0.0692 -0.1017  0.2747
  828YOPS   PO412416   2.681   4.071   5.503  0.4325  0.3540  0.1808
  828YOPS   GL112417   2.542   4.007   5.852  0.0659 -0.1566  0.1081
  828YOPS   GL212418   2.715   4.355   5.975  0.3624  0.1785  0.0275
  828YOPS   C1A12419   2.429   3.976   6.298 -0.0183 -0.2223 -0.0909
  828YOPS   D2A12420   2.221   3.948   6.609 -0.2400 -0.0063 -0.0039
  828YOPS   C3A12421   1.908   3.693   6.923 -0.1158  0.1231 -0.3089
  828YOPS   C4A12422   2.012   3.433   7.248 -0.0020  0.4059  0.1827
  828YOPS   C1B12423   2.299   4.440   6.175  0.0366  0.4005  0.2306
  828YOPS   C2B12424   1.756   4.432   6.285 -0.0260  0.2338  0.3303
  828YOPS   D3B12425   1.558   4.627   6.684  0.0265 -0.2514 -0.0532
  828YOPS   C4B12426   1.732   4.696   6.987 -0.2787 -0.1935  0.1617
  829YOPS   CNO12427   9.341   1.342   5.179  0.1330 -0.0106 -0.0029
  829YOPS   PO412428   9.252   1.015   5.439  0.0867 -0.0049 -0.2080
  829YOPS   GL112429   9.287   0.612   5.694 -0.0142 -0.1294  0.0320
  829YOPS   GL212430   9.620   0.584   5.701 -0.0994  0.0630  0.1764
  829YOPS   C1A12431   9.259   0.173   5.797 -0.1340  0.2429 -0.0129
  829YOPS   D2A12432   9.443  -0.133   6.049 -0.0970 -0.0785  0.1721
  829YOPS   C3A12433   9.420  -0.397   6.330  0.0359  0.0385 -0.1488
  829YOPS   C4A12434   9.467  -0.162   6.705 -0.3307  0.1180 -0.1406
  829YOPS   C1B12435   9.493   0.380   6.150 -0.4692 -0.0158  0.0895
  829YOPS   C2B12436   9.203   0.161   6.381 -0.0115 -0.1976 -0.0204
  829YOPS   D3B12437   8.924  -0.053   6.473 -0.2379 -0.0978  0.1285
  829YOPS   C4B12438   9.019   0.073   6.908  0.2776  0.0479 -0.0252
  830YOPS   CNO12439  11.821  13.067   4.671  0.2010 -0.0508  0.0753
  830YOPS   PO412440  12.020  13.286   5.013  0.0616  0.1276  0.0137
  830YOPS   GL112441  12.082  13.347   5.453 -0.2221  0.0960 -0.1362
  830YOPS   GL212442  11.859  13.105   5.564 -0.2024  0.0272  0.1283
  830YOPS   C1A12443  11.998  13.545   5.912 -0.1580  0.1876  0.1509
  830YOPS   D2A12444  11.780  13.821   6.281 -0.0597 -0.1777 -0.2301
  830YOPS   C3A12445  11.910  14.258   6.595  0.1457 -0.2762  0.0689
  830YOPS   C4A12446  11.987  14.209   6.928 -0.3049 -0.0943 -0.0588
  830YOPS   C1B12447  11.956  12.935   5.975  0.1973  0.0842 -0.0575
  830YOPS   C2B12448  12.134  12.571   6.141 -0.5065  0.1814 -0.3146
  830YOPS   D3B12449  12.402  12.207   6.334 -0.2848  0.0449  0.3306
  830YOPS   C4B12450  12.173  12.118   6.766  0.0947  0.1941  0.2169
  831POPE   NH312451  13.599   5.883   5.608  0.0347  0.0478  0.0514
  831POPE   PO412452  13.906   6.097   5.762 -0.0320  0.2726 -0.2509
  831POPE   GL112453  13.755   5.979   6.093 -0.2128  0.2074  0.0702
  831POPE   GL212454  13.438   6.003   6.110 -0.2387 -0.0862  0.3018
  831POPE   C1A12455  13.684   5.947   6.557  0.0440  0.1501 -0.0436
  831POPE   D2A12456  13.331   5.954   6.906  0.3710  0.0607  0.3760
  831POPE   C3A12457  13.493   5.834   7.305  0.0716 -0.0715 -0.1236
  831POPE   C4A12458  13.933   5.895   7.286  0.1520  0.0781  0.4337
  831POPE   C1B12459  13.170   5.898   6.424  0.1264 -0.1583 -0.1342
  831POPE   C2B12460  12.831   6.052   6.680 -0.0022  0.2996 -0.3675
  831POPE   C3B12461  12.636   6.353   6.891 -0.0409  0.2962  0.0817
  831POPE   C4B12462  12.444   6.671   6.949 -0.0040 -0.1730  0.2129
  832POPE   NH312463   3.577   3.141   5.568 -0.0879  0.1053  0.0232
  832POPE   PO412464   3.702   2.717   5.650 -0.0177  0.0995  0.2634
  832POPE   GL112465   3.539   3.031   6.045  0.1722 -0.1294 -0.4579
  832POPE   GL212466   3.601   3.352   6.116  0.0285  0.0962 -0.0201
  832POPE   C1A12467   3.385   3.011   6.460 -0.0278  0.1931  0.0467
  832POPE   D2A12468   3.258   2.835   6.805  0.0435 -0.0748 -0.1127
  832POPE   C3A12469   3.373   2.835   7.206 -0.0338  0.0237  0.1953
  832POPE   C4A12470   3.272   2.646   7.576 -0.0143  0.1547 -0.1110
  832POPE   C1B12471   3.696   3.397   6.559  0.3524  0.3330  0.0434
  832POPE   C2B12472   3.466   3.321   6.919 -0.0829 -0.0384  0.3218
  832POPE   C3B12473   3.375   3.385   7.374  0.0372  0.2394 -0.0928
  832POPE   C4B12474   3.176   3.480   7.764 -0.0998  0.5389 -0.2523
  833POPE   NH312475   8.233   5.754   6.162 -0.0015 -0.0798 -0.2905
  833POPE   PO412476   7.840   5.614   6.064  0.2924  0.0715 -0.2046
  833POPE   GL112477   7.747   5.879   6.377 -0.0133 -0.1492  0.4207
  833POPE   GL212478   7.449   5.736   6.485 -0.0263 -0.0948  0.3359
  833POPE   C1A12479   7.695   6.003   6.878  0.3446  0.0672 -0.1608
  833POPE   D2A12480   7.801   6.032   7.422 -0.1088  0.0373 -0.0645
  833POPE   C3A12481   7.900   5.737   7.540  0.2110 -0.1445  0.0371
  833POPE   C4A12482   8.234   5.329   7.459 -0.0939 -0.1563 -0.2191
  833POPE   C1B12483   7.173   5.971   6.735 -0.1994 -0.2100 -0.0474
  833POPE   C2B12484   6.974   6.227   7.011 -0.2240  0.1844  0.3587
  833POPE   C3B12485   6.945   6.279   7.467  0.1040  0.3321  0.0311
  833POPE   C4B12486   6.895   6.588   7.760 -0.0485  0.1819 -0.1300
  834POPE   NH312487  11.558  18.595   5.369 -0.4728 -0.1102 -0.1689
  834POPE   PO412488  11.944  18.372   5.172 -0.0010 -0.0390  0.0454
  834POPE   GL112489  12.032  18.321   5.612 -0.2527  0.2891  0.1821
  834POPE   GL212490  12.233  18.087   5.647 -0.3608  0.0525  0.0125
  834POPE   C1A12491  11.944  18.606   5.922  0.1151 -0.0419 -0.1158
  834POPE   D2A12492  12.132  18.837   6.211 -0.1915  0.3687  0.1284
  834POPE   C3A12493  12.178  19.189   6.108 -0.0283 -0.1294 -0.1516
  834POPE   C4A12494  12.301  19.402   5.827 -0.1240 -0.0922  0.0605
  834POPE   C1B12495  12.449  18.309   6.009  0.0388  0.4722  0.1913
  834POPE   C2B12496  12.462  18.363   6.409 -0.1744  0.2048  0.0099
  834POPE   C3B12497  12.706  18.119   6.798 -0.1451  0.3137 -0.0448
  834POPE   C4B12498  13.201  18.265   6.768  0.1093  0.0503  0.1205
  835POPE   NH312499  14.039   0.308   5.064  0.0368  0.0527 -0.1207
  835POPE   PO412500  13.609   0.275   5.179  0.0560 -0.1030 -0.1615
  835POPE   GL112501  13.800   0.411   5.513  0.0432 -0.0195  0.4110
  835POPE   GL212502  13.676   0.727   5.598  0.1085  0.3963  0.0875
  835POPE   C1A12503  13.933   0.499   6.004  0.4869 -0.4238 -0.2696
  835POPE   D2A12504  14.262   0.733   6.332 -0.0911 -0.1276  0.1527
  835POPE   C3A12505  14.398   0.640   6.709  0.0690 -0.2037 -0.2618
  835POPE   C4A12506  14.476   1.098   6.933 -0.1269  0.0722 -0.0269
  835POPE   C1B12507  13.672   1.130   5.772 -0.2184 -0.0081  0.0296
  835POPE   C2B12508  13.976   1.205   6.059  0.0522 -0.3270 -0.0709
  835POPE   C3B12509  14.139   1.222   6.376  0.0798  0.1493  0.0536
  835POPE   C4B12510  14.197   1.588   6.767  0.0186 -0.3432  0.1928
  836POPE   NH312511   3.067   3.011   5.709 -0.1623  0.2894 -0.2835
  836POPE   PO412512   3.192   2.684   5.845 -0.1690 -0.2219 -0.1728
  836POPE   GL112513   3.067   2.719   6.232  0.0039 -0.0806  0.0336
  836POPE   GL212514   2.988   3.046   6.209  0.3133 -0.1660  0.1916
  836POPE   C1A12515   3.049   2.487   6.520 -0.3078  0.1891  0.3658
  836POPE   D2A12516   2.966   2.335   6.886 -0.3718  0.2063 -0.0185
  836POPE   C3A12517   3.110   2.425   7.173  0.1694 -0.2053  0.0132
  836POPE   C4A12518   3.422   2.187   7.410  0.0909  0.0465  0.0386
  836POPE   C1B12519   2.883   3.118   6.658  0.0990  0.3316  0.2620
  836POPE   C2B12520   2.931   3.245   7.023 -0.0337  0.4008  0.2200
  836POPE   C3B12521   2.753   3.365   7.367 -0.1883  0.3834 -0.3528
  836POPE   C4B12522   2.585   3.607   7.662 -0.1957 -0.2501  0.1149
  837POPE   NH312523   6.411   1.823   5.652  0.0444 -0.0101 -0.2712
  837POPE   PO412524   6.895   1.743   5.768 -0.0409  0.3340  0.0178
  837POPE   GL112525   6.769   1.698   6.127  0.2717 -0.0624 -0.2106
  837POPE   GL212526   6.493   1.865   6.141  0.1634  0.0937 -0.3009
  837POPE   C1A12527   6.629   1.587   6.537 -0.0684 -0.1105  0.1828
  837POPE   D2A12528   6.661   1.463   6.962  0.2444 -0.0553  0.0279
  837POPE   C3A12529   6.404   1.311   7.276  0.0272 -0.0863 -0.1578
  837POPE   C4A12530   6.392   1.203   7.745  0.0244  0.1389  0.1516
  837POPE   C1B12531   6.191   1.891   6.454 -0.1191  0.0381  0.0253
  837POPE   C2B12532   6.017   1.846   6.824  0.0091  0.1731  0.2744
  837POPE   C3B12533   5.951   1.557   7.227 -0.0248 -0.0583 -0.0193
  837POPE   C4B12534   6.030   1.543   7.678  0.0693 -0.2253  0.0366
  838POPE   NH312535  17.209   1.300   4.991  0.1306  0.2450  0.2000
  838POPE   PO412536  17.676   1.409   4.981  0.1681 -0.0872 -0.4102
  838POPE   GL112537  17.631   0.966   5.292  0.2997  0.0211  0.0540
  838POPE   GL212538  17.516   0.777   5.529 -0.1476 -0.0612  0.1095
  838POPE   C1A12539  18.012   0.891   5.525 -0.2888  0.1401  0.0163
  838POPE   D2A12540  18.480   0.891   5.738 -0.0732 -0.0038  0.0454
  838POPE   C3A12541  18.542   0.773   6.089 -0.1373  0.2635  0.3055
  838POPE   C4A12542  18.554   0.406   6.382 -0.0628  0.0108  0.1190
  838POPE   C1B12543  17.619   1.155   5.769  0.3228 -0.0176 -0.0436
  838POPE   C2B12544  17.634   1.128   6.223  0.1076  0.0101  0.1234
  838POPE   C3B12545  17.535   1.311   6.529  0.0762 -0.1533 -0.2135
  838POPE   C4B12546  17.728   1.600   6.856 -0.1379  0.3243  0.2900
  839POPE   NH312547   5.884  11.543   5.257  0.3092  0.1307  0.1068
  839POPE   PO412548   5.688  11.751   5.600 -0.0533  0.3862 -0.0298
  839POPE   GL112549   5.409  11.879   5.784  0.0394 -0.1284  0.0161
  839POPE   GL212550   5.525  11.722   6.159 -0.0886 -0.1427 -0.0535
  839POPE   C1A12551   5.051  12.068   6.021 -0.3532 -0.0523 -0.1860
  839POPE   D2A12552   4.859  12.362   6.033  0.1878  0.0241 -0.0344
  839POPE   C3A12553   5.037  12.593   6.352  0.0515  0.1693 -0.2557
  839POPE   C4A12554   5.279  12.962   6.499  0.1499  0.3745  0.1268
  839POPE   C1B12555   5.385  12.074   6.361  0.0420 -0.2318 -0.4738
  839POPE   C2B12556   4.963  12.109   6.483 -0.0455  0.4811  0.1204
  839POPE   C3B12557   4.794  12.074   6.828  0.0694 -0.2338 -0.4267
  839POPE   C4B12558   4.819  12.380   7.230  0.3292 -0.0251 -0.2751
  840POPE   NH312559   3.141  11.141   5.093 -0.0904  0.1520 -0.0915
  840POPE   PO412560   2.855  11.347   4.895  0.4932  0.0163  0.1163
  840POPE   GL112561   2.803  11.582   5.250 -0.0097  0.0023  0.0851
  840POPE   GL212562   2.728  11.266   5.384 -0.2723 -0.1436 -0.1361
  840POPE   C1A12563   2.615  11.727   5.570  0.1004 -0.2183  0.2592
  840POPE   D2A12564   2.568  11.426   5.925  0.1068  0.0079 -0.2805
  840POPE   C3A12565   2.733  11.413   6.344 -0.2022 -0.1192 -0.1785
  840POPE   C4A12566   2.936  11.841   6.587 -0.0691  0.2199  0.2321
  840POPE   C1B12567   2.313  11.012   5.587 -0.1076  0.2614 -0.2939
  840POPE   C2B12568   2.076  11.058   6.066 -0.0070 -0.2346  0.0432
  840POPE   C3B12569   1.801  10.993   6.504  0.1482 -0.0255  0.0693
  840POPE   C4B12570   1.579  10.780   6.931 -0.0136 -0.2398 -0.0703
  841POPE   NH312571   7.505  10.499   5.345  0.1110 -0.0452 -0.1891
  841POPE   PO412572   7.148  10.531   5.424  0.0746  0.3269  0.0203
  841POPE   GL112573   7.398  10.723   5.801 -0.1373 -0.2311  0.0233
  841POPE   GL212574   7.389  10.687   6.159  0.3657 -0.3197  0.2068
  841POPE   C1A12575   7.701  10.968   5.948 -0.3508  0.0662  0.1961
  841POPE   D2A12576   7.845  11.315   6.282  0.0888 -0.0222  0.0880
  841POPE   C3A12577   7.612  11.417   6.533  0.0251  0.2802  0.0183
  841POPE   C4A12578   7.471  11.561   6.911 -0.0787 -0.1031  0.0147
  841POPE   C1B12579   7.627  10.899   6.472 -0.1143 -0.1013 -0.0319
  841POPE   C2B12580   7.507  11.044   6.868 -0.1313  0.0859  0.0777
  841POPE   C3B12581   7.515  11.125   7.308 -0.0246 -0.0863 -0.2277
  841POPE   C4B12582   7.690  10.787   7.603 -0.4104 -0.1797  0.3727
  842POPE   NH312583   1.536  15.622   5.357  0.0399 -0.0534 -0.1365
  842POPE   PO412584   1.167  15.712   5.069 -0.3428  0.0174  0.1100
  842POPE   GL112585   0.929  15.922   5.363  0.2280  0.0191  0.1808
  842POPE   GL212586   1.130  15.678   5.596 -0.1861  0.0383  0.1590
  842POPE   C1A12587   0.780  16.306   5.682 -0.3699  0.0315  0.2313
  842POPE   D2A12588   0.404  16.710   5.849 -0.0805  0.1945 -0.0276
  842POPE   C3A12589   0.580  16.832   6.107  0.0949  0.0918 -0.6308
  842POPE   C4A12590   1.059  16.710   6.256  0.0101 -0.1012 -0.1833
  842POPE   C1B12591   0.909  15.562   6.025 -0.0581 -0.1245  0.1438
  842POPE   C2B12592   0.783  15.786   6.491 -0.0588 -0.1567 -0.2113
  842POPE   C3B12593   0.609  15.690   6.904  0.0491  0.2592  0.0860
  842POPE   C4B12594   0.816  15.468   7.242 -0.1109 -0.3239 -0.0664
  843POPE   NH312595  14.216   9.423   5.064 -0.0551 -0.0836 -0.1116
  843POPE   PO412596  13.833   9.597   5.207 -0.0150  0.0553 -0.3091
  843POPE   GL112597  13.854   9.734   5.569 -0.1311  0.0996  0.5881
  843POPE   GL212598  13.960  10.043   5.545  0.0228  0.3310 -0.0477
  843POPE   C1A12599  13.795   9.782   6.020  0.0434  0.2853 -0.0621
  843POPE   D2A12600  13.926   9.697   6.442 -0.2673 -0.0729 -0.3057
  843POPE   C3A12601  14.092   9.316   6.558  0.6504 -0.0943  0.0711
  843POPE   C4A12602  14.018   9.083   6.816  0.4999 -0.0175 -0.3865
  843POPE   C1B12603  14.096  10.440   5.724  0.0686  0.2348 -0.0331
  843POPE   C2B12604  14.048  10.609   6.097 -0.1272 -0.0563  0.2333
  843POPE   C3B12605  13.800  10.797   6.417  0.0231  0.2126  0.0315
  843POPE   C4B12606  13.539  10.868   6.761 -0.0142  0.0427  0.2385
  844POPE   NH312607   8.125   5.529   5.634 -0.1414 -0.0880 -0.0552
  844POPE   PO412608   8.528   5.435   5.875  0.0733  0.2267  0.0894
  844POPE   GL112609   8.683   5.535   6.220  0.1878  0.2864  0.0093
  844POPE   GL212610   8.438   5.420   6.477  0.1294 -0.5005 -0.2284
  844POPE   C1A12611   8.979   5.249   6.394 -0.1484  0.0158 -0.2922
  844POPE   D2A12612   9.159   5.221   6.798 -0.0616  0.2739 -0.1350
  844POPE   C3A12613   8.862   5.122   7.119 -0.0839  0.2713  0.1477
  844POPE   C4A12614   8.665   5.102   7.604  0.0258  0.2505 -0.0792
  844POPE   C1B12615   8.778   5.614   6.755 -0.2207  0.1423 -0.1201
  844POPE   C2B12616   9.214   5.703   6.952  0.1722 -0.0005  0.0107
  844POPE   C3B12617   9.220   5.654   7.423  0.0545  0.4595 -0.2390
  844POPE   C4B12618   8.975   5.498   7.788 -0.3590  0.4659 -0.1621
  845POPE   NH312619  12.540  13.300   5.143 -0.2160  0.0687  0.1417
  845POPE   PO412620  12.342  13.715   5.002 -0.1303  0.2849 -0.2303
  845POPE   GL112621  12.384  14.116   5.252 -0.0732 -0.3692  0.1219
  845POPE   GL212622  12.731  14.252   5.290  0.0985 -0.2014  0.3348
  845POPE   C1A12623  12.394  14.369   5.618 -0.0168 -0.0216 -0.0935
  845POPE   D2A12624  12.326  14.739   5.794  0.4046 -0.2029 -0.0544
  845POPE   C3A12625  12.682  14.902   5.873 -0.1108  0.0058 -0.0046
  845POPE   C4A12626  12.636  15.084   6.192 -0.0699  0.1503 -0.0716
  845POPE   C1B12627  12.917  14.432   5.594 -0.0347  0.2469  0.4359
  845POPE   C2B12628  13.353  14.585   5.742  0.1504  0.0337 -0.1148
  845POPE   C3B12629  13.641  14.660   5.537  0.0965  0.2474  0.1008
  845POPE   C4B12630  14.042  14.593   5.547  0.0740  0.1942 -0.1816
  846POPE   NH312631   8.227  15.426   5.291 -0.1544 -0.0057 -0.3132
  846POPE   PO412632   8.740  15.673   5.321  0.1094  0.2152  0.0146
  846POPE   GL112633   8.570  15.440   5.678  0.0336  0.3163  0.1060
  846POPE   GL212634   8.818  15.234   5.787 -0.0015  0.2744  0.2095
  846POPE   C1A12635   8.548  15.804   6.035  0.2640 -0.2823  0.2323
  846POPE   D2A12636   8.578  16.114   6.225 -0.2642  0.1388  0.1598
  846POPE   C3A12637   8.388  16.432   6.113  0.1366  0.1192 -0.3495
  846POPE   C4A12638   8.101  16.767   6.414 -0.0923 -0.2384 -0.1443
  846POPE   C1B12639   8.919  15.136   6.149  0.3715  0.1200  0.0563
  846POPE   C2B12640   8.847  15.112   6.583 -0.0194  0.1667 -0.0410
  846POPE   C3B12641   8.681  15.311   6.934 -0.2781  0.2190  0.0644
  846POPE   C4B12642   8.259  15.480   7.033  0.0132  0.0032 -0.0460
  847POPE   NH312643   7.687   0.699   5.331  0.2878  0.0160  0.2688
  847POPE   PO412644   7.444   0.391   5.584  0.0854  0.3532 -0.1932
  847POPE   GL112645   7.619   0.395   5.971 -0.1777 -0.2557  0.2920
  847POPE   GL212646   7.969   0.595   5.907 -0.0411 -0.0865  0.1362
  847POPE   C1A12647   7.625   0.467   6.386  0.1208 -0.0637 -0.1313
  847POPE   D2A12648   7.817   0.287   6.652  0.0668  0.1011  0.0541
  847POPE   C3A12649   7.556   0.114   6.964  0.3221 -0.0929  0.1080
  847POPE   C4A12650   7.527  -0.149   7.261  0.2072  0.0349 -0.2610
  847POPE   C1B12651   8.153   0.615   6.295  0.1923 -0.4318  0.3837
  847POPE   C2B12652   8.398   0.740   6.632 -0.3423 -0.2418 -0.1981
  847POPE   C3B12653   8.459   0.699   7.057 -0.0683 -0.0102  0.1507
  847POPE   C4B12654   8.203   0.966   7.396 -0.2076 -0.5574  0.2638
  848POPE   NH312655  12.573   9.635   5.502  0.3493 -0.2138 -0.1746
  848POPE   PO412656  12.199   9.347   5.624 -0.3536 -0.4272  0.1801
  848POPE   GL112657  12.132   9.161   6.029 -0.2735 -0.3598 -0.1927
  848POPE   GL212658  11.854   9.237   6.090  0.0947 -0.1374  0.3105
  848POPE   C1A12659  12.269   9.323   6.400  0.1460  0.1628 -0.0270
  848POPE   D2A12660  12.112   9.269   6.794 -0.0076  0.2325  0.3724
  848POPE   C3A12661  12.207   8.990   7.052 -0.0140  0.0208  0.1435
  848POPE   C4A12662  12.306   8.551   7.326 -0.0660  0.0960  0.0115
  848POPE   C1B12663  11.720   9.450   6.434  0.2227  0.0335  0.1522
  848POPE   C2B12664  11.818   9.645   6.806  0.0467 -0.0764 -0.2871
  848POPE   C3B12665  12.038   9.574   7.174 -0.0795 -0.3847 -0.3843
  848POPE   C4B12666  12.218   9.853   7.396  0.0234 -0.1974 -0.2711
  849POPE   NH312667  17.727   9.433   5.183 -0.1488 -0.0835  0.1637
  849POPE   PO412668  17.957   9.784   5.096 -0.2772  0.0554 -0.0764
  849POPE   GL112669  17.918   9.915   5.501  0.2943  0.1933 -0.2712
  849POPE   GL212670  17.641  10.103   5.371  0.0177  0.0832 -0.4827
  849POPE   C1A12671  18.067   9.852   5.910  0.0688 -0.2955  0.1254
  849POPE   D2A12672  18.482   9.881   6.196  0.0867 -0.3695  0.2007
  849POPE   C3A12673  18.555  10.119   6.616  0.1858  0.1879 -0.1212
  849POPE   C4A12674  18.528  10.479   6.846  0.0998  0.3331  0.1486
  849POPE   C1B12675  17.958  10.336   5.691  0.1143  0.1729  0.1221
  849POPE   C2B12676  17.992  10.245   6.193 -0.2010 -0.1606 -0.0233
  849POPE   C3B12677  18.090   9.864   6.541  0.1854 -0.1895  0.1575
  849POPE   C4B12678  18.333   9.546   6.630 -0.0485 -0.0197  0.1775
  850POPE   NH312679   4.160  10.954   5.210 -0.0699  0.0095  0.2082
  850POPE   PO412680   4.347  11.382   5.186  0.0061  0.1959  0.2864
  850POPE   GL112681   4.255  11.459   5.575  0.2357 -0.2476 -0.0757
  850POPE   GL212682   3.940  11.269   5.670 -0.2838 -0.1548  0.2112
  850POPE   C1A12683   4.295  11.337   6.021  0.0860 -0.0413 -0.1157
  850POPE   D2A12684   4.239  11.165   6.467  0.0207  0.1379  0.0914
  850POPE   C3A12685   3.951  11.264   6.823  0.0774  0.1232  0.0340
  850POPE   C4A12686   3.579  11.228   7.139 -0.0885 -0.2681  0.1860
  850POPE   C1B12687   3.953  11.755   5.897 -0.2199  0.0537  0.0026
  850POPE   C2B12688   4.083  12.196   6.107  0.0310  0.1801 -0.1426
  850POPE   C3B12689   4.382  12.428   6.002  0.0651 -0.3814  0.1667
  850POPE   C4B12690   4.440  12.852   5.879 -0.1208  0.0282 -0.2420
  851POPE   NH312691   7.652  13.848   5.627  0.0108  0.3949 -0.3138
  851POPE   PO412692   7.242  13.814   5.777  0.2800  0.1018 -0.2793
  851POPE   GL112693   7.234  13.625   6.085  0.0629 -0.1492  0.1578
  851POPE   GL212694   7.521  13.470   6.140  0.2796  0.0423  0.0140
  851POPE   C1A12695   7.106  13.666   6.481 -0.1792 -0.2571  0.1327
  851POPE   D2A12696   6.955  13.615   6.921 -0.3520 -0.0324 -0.3436
  851POPE   C3A12697   6.541  13.752   7.014  0.1124  0.0510  0.2747
  851POPE   C4A12698   6.176  13.628   7.104  0.2513 -0.2088 -0.0117
  851POPE   C1B12699   7.483  13.301   6.492  0.1534  0.0144 -0.2874
  851POPE   C2B12700   7.619  13.017   6.775 -0.2998  0.4153 -0.0896
  851POPE   C3B12701   7.730  13.037   7.169  0.2726  0.1021 -0.0695
  851POPE   C4B12702   7.948  12.839   7.435  0.4366 -0.1141 -0.1243
  852POPE   NH312703   5.475  14.426   5.444  0.2121  0.2707  0.0252
  852POPE   PO412704   5.350  14.057   5.497  0.0686 -0.0509  0.1645
  852POPE   GL112705   5.343  13.997   5.909  0.0556  0.2736  0.0801
  852POPE   GL212706   5.517  14.307   5.927  0.1095  0.0524  0.1447
  852POPE   C1A12707   5.532  13.835   6.372 -0.0978  0.0606  0.1557
  852POPE   D2A12708   5.513  13.862   6.754 -0.0117 -0.1259 -0.3427
  852POPE   C3A12709   5.634  13.652   7.144  0.0701 -0.3477  0.2058
  852POPE   C4A12710   5.885  13.714   7.527 -0.1256  0.0359 -0.0692
  852POPE   C1B12711   5.444  14.318   6.400 -0.3684 -0.0390  0.1838
  852POPE   C2B12712   5.788  14.500   6.622  0.2258  0.2815 -0.4074
  852POPE   C3B12713   6.060  14.640   6.974 -0.2120 -0.0839 -0.0429
  852POPE   C4B12714   6.425  14.599   7.060 -0.0716 -0.1741  0.2093
  853POPE   NH312715  13.074  18.445   5.037  0.0248  0.2679 -0.1311
  853POPE   PO412716  13.349  18.136   4.858  0.2428 -0.0089  0.0685
  853POPE   GL112717  13.581  18.297   5.178  0.4742 -0.0117 -0.1625
  853POPE   GL212718  13.921  18.482   5.201 -0.3463  0.0210  0.6808
  853POPE   C1A12719  13.697  18.167   5.587  0.1337 -0.1762  0.1067
  853POPE   D2A12720  13.947  18.056   6.000  0.2759  0.0964 -0.2423
  853POPE   C3A12721  13.986  18.446   6.035  0.0048 -0.0230 -0.1225
  853POPE   C4A12722  13.914  18.934   5.957 -0.1904 -0.1349  0.3500
  853POPE   C1B12723  14.209  18.444   5.526 -0.4431  0.1985  0.0487
  853POPE   C2B12724  14.338  18.783   5.790  0.1854  0.0624  0.6169
  853POPE   C3B12725  14.390  19.247   5.925 -0.0787  0.1280 -0.4322
  853POPE   C4B12726  14.293  19.511   6.108  0.1868 -0.1437 -0.0474
  854POPE   NH312727  18.681  14.586   4.901 -0.0063 -0.0656 -0.0426
  854POPE   PO412728  19.177  14.709   5.042  0.0837  0.1328  0.1027
  854POPE   GL112729  19.329  14.801   5.471  0.1081  0.2753 -0.2141
  854POPE   GL212730  19.276  15.132   5.584  0.0595 -0.1895 -0.0154
  854POPE   C1A12731  19.739  15.071   5.695 -0.0326 -0.2214 -0.0596
  854POPE   D2A12732  19.853  15.198   6.049 -0.1729  0.1696 -0.0564
  854POPE   C3A12733  19.716  15.651   6.162  0.0792 -0.1328 -0.1116
  854POPE   C4A12734  19.584  15.982   6.575 -0.1962  0.4934 -0.2120
  854POPE   C1B12735  19.388  14.850   5.981 -0.1429 -0.1620 -0.1934
  854POPE   C2B12736  19.463  14.551   6.250 -0.1189 -0.0874 -0.0723
  854POPE   C3B12737  19.273  14.153   6.443  0.2483 -0.2152  0.2919
  854POPE   C4B12738  19.433  13.795   6.576  0.2551  0.2420  0.0380
  855POPE   NH312739   7.048   8.215   6.093  0.1169  0.1226  0.0065
  855POPE   PO412740   7.106   7.727   6.168  0.2728 -0.0664 -0.0344
  855POPE   GL112741   7.078   7.809   6.570 -0.0812  0.1204  0.0233
  855POPE   GL212742   6.913   8.168   6.694 -0.2627  0.1793  0.1465
  855POPE   C1A12743   7.206   7.881   6.929  0.1115 -0.1058  0.1067
  855POPE   D2A12744   7.509   8.167   7.066  0.1504  0.3101 -0.1479
  855POPE   C3A12745   7.327   8.464   6.677  0.1886  0.3737 -0.1289
  855POPE   C4A12746   7.082   8.830   6.699  0.0751  0.0002  0.1506
  855POPE   C1B12747   6.711   8.509   6.879  0.1152 -0.6147  0.1676
  855POPE   C2B12748   6.563   8.853   6.854 -0.2326  0.1747 -0.1638
  855POPE   C3B12749   6.525   9.184   7.022  0.0297 -0.0837  0.1127
  855POPE   C4B12750   6.729   9.565   7.302 -0.0321  0.1179  0.4515
  856POPE   NH312751  18.933  12.546   5.231 -0.1161  0.0230  0.1753
  856POPE   PO412752  18.670  12.124   5.212 -0.2135  0.2990  0.1863
  856POPE   GL112753  18.889  12.151   5.692  0.2316  0.1159 -0.0499
  856POPE   GL212754  19.008  11.857   5.606  0.1581 -0.1150  0.0950
  856POPE   C1A12755  18.946  12.026   6.111  0.1482  0.0082  0.0960
  856POPE   D2A12756  19.025  11.683   6.429  0.2419  0.0704  0.1972
  856POPE   C3A12757  18.744  11.546   6.775 -0.0739  0.0374 -0.0612
  856POPE   C4A12758  18.581  11.232   7.061  0.0874 -0.1373  0.2046
  856POPE   C1B12759  19.211  11.559   5.880  0.1966 -0.0455 -0.1287
  856POPE   C2B12760  19.210  11.303   6.256  0.1710  0.0645 -0.1123
  856POPE   C3B12761  19.124  11.296   6.761  0.2058  0.0863 -0.0453
  856POPE   C4B12762  19.054  11.386   7.211  0.4833  0.3256  0.4205
  857POPE   NH312763  19.019   4.551   5.071  0.3228 -0.0661 -0.3166
  857POPE   PO412764  18.639   4.435   5.404 -0.4806 -0.2493  0.5131
  857POPE   GL112765  18.436   4.343   5.802 -0.1983 -0.0738  0.3690
  857POPE   GL212766  18.402   3.971   5.847 -0.1007 -0.4522 -0.0411
  857POPE   C1A12767  18.093   4.530   5.933  0.1524  0.0085 -0.0932
  857POPE   D2A12768  17.664   4.824   6.142 -0.1596  0.2688  0.1242
  857POPE   C3A12769  17.667   4.880   6.547 -0.0559  0.1051  0.1093
  857POPE   C4A12770  17.739   5.022   6.843 -0.1024  0.2061  0.5417
  857POPE   C1B12771  18.736   3.712   6.181  0.3384  0.2329 -0.1704
  857POPE   C2B12772  18.710   3.714   6.594 -0.1586 -0.0558  0.0015
  857POPE   C3B12773  18.588   3.819   6.956 -0.3044 -0.1737 -0.0480
  857POPE   C4B12774  18.775   3.997   7.322 -0.2020  0.6394 -0.1239
  858POPE   NH312775  12.412  15.650   5.005 -0.1606 -0.1691 -0.0626
  858POPE   PO412776  12.848  15.702   4.848 -0.3152  0.1258 -0.2923
  858POPE   GL112777  13.029  15.737   5.229  0.1828 -0.0275  0.1348
  858POPE   GL212778  12.958  16.011   5.383  0.2992 -0.2239 -0.1773
  858POPE   C1A12779  13.024  15.534   5.623  0.3881 -0.0440 -0.1416
  858POPE   D2A12780  13.192  15.335   6.002  0.0217 -0.1611  0.1207
  858POPE   C3A12781  13.132  14.849   6.115  0.0434  0.1515 -0.1904
  858POPE   C4A12782  12.872  14.611   6.357 -0.3097 -0.0243 -0.0026
  858POPE   C1B12783  12.766  16.204   5.758 -0.2682 -0.2953 -0.0914
  858POPE   C2B12784  12.662  16.343   6.186 -0.3966 -0.1097 -0.1315
  858POPE   C3B12785  12.307  16.398   6.512 -0.1462 -0.0658  0.2876
  858POPE   C4B12786  12.142  16.495   6.872  0.5228 -0.2413  0.0449
  859YOPE   NH312787   1.822  13.913   5.451 -0.0165  0.0529 -0.0513
  859YOPE   PO412788   1.542  14.107   5.432  0.0937  0.0927 -0.1113
  859YOPE   GL112789   1.791  14.225   5.838 -0.1010  0.2174 -0.0216
  859YOPE   GL212790   1.972  14.037   5.995 -0.2863  0.0371  0.0086
  859YOPE   C1A12791   1.735  14.458   6.216  0.1353  0.0754  0.1666
  859YOPE   D2A12792   1.474  14.551   6.481 -0.2936 -0.0762 -0.4479
  859YOPE   C3A12793   1.572  14.588   6.929 -0.0776  0.5190  0.2386
  859YOPE   C4A12794   1.440  14.697   7.231  0.0853 -0.1432 -0.0154
  859YOPE   C1B12795   1.543  13.918   6.239  0.0727  0.0532 -0.1797
  859YOPE   C2B12796   1.262  13.681   6.422 -0.0640  0.0166  0.4362
  859YOPE   D3B12797   1.361  13.219   6.726 -0.2800 -0.1125 -0.2050
  859YOPE   C4B12798   1.062  13.058   6.939 -0.0735  0.0776 -0.0007
  860YOPE   NH312799  16.996  13.734   5.140  0.2776  0.0912  0.3921
  860YOPE   PO412800  16.719  13.404   4.862 -0.0891  0.0703 -0.1074
  860YOPE   GL112801  16.453  13.523   5.190  0.0765 -0.0090  0.0867
  860YOPE   GL212802  16.612  13.502   5.436 -0.2075 -0.0741 -0.1307
  860YOPE   C1A12803  16.081  13.625   5.367 -0.1067  0.2158 -0.4708
  860YOPE   D2A12804  15.658  13.773   5.588 -0.0602  0.0593  0.0857
  860YOPE   C3A12805  15.630  13.774   6.054 -0.0077  0.1341 -0.3046
  860YOPE   C4A12806  15.407  13.630   6.428 -0.4818 -0.1262 -0.1207
  860YOPE   C1B12807  16.262  13.275   5.623 -0.2238 -0.3138 -0.1251
  860YOPE   C2B12808  15.886  13.285   5.690 -0.0890  0.0997 -0.1850
  860YOPE   D3B12809  15.523  13.117   5.934  0.1093 -0.3665  0.0472
  860YOPE   C4B12810  15.562  13.224   6.251 -0.1468 -0.0527  0.0019
  861YOPE   NH312811  10.714  12.562   5.666 -0.1250 -0.4175  0.0511
  861YOPE   PO412812  10.225  12.573   5.706  0.1333 -0.2025  0.0549
  861YOPE   GL112813  10.549  12.886   6.073 -0.0457 -0.0445  0.0743
  861YOPE   GL212814  10.889  12.896   6.006 -0.1035  0.2158 -0.0709
  861YOPE   C1A12815  10.583  13.050   6.430  0.0282  0.0229 -0.0572
  861YOPE   D2A12816  10.709  13.177   6.904 -0.0291  0.1591  0.5862
  861YOPE   C3A12817  10.470  13.440   7.130 -0.2433  0.0056 -0.0983
  861YOPE   C4A12818  10.553  13.726   7.483  0.1109  0.0093  0.1296
  861YOPE   C1B12819  11.037  13.114   6.277  0.2983 -0.1506  0.0634
  861YOPE   C2B12820  11.321  13.238   6.589  0.3194  0.2035  0.0729
  861YOPE   D3B12821  11.577  13.373   6.889 -0.0722 -0.2245 -0.0344
  861YOPE   C4B12822  11.909  13.511   7.144 -0.0661  0.1788  0.3760
  862YOPE   NH312823  17.032   6.308   5.606  0.1512 -0.2809 -0.1812
  862YOPE   PO412824  16.965   6.698   5.542  0.1844 -0.1885 -0.2441
  862YOPE   GL112825  17.122   6.658   6.057  0.3167 -0.3357 -0.1032
  862YOPE   GL212826  17.265   6.370   6.108 -0.0105 -0.1238 -0.0532
  862YOPE   C1A12827  17.029   6.546   6.491  0.0861  0.1663  0.0695
  862YOPE   D2A12828  16.995   6.577   7.043  0.0984  0.1103  0.0155
  862YOPE   C3A12829  16.820   6.210   7.316  0.2210  0.1675 -0.2730
  862YOPE   C4A12830  17.149   5.813   7.166  0.1127 -0.1473 -0.0450
  862YOPE   C1B12831  17.478   6.410   6.453 -0.2030  0.2617 -0.3147
  862YOPE   C2B12832  17.719   6.269   6.777  0.0925  0.0483  0.1718
  862YOPE   D3B12833  17.786   6.496   7.059  0.0142  0.0973  0.1338
  862YOPE   C4B12834  17.800   6.721   7.390  0.2576 -0.0912  0.0390
  863YOPE   NH312835   0.770   0.224   5.103 -0.0412 -0.1549 -0.0221
  863YOPE   PO412836   0.388   0.404   5.099  0.1268  0.0643 -0.0386
  863YOPE   GL112837   0.196   0.185   5.442 -0.0699 -0.3426 -0.0911
  863YOPE   GL212838   0.531   0.267   5.580 -0.0448  0.2652 -0.2313
  863YOPE   C1A12839  -0.060   0.157   5.826  0.2069  0.1004  0.3781
  863YOPE   D2A12840  -0.154   0.441   6.147 -0.2487 -0.0176  0.0024
  863YOPE   C3A12841  -0.240   0.509   6.667  0.3661 -0.0735 -0.0152
  863YOPE   C4A12842  -0.196   0.283   7.045  0.2821 -0.0146 -0.1347
  863YOPE   C1B12843   0.420   0.161   6.012  0.0911  0.1463  0.0857
  863YOPE   C2B12844   0.041  -0.018   6.249 -0.3525 -0.0265 -0.4112
  863YOPE   D3B12845  -0.231   0.036   6.673 -0.0193  0.2813  0.3818
  863YOPE   C4B12846  -0.656   0.156   6.798  0.2222 -0.0818  0.0026
  864YOPE   NH312847   8.063   4.495   5.983  0.2139 -0.1454 -0.2957
  864YOPE   PO412848   7.756   4.810   6.229  0.1582 -0.4684 -0.0117
  864YOPE   GL112849   7.521   4.962   6.563  0.0401  0.1210  0.3516
  864YOPE   GL212850   7.263   5.026   6.536 -0.2752 -0.0764 -0.2086
  864YOPE   C1A12851   7.574   4.952   7.060  0.1719  0.0348 -0.1499
  864YOPE   D2A12852   7.681   5.306   7.387  0.1272  0.2122  0.4331
  864YOPE   C3A12853   7.824   5.296   7.727  0.0642  0.1809 -0.2077
  864YOPE   C4A12854   8.009   5.524   8.070  0.0557  0.1485 -0.0408
  864YOPE   C1B12855   7.077   5.194   6.823 -0.0298  0.1791 -0.0215
  864YOPE   C2B12856   7.153   5.557   7.049  0.2023  0.0175  0.0266
  864YOPE   D3B12857   7.279   5.945   7.253  0.0722  0.2048  0.1596
  864YOPE   C4B12858   7.448   6.401   7.089 -0.2028  0.2336 -0.1327
  865YOPE   NH312859   2.560  10.301   4.831 -0.0067  0.0332 -0.0392
  865YOPE   PO412860   2.993  10.420   4.675  0.0999 -0.1254  0.1244
  865YOPE   GL112861   3.101  10.318   5.105  0.1095 -0.1247  0.2696
  865YOPE   GL212862   3.354  10.622   5.238 -0.0396  0.1901  0.1403
  865YOPE   C1A12863   2.818  10.560   5.487  0.1413  0.0739 -0.1563
  865YOPE   D2A12864   2.424  10.595   5.814  0.4853 -0.2007 -0.0994
  865YOPE   C3A12865   2.266  10.469   6.213  0.1250  0.0154 -0.0360
  865YOPE   C4A12866   2.288  10.166   6.388  0.2162  0.2013  0.3075
  865YOPE   C1B12867   3.265  10.796   5.688  0.2316  0.2824  0.1314
  865YOPE   C2B12868   2.888  10.907   5.813  0.2352 -0.2937 -0.2507
  865YOPE   D3B12869   2.695  10.913   6.163  0.0305  0.0774 -0.1064
  865YOPE   C4B12870   2.368  10.852   6.507 -0.3115  0.1366 -0.3096
  866YOPE   NH312871   3.953   7.440   5.767  0.3299  0.1612 -0.1212
  866YOPE   PO412872   3.605   7.580   5.797  0.0260 -0.0931 -0.2722
  866YOPE   GL112873   3.292   7.759   6.054 -0.3082  0.4225 -0.0029
  866YOPE   GL212874   3.077   7.557   6.006  0.2922  0.3205  0.0687
  866YOPE   C1A12875   3.230   8.166   6.226 -0.4208  0.1649 -0.1520
  866YOPE   D2A12876   3.491   8.523   6.178 -0.2405  0.1113  0.0583
  866YOPE   C3A12877   3.762   8.693   6.621  0.0021 -0.1310  0.0693
  866YOPE   C4A12878   3.883   8.821   7.030  0.1941  0.1343 -0.2218
  866YOPE   C1B12879   2.972   7.429   6.415  0.1842 -0.3812  0.2184
  866YOPE   C2B12880   2.918   7.567   6.865  0.0113 -0.0873  0.0961
  866YOPE   D3B12881   2.876   7.622   7.298  0.0662  0.0889  0.0419
  866YOPE   C4B12882   2.572   7.713   7.615 -0.1777 -0.0627  0.1195
  867YOPE   NH312883  15.420  14.550   5.085  0.2462 -0.0476 -0.4287
  867YOPE   PO412884  14.975  14.493   4.877 -0.1423  0.0320  0.0699
  867YOPE   GL112885  14.644  14.469   5.198 -0.0748 -0.0878 -0.2288
  867YOPE   GL212886  14.377  14.176   5.366  0.0463  0.0112  0.2705
  867YOPE   C1A12887  14.565  14.577   5.636 -0.1672 -0.1585 -0.0250
  867YOPE   D2A12888  14.717  14.746   5.995 -0.4187  0.1366 -0.0101
  867YOPE   C3A12889  15.031  14.571   6.242 -0.1596 -0.1134  0.0472
  867YOPE   C4A12890  15.271  14.721   6.502  0.1138  0.0807  0.0174
  867YOPE   C1B12891  14.332  13.948   5.772  0.4243  0.1376  0.0568
  867YOPE   C2B12892  14.311  13.912   6.290 -0.2710  0.0329  0.0387
  867YOPE   D3B12893  13.900  14.163   6.422  0.0750  0.0609 -0.0935
  867YOPE   C4B12894  13.737  14.509   6.614  0.0095  0.1903 -0.1820
  868YOPE   NH312895  14.712   2.743   4.876  0.0263  0.3295  0.2423
  868YOPE   PO412896  14.689   3.089   5.211  0.1702  0.1051 -0.4569
  868YOPE   GL112897  14.714   3.102   5.640 -0.1782 -0.3511 -0.2548
  868YOPE   GL212898  15.043   3.020   5.696 -0.1664  0.1147 -0.1928
  868YOPE   C1A12899  14.891   3.538   5.860 -0.1323  0.1866 -0.1191
  868YOPE   D2A12900  14.848   3.818   6.155  0.0888 -0.1762  0.1504
  868YOPE   C3A12901  14.855   3.566   6.494 -0.2197 -0.2477 -0.4775
  868YOPE   C4A12902  14.464   3.476   6.661 -0.0508 -0.4711 -0.0142
  868YOPE   C1B12903  15.409   2.957   5.947  0.1230  0.1948 -0.0120
  868YOPE   C2B12904  15.728   2.746   6.106  0.2041  0.1609 -0.0513
  868YOPE   D3B12905  16.061   2.586   6.334  0.1700  0.0562  0.0379
  868YOPE   C4B12906  16.223   2.234   6.342 -0.1806 -0.0565 -0.1782
  869YOPE   NH312907   7.058  11.741   5.638 -0.1295  0.2571  0.2489
  869YOPE   PO412908   6.987  12.212   5.720 -0.4401 -0.1943 -0.2174
  869YOPE   GL112909   6.892  12.005   6.114  0.0425 -0.0219  0.3055
  869YOPE   GL212910   7.131  11.829   6.185  0.1225  0.0338  0.1336
  869YOPE   C1A12911   6.573  11.987   6.619  0.0677 -0.0502 -0.1815
  869YOPE   D2A12912   6.424  12.363   6.911  0.0473  0.1709  0.1782
  869YOPE   C3A12913   6.750  12.698   6.987  0.1915 -0.5020 -0.0025
  869YOPE   C4A12914   6.908  13.129   7.167 -0.2093 -0.0528  0.1799
  869YOPE   C1B12915   7.037  11.744   6.616 -0.0588 -0.3400 -0.2239
  869YOPE   C2B12916   6.878  11.472   7.017 -0.1363 -0.1771  0.1752
  869YOPE   D3B12917   6.495  11.238   7.007  0.1667  0.0553 -0.4543
  869YOPE   C4B12918   6.228  11.006   6.817  0.0164  0.1697 -0.3379
  870YOPE   NH312919   7.229   8.765   5.683  0.4804 -0.0734 -0.0366
  870YOPE   PO412920   6.917   8.473   5.700 -0.1642 -0.2995 -0.0089
  870YOPE   GL112921   6.849   8.784   6.115  0.1886  0.1090  0.0617
  870YOPE   GL212922   7.096   9.067   6.170  0.2761  0.1373  0.0738
  870YOPE   C1A12923   6.563   8.910   6.365  0.1900  0.0474 -0.2260
  870YOPE   D2A12924   6.128   9.073   6.297 -0.0051 -0.1591 -0.2965
  870YOPE   C3A12925   6.249   9.439   6.535  0.3708  0.3398  0.0130
  870YOPE   C4A12926   6.358   9.662   6.929 -0.1324 -0.1902 -0.2532
  870YOPE   C1B12927   6.840   9.257   6.516 -0.1775 -0.3480 -0.0759
  870YOPE   C2B12928   7.057   9.361   6.840  0.2930 -0.2739 -0.0250
  870YOPE   D3B12929   7.282   9.451   7.160 -0.0155  0.2004  0.0691
  870YOPE   C4B12930   7.466   9.225   7.476  0.1381  0.1902  0.1179
  871YOPE   NH312931  15.233  16.784   4.959 -0.1807 -0.2245 -0.1139
  871YOPE   PO412932  15.204  17.294   4.771  0.3645  0.1008  0.0269
  871YOPE   GL112933  14.923  17.110   5.162  0.1224  0.2037  0.0970
  871YOPE   GL212934  14.908  17.391   5.321 -0.1261  0.1769 -0.0649
  871YOPE   C1A12935  15.045  16.905   5.580  0.0189 -0.0074 -0.1102
  871YOPE   D2A12936  15.212  16.569   5.789  0.2195  0.1107 -0.2523
  871YOPE   C3A12937  14.988  16.385   6.122 -0.0800  0.1068  0.2836
  871YOPE   C4A12938  14.694  16.562   6.213  0.0133  0.2985 -0.2724
  871YOPE   C1B12939  14.971  17.345   5.695  0.0028  0.3030 -0.1925
  871YOPE   C2B12940  14.939  17.216   6.100 -0.0853  0.0440  0.1503
  871YOPE   D3B12941  14.918  17.038   6.575  0.2384 -0.2506 -0.2855
  871YOPE   C4B12942  15.044  17.193   6.984  0.2101 -0.1619  0.1760
  872YOPE   NH312943   2.168   6.457   5.257 -0.1298 -0.2217  0.3181
  872YOPE   PO412944   2.506   6.348   5.482  0.2317  0.1233  0.2734
  872YOPE   GL112945   2.617   6.047   5.889  0.2811 -0.1473  0.0779
  872YOPE   GL212946   2.901   6.067   5.960 -0.1256  0.0007  0.1612
  872YOPE   C1A12947   2.383   5.766   6.189 -0.0070  0.0967  0.3529
  872YOPE   D2A12948   2.280   5.387   6.273  0.0105 -0.0178  0.1228
  872YOPE   C3A12949   2.478   5.391   6.682 -0.1066 -0.0313 -0.2292
  872YOPE   C4A12950   2.774   5.575   6.967  0.0434 -0.0005  0.3330
  872YOPE   C1B12951   2.844   6.374   6.323  0.0491  0.1089 -0.2308
  872YOPE   C2B12952   2.982   6.390   6.714  0.0279  0.2102  0.0017
  872YOPE   D3B12953   3.141   6.524   7.195  0.1296 -0.0423 -0.1271
  872YOPE   C4B12954   2.790   6.671   7.491  0.1665  0.0805  0.3575
  873YOPE   NH312955  19.040  19.172   4.625 -0.0975  0.2976 -0.1297
  873YOPE   PO412956  19.398  18.960   4.729  0.2053  0.1836  0.2710
  873YOPE   GL112957  19.320  18.888   5.097 -0.0690  0.1445  0.3166
  873YOPE   GL212958  19.443  18.610   5.152 -0.2083 -0.1682  0.2327
  873YOPE   C1A12959  19.264  18.945   5.525 -0.1543  0.0168  0.0850
  873YOPE   D2A12960  19.025  18.837   5.862  0.2030  0.0024  0.2461
  873YOPE   C3A12961  18.977  18.463   6.167  0.2250 -0.2237  0.2508
  873YOPE   C4A12962  18.782  18.069   6.168  0.0480  0.1142 -0.0187
  873YOPE   C1B12963  19.499  18.526   5.561 -0.2361 -0.0637 -0.3349
  873YOPE   C2B12964  19.482  18.530   5.922  0.2683  0.1609 -0.1697
  873YOPE   D3B12965  19.478  18.517   6.372  0.1264 -0.2641 -0.2185
  873YOPE   C4B12966  19.183  18.325   6.594 -0.0199  0.1777  0.6333
  874YOPE   NH312967   9.232   1.549   5.613  0.2146 -0.0658  0.2973
  874YOPE   PO412968   8.788   1.193   5.509  0.1529  0.0974  0.1484
  874YOPE   GL112969   9.109   1.124   5.883  0.1854 -0.2581 -0.0658
  874YOPE   GL212970   9.398   1.197   6.050 -0.1383 -0.3804  0.0709
  874YOPE   C1A12971   8.974   1.161   6.310 -0.1011 -0.1939  0.2581
  874YOPE   D2A12972   9.310   1.116   6.672 -0.1082 -0.0370 -0.0656
  874YOPE   C3A12973   9.215   1.145   7.048  0.0568  0.3120 -0.3269
  874YOPE   C4A12974   8.854   1.302   7.280  0.0299 -0.0233 -0.0451
  874YOPE   C1B12975   9.518   0.878   6.120 -0.1134 -0.0892 -0.2205
  874YOPE   C2B12976   9.580   0.647   6.556  0.3758 -0.0027 -0.3693
  874YOPE   D3B12977   9.544   0.393   6.794  0.1042  0.1029 -0.0898
  874YOPE   C4B12978   9.545   0.222   7.046  0.0732  0.1170  0.1918
  875YOPE   NH312979  19.248   3.799   4.922 -0.3385 -0.1284 -0.1031
  875YOPE   PO412980  19.267   3.351   5.036  0.0888  0.1301 -0.0599
  875YOPE   GL112981  19.294   3.625   5.456 -0.0069  0.1077  0.0216
  875YOPE   GL212982  19.617   3.601   5.711  0.1940  0.0378 -0.2008
  875YOPE   C1A12983  18.985   3.783   5.778 -0.1709 -0.0374  0.1218
  875YOPE   D2A12984  18.831   4.186   6.056  0.3574 -0.1517  0.0978
  875YOPE   C3A12985  18.900   4.221   6.393  0.1207 -0.2501 -0.2373
  875YOPE   C4A12986  18.688   4.248   6.726  0.0359  0.1204 -0.1609
  875YOPE   C1B12987  20.012   3.651   5.892 -0.0975 -0.0762  0.1351
  875YOPE   C2B12988  20.229   3.372   6.133 -0.1570  0.0395  0.0746
  875YOPE   D3B12989  20.231   3.187   6.549  0.1937  0.2819 -0.0339
  875YOPE   C4B12990  19.859   3.006   6.839  0.2155 -0.2173 -0.2032
  876YOPE   NH312991  16.527   3.793   5.082  0.5323  0.0069  0.2989
  876YOPE   PO412992  16.667   3.518   5.341  0.2599 -0.3243  0.1018
  876YOPE   GL112993  16.966   3.615   5.696 -0.0009  0.0511  0.0772
  876YOPE   GL212994  17.255   3.806   5.641  0.0654 -0.3603  0.4047
  876YOPE   C1A12995  16.886   3.483   6.064  0.0543 -0.0604  0.0304
  876YOPE   D2A12996  16.738   3.642   6.404 -0.0985 -0.1184 -0.1972
  876YOPE   C3A12997  17.015   3.882   6.456  0.0667  0.4223  0.1666
  876YOPE   C4A12998  17.333   3.762   6.121 -0.2416 -0.2105 -0.1749
  876YOPE   C1B12999  17.039   4.106   5.867 -0.0986  0.0762  0.0962
  876YOPE   C2B13000  16.912   4.319   6.211 -0.1615 -0.1952  0.1762
  876YOPE   D3B13001  16.758   4.478   6.643 -0.1981 -0.0787 -0.1888
  876YOPE   C4B13002  16.944   4.564   7.045  0.2169  0.1401 -0.2182
  877YOPE   NH313003   6.368  12.936   5.529  0.0832 -0.4475  0.1049
  877YOPE   PO413004   6.465  13.375   5.590  0.1467  0.3484 -0.0496
  877YOPE   GL113005   6.166  13.568   5.762  0.3360  0.0050  0.0743
  877YOPE   GL213006   6.322  13.903   5.895  0.0688  0.4182 -0.1280
  877YOPE   C1A13007   6.021  13.551   6.200 -0.0503  0.1483 -0.0255
  877YOPE   D2A13008   6.106  13.392   6.648  0.0734  0.0250 -0.1903
  877YOPE   C3A13009   6.564  13.241   6.823  0.1274 -0.1765 -0.1879
  877YOPE   C4A13010   6.888  12.988   6.596  0.2876 -0.5347 -0.0674
  877YOPE   C1B13011   6.142  14.059   6.280 -0.0520 -0.0295 -0.2948
  877YOPE   C2B13012   6.002  13.921   6.620 -0.0209  0.2903  0.0202
  877YOPE   D3B13013   5.910  14.063   6.995  0.2352  0.1535  0.0848
  877YOPE   C4B13014   6.064  14.189   7.341  0.2459  0.3200 -0.1115
  878YOPE   NH313015   6.913  18.802   5.319  0.2086 -0.0065  0.2458
  878YOPE   PO413016   7.320  18.606   5.274  0.0334 -0.1618 -0.1041
  878YOPE   GL113017   7.554  18.713   5.669  0.0521 -0.2545  0.1905
  878YOPE   GL213018   7.416  18.551   5.972  0.0418  0.3800  0.0669
  878YOPE   C1A13019   7.656  19.041   5.950  0.0936  0.0538  0.1331
  878YOPE   D2A13020   8.001  19.323   6.126 -0.2038  0.3081 -0.1186
  878YOPE   C3A13021   8.225  19.326   6.371  0.0526  0.0287 -0.3212
  878YOPE   C4A13022   8.501  18.997   6.413  0.1444 -0.0089  0.0358
  878YOPE   C1B13023   7.639  18.560   6.372  0.1539  0.0151 -0.2104
  878YOPE   C2B13024   7.553  18.700   6.690  0.1515 -0.1331 -0.1349
  878YOPE   D3B13025   7.153  18.865   6.734 -0.1875  0.2228  0.1957
  878YOPE   C4B13026   6.737  18.892   6.924 -0.3370  0.0414  0.0371
  879YOPE   NH313027   9.837  16.019   5.205 -0.2118 -0.0088  0.2823
  879YOPE   PO413028   9.820  16.164   5.477  0.4378  0.1342 -0.0290
  879YOPE   GL113029   9.749  16.201   5.862 -0.1451 -0.0847  0.1447
  879YOPE   GL213030   9.512  16.062   6.011  0.0725  0.0141 -0.1514
  879YOPE   C1A13031   9.868  16.352   6.328 -0.1055 -0.1081 -0.0459
  879YOPE   D2A13032   9.667  16.640   6.671 -0.2097  0.0402 -0.3192
  879YOPE   C3A13033   9.475  16.979   6.574 -0.0487 -0.0911  0.0061
  879YOPE   C4A13034   8.965  17.172   6.651  0.2246 -0.2345 -0.2360
  879YOPE   C1B13035   9.739  15.713   6.261  0.3822  0.1227 -0.0113
  879YOPE   C2B13036   9.841  15.494   6.579 -0.0536 -0.3067  0.0164
  879YOPE   D3B13037   9.706  15.164   6.853 -0.0957  0.3341 -0.2359
  879YOPE   C4B13038   9.678  14.731   6.789 -0.3985  0.1560 -0.0205
  880YOPE   NH313039   2.397  14.146   5.190  0.1222 -0.1842  0.3418
  880YOPE   PO413040   2.808  14.020   5.260 -0.1612  0.1469  0.1002
  880YOPE   GL113041   3.053  14.229   5.508 -0.2687  0.0492 -0.1361
  880YOPE   GL213042   2.785  14.502   5.609 -0.0091 -0.1755  0.0501
  880YOPE   C1A13043   3.015  14.183   5.994 -0.1582  0.0952 -0.2526
  880YOPE   D2A13044   2.666  14.158   6.194  0.2153 -0.0701 -0.2723
  880YOPE   C3A13045   2.634  14.447   6.434 -0.3008  0.1677 -0.1205
  880YOPE   C4A13046   2.861  14.496   6.827 -0.1072 -0.4236  0.0112
  880YOPE   C1B13047   2.852  14.668   6.063 -0.1582  0.1201 -0.2724
  880YOPE   C2B13048   3.128  14.717   6.440 -0.0595  0.2463 -0.2682
  880YOPE   D3B13049   3.381  14.475   6.778 -0.1694  0.2799  0.0207
  880YOPE   C4B13050   3.579  14.121   6.777 -0.0952 -0.5049 -0.4021
  881YOPE   NH313051  10.996   8.944   5.276 -0.1273  0.3377 -0.2718
  881YOPE   PO413052  10.759   8.597   5.545  0.0400 -0.0579  0.1681
  881YOPE   GL113053  10.706   8.736   5.960 -0.3639  0.1027  0.0801
  881YOPE   GL213054  10.591   9.122   6.034  0.1025 -0.0246  0.0995
  881YOPE   C1A13055  10.874   8.484   6.189  0.1559  0.3292  0.0289
  881YOPE   D2A13056  10.767   8.222   6.424 -0.0394 -0.0095 -0.1453
  881YOPE   C3A13057  10.914   7.748   6.394  0.1419 -0.1564  0.1466
  881YOPE   C4A13058  11.115   7.363   6.406 -0.0875  0.2280  0.2416
  881YOPE   C1B13059  11.005   9.003   6.220 -0.0346  0.0701  0.2543
  881YOPE   C2B13060  11.249   9.285   6.513  0.0982 -0.0649  0.1953
  881YOPE   D3B13061  11.385   9.732   6.683  0.3090  0.1822 -0.0248
  881YOPE   C4B13062  11.475  10.088   6.955  0.0590  0.0488 -0.0750
  882YOPE   NH313063  16.068  15.061   5.157 -0.0071 -0.0801  0.3957
  882YOPE   PO413064  16.461  15.293   5.131 -0.0346 -0.4113  0.0119
  882YOPE   GL113065  16.192  15.517   5.381  0.1390 -0.0787 -0.0998
  882YOPE   GL213066  16.189  15.729   5.593  0.4695  0.0876 -0.2173
  882YOPE   C1A13067  15.788  15.350   5.623 -0.0823 -0.2150  0.0003
  882YOPE   D2A13068  15.759  15.219   6.149  0.1500 -0.0892 -0.1238
  882YOPE   C3A13069  15.612  15.047   6.506 -0.1407  0.1230 -0.2412
  882YOPE   C4A13070  15.775  14.999   6.911  0.3151 -0.0399 -0.0283
  882YOPE   C1B13071  16.058  15.971   6.021  0.1221 -0.1227  0.2370
  882YOPE   C2B13072  15.935  16.281   6.301 -0.0695 -0.3609  0.2696
  882YOPE   D3B13073  15.551  16.579   6.327 -0.2233 -0.1070  0.2668
  882YOPE   C4B13074  15.195  16.798   6.274 -0.2258  0.2410  0.1224
  883YOPE   NH313075   2.124   1.840   5.495 -0.0321 -0.3245 -0.3911
  883YOPE   PO413076   2.268   1.492   5.454  0.2537 -0.1198 -0.1809
  883YOPE   GL113077   2.486   1.606   5.875  0.0841 -0.1313 -0.4852
  883YOPE   GL213078   2.774   1.473   5.982 -0.2671 -0.0522 -0.0888
  883YOPE   C1A13079   2.311   1.808   6.250  0.0563  0.0263 -0.4032
  883YOPE   D2A13080   2.068   2.030   6.622 -0.2210 -0.0030 -0.0645
  883YOPE   C3A13081   1.721   2.323   6.547 -0.0234  0.1111 -0.2064
  883YOPE   C4A13082   1.606   2.748   6.549  0.1122 -0.1563 -0.1330
  883YOPE   C1B13083   2.894   1.138   6.296 -0.2500  0.0931 -0.1729
  883YOPE   C2B13084   2.998   0.893   6.684  0.1425 -0.2376 -0.1537
  883YOPE   D3B13085   2.811   0.670   6.964 -0.0518 -0.2309  0.0814
  883YOPE   C4B13086   2.995   0.516   7.389 -0.0019  0.0254 -0.2216
  884YOPE   NH313087  12.899   1.784   5.661 -0.3196 -0.0951 -0.0025
  884YOPE   PO413088  13.157   2.181   5.668 -0.0258 -0.1460 -0.0551
  884YOPE   GL113089  13.169   2.599   5.895  0.0718 -0.1987  0.0551
  884YOPE   GL213090  13.405   2.803   5.780  0.2999 -0.2126  0.1551
  884YOPE   C1A13091  12.919   2.903   6.028 -0.0071 -0.3925 -0.1504
  884YOPE   D2A13092  12.532   3.171   5.997 -0.1589  0.0505  0.0908
  884YOPE   C3A13093  12.157   3.255   6.314 -0.1359  0.1369  0.0695
  884YOPE   C4A13094  12.166   3.442   6.751 -0.0586 -0.0631 -0.0151
  884YOPE   C1B13095  13.722   3.000   6.077 -0.0855 -0.3238  0.1803
  884YOPE   C2B13096  13.679   3.197   6.528 -0.0830  0.1344 -0.1258
  884YOPE   D3B13097  13.556   3.031   6.950  0.0384 -0.0063  0.0425
  884YOPE   C4B13098  13.490   3.174   7.332 -0.2653  0.1780  0.2637
  885YOPE   NH313099   2.489  13.237   4.979  0.1095  0.0165  0.0073
  885YOPE   PO413100   2.463  12.929   4.874 -0.2965 -0.0781  0.0092
  885YOPE   GL113101   2.354  12.805   5.327 -0.0855  0.3610  0.2253
  885YOPE   GL213102   2.118  12.685   5.393 -0.1915  0.3373  0.1680
  885YOPE   C1A13103   2.486  12.727   5.760 -0.3493 -0.1755  0.0408
  885YOPE   D2A13104   2.521  12.754   6.113 -0.1443  0.2431  0.4603
  885YOPE   C3A13105   2.498  12.280   6.339  0.0240  0.0063 -0.1357
  885YOPE   C4A13106   2.451  11.821   6.522  0.1961  0.0424 -0.1627
  885YOPE   C1B13107   2.083  12.485   5.824 -0.1518  0.1364 -0.2381
  885YOPE   C2B13108   1.864  12.364   6.219  0.2138 -0.2881 -0.0817
  885YOPE   D3B13109   1.651  12.428   6.596  0.1544  0.2473  0.2794
  885YOPE   C4B13110   1.722  12.532   6.901  0.1449  0.0336  0.0001
  886YOPE   NH313111  18.120   1.232   4.976 -0.1498 -0.0741 -0.2571
  886YOPE   PO413112  18.394   1.091   4.953  0.4440 -0.0267 -0.0352
  886YOPE   GL113113  18.404   1.279   5.451  0.1127 -0.2011 -0.0442
  886YOPE   GL213114  18.509   1.574   5.523  0.1894  0.0834  0.2119
  886YOPE   C1A13115  18.179   1.279   5.864 -0.0115 -0.1442  0.2941
  886YOPE   D2A13116  18.063   0.848   6.113 -0.0947  0.0030 -0.1914
  886YOPE   C3A13117  17.944   0.945   6.571  0.1025 -0.0994 -0.1370
  886YOPE   C4A13118  17.845   0.544   6.900  0.0662  0.0846  0.2588
  886YOPE   C1B13119  18.130   1.747   5.703 -0.0711 -0.3290  0.0228
  886YOPE   C2B13120  18.128   2.139   6.108  0.1302 -0.2324 -0.1867
  886YOPE   D3B13121  18.339   2.400   6.382  0.2311  0.0623  0.1775
  886YOPE   C4B13122  18.669   2.599   6.390  0.3389  0.0369 -0.3030
  887YOPE   NH313123   4.466  14.466   5.285 -0.1961  0.0591  0.3057
  887YOPE   PO413124   4.973  14.561   5.286 -0.0084 -0.2871 -0.3898
  887YOPE   GL113125   4.780  14.297   5.612 -0.1688 -0.2899 -0.0574
  887YOPE   GL213126   4.895  14.036   5.744  0.4075  0.3362  0.1942
  887YOPE   C1A13127   4.503  14.306   5.973  0.1322  0.3337 -0.3233
  887YOPE   D2A13128   4.452  14.025   6.275 -0.1292  0.3291 -0.3177
  887YOPE   C3A13129   4.206  13.761   6.154 -0.2135 -0.0898  0.0590
  887YOPE   C4A13130   3.917  13.624   5.941  0.2388  0.3284  0.1498
  887YOPE   C1B13131   4.952  13.902   6.169 -0.1840 -0.0410 -0.0087
  887YOPE   C2B13132   4.929  13.909   6.556 -0.1641  0.0821  0.4372
  887YOPE   D3B13133   4.831  14.225   6.818 -0.2320 -0.2128 -0.0797
  887YOPE   C4B13134   4.473  14.280   7.148 -0.2045  0.0500  0.1646
  888YOPE   NH313135  14.291   2.786   5.123 -0.3006  0.1976 -0.1090
  888YOPE   PO413136  13.987   2.801   5.436 -0.1104  0.1197 -0.2300
  888YOPE   GL113137  14.125   2.890   5.751 -0.0961  0.0786  0.3058
  888YOPE   GL213138  14.252   3.088   5.894  0.1139  0.1082  0.2212
  888YOPE   C1A13139  14.124   2.611   6.057  0.2770  0.2172  0.1278
  888YOPE   D2A13140  14.121   2.379   6.328 -0.1217 -0.0403  0.1161
  888YOPE   C3A13141  14.082   2.147   6.679  0.1157  0.0648 -0.0491
  888YOPE   C4A13142  14.379   2.142   6.938  0.2400 -0.3652  0.2837
  888YOPE   C1B13143  14.157   2.989   6.347  0.2471 -0.0360  0.2557
  888YOPE   C2B13144  14.087   3.121   6.799  0.2186 -0.1592  0.0875
  888YOPE   D3B13145  13.991   2.831   7.171  0.0873  0.2073 -0.1755
  888YOPE   C4B13146  13.830   2.803   7.556  0.3051  0.1074 -0.0420
  889YOPE   NH313147   8.556   3.923   5.623 -0.2247 -0.0074 -0.0641
  889YOPE   PO413148   8.650   3.594   5.476  0.0986  0.1913  0.4560
  889YOPE   GL113149   8.763   3.561   5.958  0.0955 -0.1463  0.0483
  889YOPE   GL213150   9.026   3.330   5.903 -0.3240  0.3260  0.0256
  889YOPE   C1A13151   8.495   3.350   6.229  0.2570 -0.0809  0.0070
  889YOPE   D2A13152   8.179   3.240   6.462  0.4437 -0.0627  0.3104
  889YOPE   C3A13153   8.283   3.334   6.827  0.1693 -0.0240  0.1648
  889YOPE   C4A13154   8.523   3.302   7.185  0.1797  0.0999  0.0044
  889YOPE   C1B13155   8.942   2.947   6.188  0.1135 -0.0025  0.0300
  889YOPE   C2B13156   9.203   2.973   6.581  0.2408  0.1139 -0.1948
  889YOPE   D3B13157   9.361   2.739   7.008  0.1423 -0.3524  0.0041
  889YOPE   C4B13158   9.318   3.110   7.304  0.0416  0.1444 -0.1091
  890YOPE   NH313159  18.322  11.179   5.172  0.0914  0.0549 -0.1244
  890YOPE   PO413160  17.901  11.091   4.983  0.1403  0.1282 -0.0695
  890YOPE   GL113161  17.891  10.950   5.434  0.1828  0.0149  0.1974
  890YOPE   GL213162  18.071  10.993   5.570 -0.1711  0.1864  0.1503
  890YOPE   C1A13163  17.635  10.772   5.708  0.1253 -0.2280 -0.3310
  890YOPE   D2A13164  17.338  10.897   5.930  0.0737 -0.1471  0.3002
  890YOPE   C3A13165  17.290  11.103   6.211  0.2979 -0.0403  0.3148
  890YOPE   C4A13166  17.315  11.206   6.663  0.2030  0.3103 -0.1131
  890YOPE   C1B13167  17.774  11.251   5.885 -0.4310  0.2067  0.0511
  890YOPE   C2B13168  17.347  11.474   5.646 -0.2835  0.0936  0.2286
  890YOPE   D3B13169  17.080  11.432   5.863  0.1315 -0.2163 -0.2695
  890YOPE   C4B13170  16.935  11.446   6.365 -0.1541 -0.2133 -0.0174
  891YOPE   NH313171   1.570   5.915   5.578 -0.0887  0.0709  0.0531
  891YOPE   PO413172   1.713   6.418   5.471 -0.1130 -0.0019  0.0690
  891YOPE   GL113173   2.051   6.170   5.678 -0.0128 -0.1129 -0.2228
  891YOPE   GL213174   2.044   5.905   5.869 -0.3246  0.0519  0.3586
  891YOPE   C1A13175   2.239   6.333   6.175  0.5746 -0.0077 -0.2610
  891YOPE   D2A13176   2.124   6.075   6.527 -0.1878 -0.1847 -0.2501
  891YOPE   C3A13177   2.006   6.246   6.973  0.1500  0.1232 -0.0769
  891YOPE   C4A13178   1.902   6.642   7.126 -0.0141  0.2739  0.1234
  891YOPE   C1B13179   1.729   6.226   6.114  0.0312  0.1040 -0.0413
  891YOPE   C2B13180   1.333   6.498   6.286 -0.0317 -0.1856  0.1309
  891YOPE   D3B13181   0.908   6.526   6.409 -0.0797  0.2872  0.3290
  891YOPE   C4B13182   0.658   6.290   6.683  0.4130 -0.0702  0.1128
  892YOPE   NH313183  13.399   6.442   5.619 -0.0535  0.0909  0.1569
  892YOPE   PO413184  13.104   6.796   5.524  0.0198 -0.1892 -0.0676
  892YOPE   GL113185  13.401   6.993   5.783 -0.2054  0.1438  0.1787
  892YOPE   GL213186  13.454   7.361   5.860 -0.2357 -0.2006  0.0146
  892YOPE   C1A13187  13.590   7.007   6.177 -0.2569 -0.0102  0.1343
  892YOPE   D2A13188  13.433   7.092   6.631  0.1303  0.3657 -0.0940
  892YOPE   C3A13189  13.358   6.890   7.061  0.0277 -0.3277 -0.0800
  892YOPE   C4A13190  13.543   6.879   7.384 -0.2567  0.1846 -0.1684
  892YOPE   C1B13191  13.408   7.571   6.284  0.1891  0.1583  0.2518
  892YOPE   C2B13192  13.400   7.957   6.559 -0.1579  0.0103 -0.1541
  892YOPE   D3B13193  13.379   8.224   6.935  0.0678 -0.0169 -0.3005
  892YOPE   C4B13194  13.757   8.298   7.273  0.1718 -0.3303  0.0733
  893YOPE   NH313195  13.452   2.182   5.268  0.1787  0.1978  0.1845
  893YOPE   PO413196  13.926   2.406   5.103  0.1696  0.1575  0.1315
  893YOPE   GL113197  13.781   2.351   5.590  0.3726 -0.0882  0.1478
  893YOPE   GL213198  13.663   2.062   5.713  0.1403 -0.0280 -0.1482
  893YOPE   C1A13199  13.671   2.526   6.121 -0.1660 -0.4213 -0.1121
  893YOPE   D2A13200  13.782   2.708   6.609 -0.0410 -0.2396  0.0160
  893YOPE   C3A13201  13.767   2.427   6.964  0.2519  0.0608  0.0402
  893YOPE   C4A13202  13.654   2.152   7.367  0.4120 -0.2515 -0.0827
  893YOPE   C1B13203  13.764   2.046   6.202 -0.0409  0.1759 -0.3012
  893YOPE   C2B13204  13.565   2.120   6.522 -0.0913 -0.1300 -0.2367
  893YOPE   D3B13205  13.213   2.420   6.618  0.2014  0.2319 -0.2343
  893YOPE   C4B13206  12.922   2.181   6.841 -0.0682 -0.1621 -0.0527
  894YOPE   NH313207   9.304   7.620   5.964 -0.0446  0.5057  0.1378
  894YOPE   PO413208   9.376   7.998   5.729  0.2445  0.0419  0.1071
  894YOPE   GL113209   9.312   8.072   6.141 -0.2435 -0.2933  0.0870
  894YOPE   GL213210   9.011   7.947   6.241  0.3848  0.1145 -0.1966
  894YOPE   C1A13211   9.363   7.850   6.604  0.0429  0.3481  0.0509
  894YOPE   D2A13212   9.513   7.782   7.050  0.0925 -0.0020  0.1416
  894YOPE   C3A13213   9.661   7.508   7.308  0.1467 -0.2562 -0.0644
  894YOPE   C4A13214  10.063   7.271   7.211 -0.1178 -0.0352  0.2078
  894YOPE   C1B13215   8.696   7.871   6.529  0.0293 -0.2697 -0.0040
  894YOPE   C2B13216   8.536   7.687   6.940 -0.2795 -0.0306  0.1399
  894YOPE   D3B13217   8.398   7.384   7.092  0.2749 -0.2511  0.0311
  894YOPE   C4B13218   8.449   7.007   7.136  0.1450 -0.0870 -0.0275
  895YOPE   NH313219   9.703   1.054   5.550 -0.0001  0.3123 -0.0416
  895YOPE   PO413220  10.171   1.214   5.530 -0.0494  0.1312 -0.1033
  895YOPE   GL113221  10.407   1.212   5.853  0.4134 -0.3667 -0.1733
  895YOPE   GL213222  10.548   0.981   5.818 -0.0511 -0.0287 -0.0622
  895YOPE   C1A13223  10.388   1.340   6.355 -0.1783  0.1383 -0.0306
  895YOPE   D2A13224  10.239   1.519   6.679  0.0316 -0.1244 -0.0413
  895YOPE   C3A13225  10.378   1.771   7.060  0.0211 -0.0851  0.2778
  895YOPE   C4A13226  10.775   2.004   7.096  0.1974 -0.2649 -0.4213
  895YOPE   C1B13227  10.366   0.829   6.273 -0.0253  0.0549 -0.0931
  895YOPE   C2B13228  10.505   0.972   6.700  0.0244 -0.0762  0.3808
  895YOPE   D3B13229  10.583   1.272   6.959  0.0574 -0.0409 -0.4032
  895YOPE   C4B13230  10.536   1.352   7.476  0.2565  0.1140  0.0968
  896YOPE   NH313231  17.623   6.000   5.497  0.1619 -0.0718 -0.0316
  896YOPE   PO413232  17.499   6.340   5.685 -0.2300  0.2768  0.0024
  896YOPE   GL113233  17.293   5.939   5.863 -0.0753 -0.3288 -0.2521
  896YOPE   GL213234  17.639   5.927   5.989  0.1187 -0.1919 -0.2361
  896YOPE   C1A13235  17.226   5.636   6.271 -0.0983 -0.0044  0.3074
  896YOPE   D2A13236  17.132   5.689   6.653 -0.0195 -0.1404 -0.0596
  896YOPE   C3A13237  17.186   6.144   6.761 -0.3117  0.0532  0.0328
  896YOPE   C4A13238  17.401   6.226   7.173 -0.1210  0.2815  0.2064
  896YOPE   C1B13239  17.648   5.890   6.473 -0.2091  0.0742 -0.3363
  896YOPE   C2B13240  17.815   5.804   6.853  0.0309 -0.3027 -0.1238
  896YOPE   D3B13241  17.725   5.868   7.204  0.2007  0.3459 -0.1791
  896YOPE   C4B13242  17.472   5.981   7.573  0.2332  0.0463 -0.2514
  897YOPE   NH313243  12.567   8.536   5.507 -0.1840 -0.0341  0.1191
  897YOPE   PO413244  12.230   8.754   5.782 -0.2081 -0.1880 -0.2848
  897YOPE   GL113245  12.228   8.601   6.118 -0.2231 -0.0317 -0.0686
  897YOPE   GL213246  12.406   8.221   6.028 -0.0042  0.0077  0.1254
  897YOPE   C1A13247  11.940   8.857   6.461 -0.0897 -0.3348 -0.0596
  897YOPE   D2A13248  11.822   8.812   6.786 -0.0812  0.2347 -0.2605
  897YOPE   C3A13249  11.421   8.774   7.027 -0.1670 -0.2492  0.0661
  897YOPE   C4A13250  11.218   8.966   7.294  0.2471  0.0557 -0.3652
  897YOPE   C1B13251  12.575   8.355   6.466 -0.1649 -0.0738 -0.0454
  897YOPE   C2B13252  12.603   8.477   6.930 -0.1828  0.0998 -0.3043
  897YOPE   D3B13253  12.803   8.234   7.267  0.0046  0.1556  0.0292
  897YOPE   C4B13254  13.171   8.003   7.416 -0.1253 -0.0268 -0.1999
  898YOPE   NH313255   4.320  17.531   5.112 -0.1254  0.0607  0.0546
  898YOPE   PO413256   3.980  17.574   5.371  0.1531  0.1431  0.1422
  898YOPE   GL113257   3.834  17.517   5.727  0.2425  0.3387  0.1757
  898YOPE   GL213258   3.534  17.369   5.618 -0.0287 -0.3275 -0.2061
  898YOPE   C1A13259   3.566  17.366   6.161  0.1814 -0.1013 -0.1607
  898YOPE   D2A13260   3.572  17.421   6.490 -0.2536 -0.3139 -0.0498
  898YOPE   C3A13261   3.729  17.106   6.799  0.0850 -0.2087  0.0264
  898YOPE   C4A13262   4.107  16.978   6.892  0.2724 -0.0942  0.0335
  898YOPE   C1B13263   3.127  17.338   5.936  0.1367 -0.1435  0.3350
  898YOPE   C2B13264   2.981  17.479   6.276 -0.0781  0.2585 -0.0789
  898YOPE   D3B13265   2.789  17.814   6.404 -0.1243 -0.0885  0.0122
  898YOPE   C4B13266   3.016  18.212   6.297 -0.0160 -0.0524 -0.2309
  899YOPE   NH313267   7.727   1.533   5.750  0.3309  0.1791 -0.0751
  899YOPE   PO413268   8.075   1.572   5.721  0.0385 -0.1893 -0.0364
  899YOPE   GL113269   8.203   1.493   6.147 -0.0764  0.0716 -0.0973
  899YOPE   GL213270   8.540   1.447   6.295  0.2318 -0.2082  0.1063
  899YOPE   C1A13271   8.077   1.295   6.543  0.1488 -0.0402 -0.3530
  899YOPE   D2A13272   8.174   1.123   6.889  0.1971 -0.0432 -0.1060
  899YOPE   C3A13273   8.336   1.363   7.117  0.1786 -0.5010  0.2118
  899YOPE   C4A13274   8.456   1.594   7.508  0.1099 -0.1717  0.2325
  899YOPE   C1B13275   8.341   1.731   6.648 -0.0399 -0.1533  0.0143
  899YOPE   C2B13276   8.058   1.730   7.020  0.2058  0.3166 -0.1844
  899YOPE   D3B13277   7.966   1.539   7.517  0.1513  0.3335  0.3044
  899YOPE   C4B13278   7.869   1.582   7.928  0.2210 -0.0162 -0.2430
  900YOPE   NH313279   4.507  10.543   5.261 -0.2219 -0.1991 -0.0133
  900YOPE   PO413280   4.096  10.461   5.096  0.0823  0.0047  0.1392
  900YOPE   GL113281   3.800  10.497   5.345  0.0779  0.2595 -0.2439
  900YOPE   GL213282   3.760  10.747   5.583 -0.2146  0.0190 -0.0533
  900YOPE   C1A13283   3.476  10.206   5.513 -0.0206 -0.1568  0.3118
  900YOPE   D2A13284   3.171  10.275   5.871  0.0465 -0.3973 -0.2093
  900YOPE   C3A13285   3.304  10.466   6.207 -0.1214  0.0559  0.0080
  900YOPE   C4A13286   3.301  10.650   6.607 -0.0900 -0.0653 -0.3254
  900YOPE   C1B13287   3.798  10.490   5.833  0.1311 -0.0176 -0.2592
  900YOPE   C2B13288   3.782  10.420   6.295 -0.2095 -0.1076  0.1733
  900YOPE   D3B13289   3.873  10.215   6.545 -0.1995 -0.2653 -0.0885
  900YOPE   C4B13290   3.952  10.125   6.948  0.0492  0.0811  0.1629
  901YOPE   NH313291   8.878  12.142   5.330  0.1189  0.2572  0.2581
  901YOPE   PO413292   8.654  12.485   5.266  0.1087 -0.0174  0.0674
  901YOPE   GL113293   8.570  12.418   5.652  0.1110 -0.0778  0.1895
  901YOPE   GL213294   8.640  12.639   5.960 -0.3135  0.0615  0.2276
  901YOPE   C1A13295   8.432  12.157   5.995  0.2352  0.1054  0.0397
  901YOPE   D2A13296   8.502  11.861   6.378  0.0133  0.0148 -0.3070
  901YOPE   C3A13297   8.131  11.948   6.661 -0.0554 -0.0996  0.1462
  901YOPE   C4A13298   7.762  11.851   6.577  0.2869 -0.0920 -0.0329
  901YOPE   C1B13299   8.422  12.526   6.344 -0.0118  0.3345  0.2765
  901YOPE   C2B13300   8.348  12.359   6.732 -0.2817 -0.3290  0.0739
  901YOPE   D3B13301   8.273  12.616   7.142 -0.1155 -0.0114  0.1488
  901YOPE   C4B13302   8.319  13.011   7.199  0.0736 -0.1028  0.0059
  902YOPE   NH313303   3.838  11.517   5.232  0.0457  0.0130 -0.1057
  902YOPE   PO413304   3.597  11.120   5.153 -0.2542  0.2898  0.1065
  902YOPE   GL113305   3.443  11.261   5.478  0.0009 -0.2597  0.1544
  902YOPE   GL213306   3.310  11.515   5.423  0.1875 -0.2191 -0.4077
  902YOPE   C1A13307   3.518  11.205   5.955 -0.1134 -0.0492  0.0524
  902YOPE   D2A13308   3.188  10.989   6.228 -0.0359  0.0075 -0.5379
  902YOPE   C3A13309   3.298  11.147   6.726  0.2675 -0.4239 -0.0154
  902YOPE   C4A13310   2.983  11.270   6.811  0.1150  0.3452 -0.2884
  902YOPE   C1B13311   3.079  11.403   5.788  0.0754 -0.0790  0.0271
  902YOPE   C2B13312   3.233  11.511   6.284 -0.1663 -0.1531  0.2125
  902YOPE   D3B13313   3.675  11.407   6.444 -0.0953  0.0356 -0.1698
  902YOPE   C4B13314   4.045  11.633   6.409 -0.1317  0.0354 -0.2641
  903YOPE   NH313315  12.808  12.834   4.844 -0.1635 -0.2768 -0.3149
  903YOPE   PO413316  13.007  12.989   5.145  0.0046  0.2297 -0.3497
  903YOPE   GL113317  12.830  13.125   5.538  0.3129 -0.0776 -0.2536
  903YOPE   GL213318  12.871  12.929   5.725  0.2064  0.0691  0.0184
  903YOPE   C1A13319  12.843  13.447   5.750  0.1075 -0.2033  0.2148
  903YOPE   D2A13320  13.117  13.696   5.902 -0.0753 -0.1585  0.0767
  903YOPE   C3A13321  13.551  13.577   5.789 -0.6106 -0.3169  0.1194
  903YOPE   C4A13322  13.882  13.714   5.953 -0.0892 -0.2191  0.1425
  903YOPE   C1B13323  13.161  12.664   6.041 -0.0922 -0.0331  0.1661
  903YOPE   C2B13324  13.253  12.751   6.374  0.0356 -0.4047 -0.1222
  903YOPE   D3B13325  13.164  12.624   6.788 -0.1399  0.1412  0.0583
  903YOPE   C4B13326  12.918  12.607   7.160 -0.2506  0.1199  0.1823
  904YOPE   NH313327   8.618  16.127   5.495  0.2402 -0.3013  0.1359
  904YOPE   PO413328   8.852  16.440   5.522 -0.6181  0.3194  0.1189
  904YOPE   GL113329   8.975  16.466   5.920 -0.0760  0.2169  0.0744
  904YOPE   GL213330   8.749  16.719   5.921  0.1586 -0.2368  0.0788
  904YOPE   C1A13331   9.369  16.444   6.225  0.3991 -0.0816 -0.2751
  904YOPE   D2A13332   9.416  16.228   6.596 -0.3070 -0.4371 -0.0230
  904YOPE   C3A13333   9.681  16.016   6.693 -0.1796 -0.0828 -0.0569
  904YOPE   C4A13334  10.161  15.858   6.622  0.1626  0.2337  0.2783
  904YOPE   C1B13335   8.613  16.853   6.404 -0.3190 -0.0883  0.2065
  904YOPE   C2B13336   8.580  16.919   6.825 -0.1008  0.1186  0.1331
  904YOPE   D3B13337   8.660  17.278   7.082 -0.0795  0.5006  0.1501
  904YOPE   C4B13338   8.700  17.498   7.415 -0.3886  0.0361  0.0580
  905YOPE   NH313339  13.532   9.177   5.523  0.0933  0.1481 -0.3045
  905YOPE   PO413340  13.545   8.620   5.572 -0.1114 -0.1499 -0.0663
  905YOPE   GL113341  13.857   8.770   5.816 -0.1193 -0.0438 -0.1945
  905YOPE   GL213342  13.917   8.444   5.999  0.2981  0.0814  0.1904
  905YOPE   C1A13343  13.917   9.099   6.058 -0.1549  0.1158  0.1896
  905YOPE   D2A13344  13.659   9.312   6.268  0.1807  0.0572 -0.2679
  905YOPE   C3A13345  13.624   9.463   6.752  0.0375  0.1969 -0.1995
  905YOPE   C4A13346  13.642   9.303   7.161 -0.0229  0.4470  0.1035
  905YOPE   C1B13347  14.081   8.191   6.256 -0.0748 -0.1369  0.0428
  905YOPE   C2B13348  14.286   8.027   6.450 -0.1707 -0.0857 -0.2999
  905YOPE   D3B13349  14.617   7.913   6.698  0.0865 -0.2108  0.1701
  905YOPE   C4B13350  14.890   7.702   6.995 -0.2975 -0.1990  0.3458
  906YOPE   NH313351   9.603   5.616   5.997 -0.1821  0.1559 -0.0452
  906YOPE   PO413352   9.872   5.704   5.778 -0.0621 -0.0008  0.1267
  906YOPE   GL113353  10.135   5.546   6.105  0.3542 -0.0511 -0.1238
  906YOPE   GL213354  10.235   5.847   6.343  0.2917  0.0790 -0.2033
  906YOPE   C1A13355  10.220   5.378   6.532 -0.2681 -0.1333 -0.0629
  906YOPE   D2A13356  10.234   5.319   6.902 -0.1145  0.0523 -0.2931
  906YOPE   C3A13357  10.473   5.465   7.275 -0.1962  0.3274 -0.2066
  906YOPE   C4A13358  10.687   5.468   7.764 -0.0750  0.0800 -0.0873
  906YOPE   C1B13359  10.022   5.795   6.770 -0.0669  0.1040  0.1006
  906YOPE   C2B13360   9.745   5.971   7.123  0.0855 -0.3051 -0.2270
  906YOPE   D3B13361   9.596   6.007   7.621 -0.2296  0.0214 -0.0790
  906YOPE   C4B13362   9.489   5.559   7.802  0.1562 -0.0959  0.0682
  907YOPE   NH313363   9.327  17.455   5.329 -0.0682 -0.0988  0.1343
  907YOPE   PO413364   9.631  17.192   5.547 -0.1060  0.4139  0.1089
  907YOPE   GL113365   9.972  17.038   5.851 -0.0677 -0.0291  0.1069
  907YOPE   GL213366  10.154  17.266   5.967 -0.1026  0.0405  0.2234
  907YOPE   C1A13367   9.950  16.892   6.299 -0.1879 -0.0919 -0.1732
  907YOPE   D2A13368  10.052  16.898   6.718  0.0429  0.3659 -0.1538
  907YOPE   C3A13369  10.432  17.110   6.949  0.1702 -0.2196 -0.1305
  907YOPE   C4A13370  10.879  17.108   7.147  0.0639 -0.0294 -0.0643
  907YOPE   C1B13371   9.689  17.402   6.152  0.2120  0.2337  0.1143
  907YOPE   C2B13372   9.333  17.448   6.416 -0.0877 -0.0771 -0.1930
  907YOPE   D3B13373   9.599  17.484   6.785  0.1030 -0.0556  0.0231
  907YOPE   C4B13374   9.537  17.537   7.159  0.5988  0.0868  0.1398
  908YOPE   NH313375  16.833   4.688   5.204  0.2421  0.0339  0.1213
  908YOPE   PO413376  16.589   4.279   5.045 -0.1925 -0.2719  0.2461
  908YOPE   GL113377  16.656   4.288   5.455 -0.1753  0.0279  0.1376
  908YOPE   GL213378  16.671   3.981   5.498  0.0183 -0.0096 -0.1830
  908YOPE   C1A13379  16.623   4.504   5.848  0.4360  0.0233  0.0240
  908YOPE   D2A13380  17.063   4.581   5.789 -0.3379  0.0060  0.1233
  908YOPE   C3A13381  17.408   4.414   6.086  0.0135 -0.2166 -0.2187
  908YOPE   C4A13382  17.819   4.436   6.352  0.0575 -0.0929  0.2225
  908YOPE   C1B13383  16.573   3.910   5.929  0.2030  0.2438  0.0618
  908YOPE   C2B13384  16.518   4.115   6.382 -0.1118 -0.2019  0.0058
  908YOPE   D3B13385  16.664   3.979   6.846 -0.1210 -0.3239  0.1196
  908YOPE   C4B13386  17.138   3.832   6.946  0.2184 -0.0504 -0.0947
  909YOPE   NH313387   1.595  14.361   4.937 -0.2989 -0.0447  0.2772
  909YOPE   PO413388   1.946  14.417   5.215  0.0685  0.1499  0.1071
  909YOPE   GL113389   2.241  14.527   5.600  0.2094  0.0913 -0.1130
  909YOPE   GL213390   2.353  14.827   5.763 -0.0497  0.0107 -0.1203
  909YOPE   C1A13391   2.243  14.454   6.032 -0.2587 -0.2348  0.0900
  909YOPE   D2A13392   2.195  14.248   6.449  0.1282  0.0591 -0.1876
  909YOPE   C3A13393   1.914  14.263   6.723  0.1652 -0.4180  0.2076
  909YOPE   C4A13394   1.933  13.908   6.944 -0.2087  0.0878 -0.1863
  909YOPE   C1B13395   1.820  14.801   5.826 -0.2768  0.1104 -0.2334
  909YOPE   C2B13396   1.615  15.267   5.822  0.2018  0.3368 -0.1150
  909YOPE   D3B13397   1.492  15.682   5.887 -0.0785  0.0056  0.2673
  909YOPE   C4B13398   1.662  15.968   6.070 -0.0556  0.3098 -0.1676
  910YOPE   NH313399  13.832   4.965   5.721  0.2486 -0.1013  0.0753
  910YOPE   PO413400  13.698   4.621   5.366 -0.1121  0.1322  0.2740
  910YOPE   GL113401  13.708   4.509   5.863 -0.0579 -0.2265  0.1046
  910YOPE   GL213402  13.975   4.276   5.837  0.1250  0.1189  0.1049
  910YOPE   C1A13403  13.889   4.553   6.272 -0.2039 -0.2386 -0.1503
  910YOPE   D2A13404  14.015   4.630   6.763  0.4067 -0.2799  0.0184
  910YOPE   C3A13405  13.657   4.324   7.073  0.1803 -0.0172 -0.3607
  910YOPE   C4A13406  13.749   4.220   7.569  0.1956 -0.0254  0.2473
  910YOPE   C1B13407  14.067   4.034   6.160 -0.1351  0.3395  0.6083
  910YOPE   C2B13408  14.438   3.909   6.427 -0.2831 -0.2369  0.1572
  910YOPE   D3B13409  14.676   3.978   6.805  0.0891  0.3475 -0.1330
  910YOPE   C4B13410  14.841   3.774   7.175  0.1168  0.1500  0.1337
  911YOPE   NH313411  10.913   6.107   5.861 -0.1314 -0.0030 -0.1849
  911YOPE   PO413412  10.905   5.884   6.102  0.0001 -0.1245 -0.0186
  911YOPE   GL113413  11.220   6.243   6.259  0.1408 -0.1566 -0.0058
  911YOPE   GL213414  11.393   6.406   6.100  0.1321  0.1747  0.1940
  911YOPE   C1A13415  11.376   6.428   6.589  0.1785 -0.1980  0.1709
  911YOPE   D2A13416  11.568   6.553   6.952 -0.0972  0.1436 -0.2618
  911YOPE   C3A13417  11.921   6.461   7.043  0.1442 -0.1575 -0.0624
  911YOPE   C4A13418  12.247   6.115   7.155 -0.0577  0.1207  0.3141
  911YOPE   C1B13419  11.487   6.821   6.220  0.3849 -0.2978 -0.1744
  911YOPE   C2B13420  11.509   7.064   6.603 -0.0414  0.2305  0.0672
  911YOPE   D3B13421  11.468   7.246   6.941  0.2383 -0.0221 -0.0672
  911YOPE   C4B13422  11.626   7.518   7.123 -0.0458  0.1035 -0.0202
  912YOPE   NH313423  18.212   5.928   5.304 -0.2767  0.0742  0.0088
  912YOPE   PO413424  18.705   5.883   5.263  0.6831 -0.3549  0.0991
  912YOPE   GL113425  18.698   5.949   5.696  0.3529  0.0291 -0.1151
  912YOPE   GL213426  18.936   5.674   5.734 -0.2337  0.0786 -0.1752
  912YOPE   C1A13427  18.659   5.901   6.182 -0.2290  0.0749 -0.1532
  912YOPE   D2A13428  18.882   5.596   6.534  0.1268  0.4192  0.2791
  912YOPE   C3A13429  18.988   5.568   6.983  0.2279 -0.1670 -0.0632
  912YOPE   C4A13430  18.643   5.572   7.227 -0.2271  0.0224 -0.2151
  912YOPE   C1B13431  19.017   5.456   6.034  0.0142  0.1147 -0.1428
  912YOPE   C2B13432  19.105   5.194   6.409 -0.0442  0.1100 -0.1820
  912YOPE   D3B13433  19.090   4.811   6.503  0.0531 -0.2770  0.2893
  912YOPE   C4B13434  19.070   4.616   6.915 -0.0710 -0.1110  0.0618
  913YOPE   NH313435  14.145  15.270   4.946 -0.0442  0.0745 -0.0559
  913YOPE   PO413436  14.449  15.552   4.873  0.6109 -0.0280 -0.1895
  913YOPE   GL113437  14.339  15.533   5.333 -0.0847 -0.1216 -0.0927
  913YOPE   GL213438  14.050  15.392   5.468 -0.2386 -0.1291 -0.3060
  913YOPE   C1A13439  14.523  15.824   5.639  0.1821  0.0547  0.1762
  913YOPE   D2A13440  14.512  16.016   6.083 -0.1652 -0.1183 -0.2024
  913YOPE   C3A13441  14.237  16.375   6.215  0.1108 -0.0538  0.2938
  913YOPE   C4A13442  13.943  16.593   6.601 -0.0067 -0.4436 -0.1940
  913YOPE   C1B13443  14.264  15.005   5.736 -0.1024 -0.2154 -0.0920
  913YOPE   C2B13444  14.151  14.865   6.090 -0.0100  0.0807  0.3641
  913YOPE   D3B13445  13.715  14.592   6.078 -0.1809  0.0355 -0.2363
  913YOPE   C4B13446  13.391  14.399   6.267  0.2711 -0.0642 -0.2427
  914YOPE   NH313447   6.591  16.756   4.936 -0.0055  0.4268  0.2320
  914YOPE   PO413448   6.372  16.341   5.220  0.0464  0.3718 -0.2939
  914YOPE   GL113449   6.240  16.587   5.664 -0.2819  0.2315 -0.0657
  914YOPE   GL213450   6.113  16.870   5.887 -0.0666 -0.1071 -0.0485
  914YOPE   C1A13451   6.320  16.427   6.083  0.4191  0.1539 -0.0331
  914YOPE   D2A13452   6.174  16.055   6.454  0.0656  0.0358  0.0600
  914YOPE   C3A13453   6.412  15.797   6.588  0.0234  0.1619 -0.1222
  914YOPE   C4A13454   6.537  15.386   6.458  0.0143  0.2614  0.2547
  914YOPE   C1B13455   6.111  16.879   6.345  0.1915  0.1258  0.0925
  914YOPE   C2B13456   6.083  16.883   6.811 -0.2542  0.1515  0.3828
  914YOPE   D3B13457   6.024  16.812   7.210 -0.1802 -0.2126 -0.1760
  914YOPE   C4B13458   6.261  16.674   7.545 -0.1608 -0.1887  0.0623
  915YOPE   NH313459  11.741  12.824   5.176 -0.0785  0.2573 -0.1225
  915YOPE   PO413460  11.892  12.458   4.881  0.4161 -0.1257 -0.1300
  915YOPE   GL113461  11.991  12.387   5.299  0.1904 -0.5218 -0.1537
  915YOPE   GL213462  12.114  12.502   5.657 -0.2525  0.2264  0.0467
  915YOPE   C1A13463  11.917  11.982   5.486  0.0658 -0.0301 -0.4326
  915YOPE   D2A13464  11.910  11.649   5.804 -0.3150 -0.2129 -0.2333
  915YOPE   C3A13465  11.991  11.724   6.259  0.3072  0.2900 -0.3370
  915YOPE   C4A13466  11.835  11.764   6.685  0.1997 -0.0047 -0.1539
  915YOPE   C1B13467  12.358  12.840   5.662 -0.3663 -0.2535 -0.2788
  915YOPE   C2B13468  12.439  13.108   5.869 -0.1418 -0.0702  0.0638
  915YOPE   D3B13469  12.454  13.367   6.101 -0.0347  0.0397  0.4730
  915YOPE   C4B13470  12.693  13.717   6.243  0.0122  0.0298 -0.0517
  916YOPE   NH313471   5.502  12.171   5.408 -0.0617 -0.1316  0.0021
  916YOPE   PO413472   5.154  11.762   5.333 -0.0283  0.1418  0.1802
  916YOPE   GL113473   4.947  11.628   5.735  0.2637  0.0114  0.0030
  916YOPE   GL213474   4.750  11.326   5.812  0.3796  0.0905 -0.1920
  916YOPE   C1A13475   5.188  11.426   5.998 -0.1520  0.2398  0.1886
  916YOPE   D2A13476   5.260  10.957   6.075 -0.3160 -0.1439  0.3325
  916YOPE   C3A13477   4.951  10.663   6.333  0.3044  0.0436 -0.2870
  916YOPE   C4A13478   4.764  10.242   6.191 -0.4472  0.3483 -0.0319
  916YOPE   C1B13479   4.774  11.122   6.167  0.0151 -0.3215  0.0520
  916YOPE   C2B13480   4.868  11.104   6.603 -0.1250 -0.3663  0.0471
  916YOPE   D3B13481   4.626  11.010   6.962  0.2933 -0.2665 -0.0065
  916YOPE   C4B13482   4.746  10.920   7.474 -0.0727 -0.2168 -0.0164
  917YOPE   NH313483  17.486  13.904   5.087 -0.2336  0.2526 -0.2894
  917YOPE   PO413484  17.150  14.122   5.351 -0.2437  0.1710  0.1940
  917YOPE   GL113485  16.965  14.142   5.785  0.1059 -0.0343 -0.3865
  917YOPE   GL213486  16.930  13.807   5.690 -0.0622 -0.2872 -0.2592
  917YOPE   C1A13487  16.688  14.298   6.092  0.0143  0.1977 -0.0988
  917YOPE   D2A13488  16.528  14.549   6.342  0.1622  0.1610  0.1136
  917YOPE   C3A13489  16.574  14.731   6.739 -0.4407  0.0395 -0.1137
  917YOPE   C4A13490  16.595  14.869   7.205  0.4227 -0.0037  0.1576
  917YOPE   C1B13491  16.633  13.457   5.934 -0.0843 -0.1489 -0.1458
  917YOPE   C2B13492  16.435  13.365   6.276 -0.0884  0.0637 -0.1327
  917YOPE   D3B13493  16.349  13.231   6.791  0.0348 -0.0063 -0.1548
  917YOPE   C4B13494  16.405  13.762   6.875 -0.0053  0.0277 -0.1320
  918YOPE   NH313495   1.437   4.585   5.485  0.3151 -0.3359 -0.2193
  918YOPE   PO413496   1.615   4.209   5.440  0.0005  0.1183  0.0291
  918YOPE   GL113497   1.469   4.157   5.878  0.2286  0.0739 -0.4595
  918YOPE   GL213498   1.359   4.357   5.950 -0.1154 -0.2215  0.0034
  918YOPE   C1A13499   1.488   4.028   6.376 -0.0488  0.3711  0.1922
  918YOPE   D2A13500   1.701   4.113   6.731 -0.0202  0.1830 -0.1825
  918YOPE   C3A13501   1.393   4.342   7.022 -0.0231  0.4941  0.1217
  918YOPE   C4A13502   1.130   4.324   7.323 -0.1797 -0.0904 -0.0989
  918YOPE   C1B13503   1.214   4.531   6.253  0.0195  0.0144  0.0038
  918YOPE   C2B13504   1.060   4.766   6.632 -0.0580 -0.0673  0.1067
  918YOPE   D3B13505   0.721   4.882   6.853 -0.0872 -0.2536 -0.1391
  918YOPE   C4B13506   0.541   5.210   7.095 -0.0560  0.0608 -0.1711
  919YOPE   NH313507   7.320   4.188   5.489  0.0832  0.1838  0.2563
  919YOPE   PO413508   7.638   4.047   5.839 -0.0155  0.0278 -0.0543
  919YOPE   GL113509   7.608   4.136   6.287 -0.0234  0.2312  0.2324
  919YOPE   GL213510   7.835   4.349   6.446 -0.2429 -0.2198 -0.2245
  919YOPE   C1A13511   7.482   4.054   6.798 -0.3086  0.0631  0.0045
  919YOPE   D2A13512   7.482   3.970   7.227 -0.2349  0.1520 -0.4926
  919YOPE   C3A13513   7.590   3.658   7.469  0.0307 -0.0239  0.0870
  919YOPE   C4A13514   7.969   3.449   7.703  0.3289 -0.1370  0.1470
  919YOPE   C1B13515   7.835   4.526   6.928  0.0880  0.0459 -0.0568
  919YOPE   C2B13516   7.801   4.349   7.359 -0.0930  0.0408 -0.1548
  919YOPE   D3B13517   7.727   4.390   7.829  0.0343 -0.0035  0.0223
  919YOPE   C4B13518   7.675   4.363   8.291  0.1201 -0.2384 -0.4029
  920YOPE   NH313519   7.246   6.760   6.361  0.2349 -0.0135  0.3841
  920YOPE   PO413520   7.667   6.918   6.161  0.0384 -0.2115 -0.0870
  920YOPE   GL113521   7.795   7.173   6.604 -0.1735  0.1213 -0.0078
  920YOPE   GL213522   7.954   6.813   6.655 -0.0252  0.1693  0.1016
  920YOPE   C1A13523   7.996   7.263   6.894 -0.0574 -0.1028  0.1849
  920YOPE   D2A13524   8.046   7.081   7.359 -0.2278 -0.0040  0.0330
  920YOPE   C3A13525   7.716   7.079   7.621  0.4655 -0.2956 -0.0514
  920YOPE   C4A13526   7.277   7.262   7.667  0.1800  0.2637 -0.0379
  920YOPE   C1B13527   7.814   6.650   6.906  0.0325  0.0162 -0.0677
  920YOPE   C2B13528   7.943   6.539   7.379  0.1045  0.1344 -0.2312
  920YOPE   D3B13529   7.845   6.637   7.815  0.1729  0.2026 -0.0819
  920YOPE   C4B13530   7.736   6.617   8.289 -0.0436  0.0189 -0.3741
  921YOPE   NH313531  18.292   0.145   4.540  0.1015  0.0740 -0.0099
  921YOPE   PO413532  18.485  -0.330   4.672  0.1383  0.0534  0.0534
  921YOPE   GL113533  18.502  -0.084   5.137  0.1864 -0.2412 -0.1797
  921YOPE   GL213534  18.863  -0.190   5.203 -0.1869 -0.0797 -0.0124
  921YOPE   C1A13535  18.195  -0.128   5.573  0.2060 -0.0729  0.2020
  921YOPE   D2A13536  18.019  -0.423   5.900 -0.2084 -0.0331  0.0295
  921YOPE   C3A13537  17.933  -0.800   6.139  0.1340 -0.1473  0.0803
  921YOPE   C4A13538  17.674  -1.145   6.137 -0.1117 -0.0754  0.0219
  921YOPE   C1B13539  18.609  -0.383   5.609 -0.2412  0.0527  0.1699
  921YOPE   C2B13540  18.524  -0.437   5.979 -0.0715 -0.0738 -0.0421
  921YOPE   D3B13541  18.467  -0.761   6.260 -0.0476  0.1826  0.0459
  921YOPE   C4B13542  18.672  -0.990   6.594  0.2747 -0.1993  0.0569
  922YOPE   NH313543  14.108  12.918   4.773  0.1026  0.0490  0.1535
  922YOPE   PO413544  13.767  12.827   5.055 -0.0811 -0.1517  0.1076
  922YOPE   GL113545  14.104  12.865   5.310  0.2009  0.3749 -0.0319
  922YOPE   GL213546  14.211  13.078   5.235  0.5052 -0.0921 -0.2718
  922YOPE   C1A13547  14.274  12.738   5.819 -0.1079  0.0320  0.1706
  922YOPE   D2A13548  14.346  12.692   6.225  0.2332 -0.0699 -0.2154
  922YOPE   C3A13549  14.233  12.926   6.383  0.2728  0.1366  0.0694
  922YOPE   C4A13550  14.098  13.130   6.802  0.1945 -0.2950  0.2259
  922YOPE   C1B13551  14.562  13.131   5.468 -0.1231  0.0563  0.0834
  922YOPE   C2B13552  14.748  13.212   5.803 -0.1226 -0.2093  0.1048
  922YOPE   D3B13553  14.723  13.030   6.225  0.0558 -0.1470  0.0599
  922YOPE   C4B13554  14.621  12.918   6.708 -0.1558  0.0607 -0.0170
  923YOPE   NH313555   4.799  18.962   5.579  0.2880  0.1671 -0.1847
  923YOPE   PO413556   4.752  18.532   5.632 -0.0801  0.1462  0.1984
  923YOPE   GL113557   4.889  18.611   5.955 -0.3225 -0.0763 -0.2162
  923YOPE   GL213558   4.965  18.405   6.209  0.0652 -0.4541 -0.3407
  923YOPE   C1A13559   5.170  18.986   6.118  0.0118  0.3942  0.0470
  923YOPE   D2A13560   5.356  19.188   6.493 -0.2405 -0.0150  0.0173
  923YOPE   C3A13561   5.077  19.280   6.898  0.0049  0.0440  0.0849
  923YOPE   C4A13562   4.564  19.206   6.985 -0.0217  0.0740 -0.2313
  923YOPE   C1B13563   4.643  18.082   6.180  0.0315  0.0903 -0.1557
  923YOPE   C2B13564   4.266  17.855   6.151 -0.0966 -0.5066  0.2152
  923YOPE   D3B13565   3.923  17.821   6.268 -0.0295 -0.0241  0.2235
  923YOPE   C4B13566   3.793  17.790   6.756  0.1687  0.1192 -0.0351
  924YOPE   NH313567   5.754  17.151   5.380  0.1505 -0.1979 -0.0444
  924YOPE   PO413568   5.433  17.254   5.657  0.0724 -0.1832  0.0273
  924YOPE   GL113569   5.712  17.266   5.903 -0.0262 -0.0046  0.2345
  924YOPE   GL213570   5.510  17.605   6.010 -0.0388  0.1257 -0.2156
  924YOPE   C1A13571   5.761  17.269   6.379 -0.0552 -0.1460 -0.3398
  924YOPE   D2A13572   5.695  17.177   6.790 -0.3522  0.1633 -0.0231
  924YOPE   C3A13573   5.870  17.306   7.133 -0.0808  0.4003 -0.1770
  924YOPE   C4A13574   6.076  17.576   7.415 -0.2710  0.0207 -0.3198
  924YOPE   C1B13575   5.532  17.662   6.501 -0.0264 -0.3506  0.3010
  924YOPE   C2B13576   5.394  17.627   6.944  0.0761 -0.4691  0.0716
  924YOPE   D3B13577   5.089  17.626   7.081  0.0039  0.1734 -0.0843
  924YOPE   C4B13578   4.717  17.697   7.014  0.2428  0.1856  0.1876
  925POPC   NC313579   2.170   8.340   5.241  0.0304  0.0691  0.2022
  925POPC   PO413580   2.169   7.950   5.322 -0.0170  0.0332  0.0492
  925POPC   GL113581   2.066   8.161   5.744  0.1723  0.0957 -0.0477
  925POPC   GL213582   1.929   8.093   6.024 -0.2280  0.1370 -0.3818
  925POPC   C1A13583   2.295   8.397   5.991  0.1387 -0.4501 -0.0915
  925POPC   D2A13584   2.426   8.798   6.127 -0.0171  0.1240 -0.0297
  925POPC   C3A13585   2.520   8.992   5.846  0.1338  0.2793 -0.0414
  925POPC   C4A13586   2.558   9.488   5.780 -0.1570 -0.1311  0.0154
  925POPC   C1B13587   2.200   7.877   6.329  0.2706 -0.0978 -0.0420
  925POPC   C2B13588   2.506   7.637   6.588  0.0163 -0.1062 -0.2259
  925POPC   C3B13589   2.511   7.212   6.625 -0.0542 -0.0524 -0.4314
  925POPC   C4B13590   2.182   7.047   6.895  0.0802  0.1176  0.1095
  926POPC   NC313591   9.011  11.286   4.984  0.0610 -0.3353  0.0079
  926POPC   PO413592   9.060  11.584   5.326  0.0697  0.0076  0.0136
  926POPC   GL113593   9.047  11.566   5.739  0.3203  0.1480  0.0983
  926POPC   GL213594   9.136  11.305   5.892 -0.2295  0.0206 -0.0308
  926POPC   C1A13595   9.365  11.703   6.088  0.0428 -0.1607  0.0098
  926POPC   D2A13596   9.646  11.751   6.433  0.0537  0.2098 -0.0450
  926POPC   C3A13597   9.483  12.124   6.658 -0.0028  0.0278 -0.1565
  926POPC   C4A13598   9.372  12.459   6.996 -0.0626  0.3191 -0.0569
  926POPC   C1B13599   8.856  11.476   6.217  0.2058 -0.0620 -0.0091
  926POPC   C2B13600   8.901  11.652   6.610 -0.0665  0.3062  0.1096
  926POPC   C3B13601   9.249  11.726   6.787 -0.1564  0.0289  0.0956
  926POPC   C4B13602   9.605  11.751   7.027 -0.0968 -0.3446 -0.0040
  927POPC   NC313603  13.172  12.078   4.764  0.2841  0.0595  0.0654
  927POPC   PO413604  12.808  12.307   4.841 -0.0201 -0.0641 -0.3399
  927POPC   GL113605  13.033  12.176   5.310  0.0783  0.0734  0.0753
  927POPC   GL213606  13.194  12.516   5.536  0.0599  0.3429 -0.1196
  927POPC   C1A13607  12.832  11.823   5.576  0.0750  0.2071  0.1051
  927POPC   D2A13608  12.899  11.428   5.754  0.1538 -0.0593  0.1182
  927POPC   C3A13609  12.665  11.469   6.128 -0.2463 -0.0318 -0.0676
  927POPC   C4A13610  12.458  11.733   6.495 -0.1649 -0.2847  0.3075
  927POPC   C1B13611  13.124  12.091   5.832 -0.0689  0.0273 -0.6021
  927POPC   C2B13612  12.756  11.966   6.086  0.1085 -0.2671 -0.3834
  927POPC   C3B13613  12.351  11.952   5.891  0.4286  0.1971  0.1297
  927POPC   C4B13614  11.917  12.167   5.940 -0.1618  0.0272 -0.1809
  928POPC   NC313615   4.846   6.374   5.718 -0.2662  0.0427 -0.1749
  928POPC   PO413616   5.124   6.661   5.869  0.0788  0.0413 -0.2954
  928POPC   GL113617   5.021   6.700   6.344  0.0120 -0.0468  0.0754
  928POPC   GL213618   4.834   6.454   6.449 -0.0470 -0.1977 -0.0467
  928POPC   C1A13619   5.324   6.557   6.641  0.1271  0.0278 -0.0593
  928POPC   D2A13620   5.473   6.567   7.047 -0.4046  0.2414 -0.1653
  928POPC   C3A13621   5.402   6.616   7.460 -0.2444 -0.0463 -0.1106
  928POPC   C4A13622   5.439   6.978   7.766 -0.2150  0.1214  0.3071
  928POPC   C1B13623   4.907   6.352   6.882  0.0675 -0.2543  0.0127
  928POPC   C2B13624   4.984   6.342   7.307  0.0116 -0.1238  0.0669
  928POPC   C3B13625   4.910   6.050   7.651 -0.1157 -0.3092  0.2396
  928POPC   C4B13626   4.607   5.639   7.663  0.0697  0.0717  0.2793
  929POPC   NC313627  14.999  14.015   4.683  0.3412  0.0888 -0.2343
  929POPC   PO413628  15.241  14.016   5.075  0.2139  0.0872 -0.0209
  929POPC   GL113629  15.129  14.199   5.338  0.0352 -0.2447  0.0254
  929POPC   GL213630  14.812  14.143   5.560  0.2800 -0.0256  0.0079
  929POPC   C1A13631  15.240  14.013   5.757 -0.0495  0.0675 -0.0967
  929POPC   D2A13632  15.267  14.081   6.186  0.2107  0.1623  0.4873
  929POPC   C3A13633  15.522  14.267   6.358  0.0501  0.0910  0.2247
  929POPC   C4A13634  15.701  14.483   6.689 -0.0186  0.0308  0.0504
  929POPC   C1B13635  14.649  14.266   6.014 -0.4737 -0.1054 -0.0185
  929POPC   C2B13636  14.734  14.181   6.524 -0.0341  0.0526 -0.1667
  929POPC   C3B13637  15.068  14.282   6.655  0.2003  0.0224 -0.2432
  929POPC   C4B13638  15.442  14.055   6.784  0.0826  0.0195 -0.2162
  930POPC   NC313639   3.003   0.098   5.587  0.3169 -0.0055 -0.2695
  930POPC   PO413640   3.424  -0.030   5.582  0.0819  0.0438 -0.1421
  930POPC   GL113641   3.074  -0.268   5.905  0.1336 -0.1652  0.0443
  930POPC   GL213642   2.829  -0.363   5.665  0.2049  0.2508  0.1417
  930POPC   C1A13643   2.946  -0.018   6.241  0.0371  0.0788  0.3602
  930POPC   D2A13644   2.859  -0.025   6.610  0.0230 -0.2148 -0.2414
  930POPC   C3A13645   2.848   0.187   6.924 -0.0562  0.2152  0.0373
  930POPC   C4A13646   2.548   0.298   7.219  0.0411  0.0191  0.2835
  930POPC   C1B13647   2.659  -0.414   6.025 -0.1682 -0.1406 -0.0479
  930POPC   C2B13648   2.588  -0.885   6.297  0.2528  0.1884  0.0698
  930POPC   C3B13649   2.506  -0.899   6.727  0.0040  0.2369 -0.3325
  930POPC   C4B13650   2.345  -1.208   7.008  0.0159  0.3715  0.1095
  931POPC   NC313651  15.459  16.061   5.152 -0.1031 -0.0828  0.2206
  931POPC   PO413652  15.080  15.915   4.921 -0.0835 -0.1200 -0.2105
  931POPC   GL113653  14.979  15.798   5.387  0.0964  0.0375  0.1842
  931POPC   GL213654  15.249  15.576   5.465 -0.1891 -0.0844 -0.1479
  931POPC   C1A13655  14.985  15.964   5.795  0.0797 -0.1189 -0.1653
  931POPC   D2A13656  14.881  15.709   6.211  0.0408  0.2174  0.0159
  931POPC   C3A13657  15.273  15.666   6.371  0.3141  0.1090  0.0551
  931POPC   C4A13658  15.336  15.378   6.679  0.0124  0.1577  0.0578
  931POPC   C1B13659  14.844  15.447   5.704  0.1106 -0.0413  0.1058
  931POPC   C2B13660  14.659  15.288   6.074  0.1468  0.1634  0.0491
  931POPC   C3B13661  14.469  15.135   6.426 -0.1887 -0.4953 -0.1744
  931POPC   C4B13662  14.231  14.853   6.664  0.0374  0.2574 -0.0775
  932POPC   NC313663  10.529   2.747   4.939  0.2047  0.2139 -0.1203
  932POPC   PO413664  10.800   3.018   5.258 -0.0676  0.2084  0.1400
  932POPC   GL113665  10.728   3.096   5.728 -0.0343 -0.0267  0.1552
  932POPC   GL213666  10.684   2.814   5.848  0.5418 -0.0403 -0.0060
  932POPC   C1A13667  11.000   3.225   6.076  0.0104  0.0163  0.3617
  932POPC   D2A13668  11.231   3.495   6.277  0.0695  0.1184 -0.3779
  932POPC   C3A13669  11.128   3.838   6.606 -0.0507  0.2289  0.1689
  932POPC   C4A13670  10.963   4.166   6.928  0.1977 -0.1443 -0.1939
  932POPC   C1B13671  10.446   3.013   6.220  0.0221 -0.1764 -0.2859
  932POPC   C2B13672  10.264   2.950   6.656 -0.1142 -0.0163 -0.1741
  932POPC   C3B13673  10.265   2.910   7.126 -0.2138  0.2032 -0.0815
  932POPC   C4B13674  10.676   2.846   7.474  0.1576 -0.1073 -0.0185
  933POPC   NC313675  13.348   5.419   5.439  0.0293 -0.2314  0.0576
  933POPC   PO413676  13.151   5.761   5.777 -0.0312  0.0811  0.0198
  933POPC   GL113677  12.875   5.558   5.953 -0.2472  0.2843  0.0286
  933POPC   GL213678  13.055   5.342   6.149  0.0337 -0.1396 -0.0490
  933POPC   C1A13679  12.627   5.565   6.369 -0.1124 -0.2000  0.0133
  933POPC   D2A13680  12.437   5.748   6.847 -0.2951 -0.1118  0.0619
  933POPC   C3A13681  12.211   5.448   7.230  0.0928  0.0812 -0.0579
  933POPC   C4A13682  11.953   5.316   7.549  0.0025  0.1469  0.0117
  933POPC   C1B13683  13.136   5.123   6.590  0.1008  0.0443 -0.0624
  933POPC   C2B13684  13.104   5.190   6.998  0.1387  0.0861  0.3833
  933POPC   C3B13685  13.037   5.550   7.309  0.1640  0.2267  0.0094
  933POPC   C4B13686  13.208   5.802   7.721  0.2834 -0.2052 -0.0783
  934POPC   NC313687   6.809  16.057   5.176 -0.0966  0.0958  0.2788
  934POPC   PO413688   6.949  16.472   5.175 -0.0338  0.0520  0.1884
  934POPC   GL113689   7.310  16.309   5.493  0.1698 -0.1288  0.4150
  934POPC   GL213690   7.279  15.965   5.582  0.4337 -0.0014 -0.0721
  934POPC   C1A13691   7.282  16.361   6.001 -0.0459  0.0357 -0.3582
  934POPC   D2A13692   7.237  16.343   6.346  0.1122  0.2120 -0.0201
  934POPC   C3A13693   6.880  16.550   6.718  0.0405 -0.0614  0.1811
  934POPC   C4A13694   6.504  16.515   6.635  0.0703  0.3691  0.1780
  934POPC   C1B13695   7.032  15.822   5.939  0.3314 -0.0081 -0.2316
  934POPC   C2B13696   6.971  15.672   6.397 -0.0400 -0.1158  0.0951
  934POPC   C3B13697   6.894  15.997   6.733 -0.4363 -0.0083 -0.0715
  934POPC   C4B13698   6.735  16.182   7.034  0.2195 -0.3539 -0.0569
  935POPC   NC313699  11.682  16.038   5.133  0.1064 -0.0123 -0.0500
  935POPC   PO413700  11.672  16.139   5.517  0.0329 -0.2014  0.0730
  935POPC   GL113701  11.502  15.853   5.870  0.1617  0.1908  0.1199
  935POPC   GL213702  11.481  15.563   5.913 -0.3555  0.3891 -0.1916
  935POPC   C1A13703  11.790  15.951   6.247 -0.0642  0.1269  0.2928
  935POPC   D2A13704  11.912  15.975   6.626  0.0281  0.3156 -0.1513
  935POPC   C3A13705  11.877  15.799   7.078  0.2034  0.0098 -0.1874
  935POPC   C4A13706  11.571  15.916   7.399 -0.4925 -0.1497  0.1639
  935POPC   C1B13707  11.577  15.442   6.304  0.0667 -0.0037 -0.0838
  935POPC   C2B13708  11.765  15.160   6.520 -0.1581  0.0498 -0.0878
  935POPC   C3B13709  11.955  15.212   6.895  0.0285  0.2122  0.0365
  935POPC   C4B13710  12.413  15.166   7.080 -0.0047  0.0517 -0.1197
  936POPC   NC313711   0.645   6.308   5.644  0.0835 -0.0424 -0.1107
  936POPC   PO413712   0.568   6.762   5.677 -0.3603 -0.0529  0.1879
  936POPC   GL113713   0.531   7.017   5.966  0.0710  0.1544  0.1108
  936POPC   GL213714   0.520   7.242   6.082 -0.0879  0.0901 -0.0797
  936POPC   C1A13715   0.533   6.876   6.424 -0.2198  0.1043 -0.3014
  936POPC   D2A13716   0.155   6.995   6.614 -0.1765  0.1455 -0.1549
  936POPC   C3A13717   0.261   7.208   7.014  0.1876  0.0798  0.2038
  936POPC   C4A13718   0.428   7.388   7.253  0.1122  0.3101 -0.3457
  936POPC   C1B13719   0.935   7.154   6.267 -0.1270  0.1051 -0.1907
  936POPC   C2B13720   1.164   7.074   6.597  0.0238 -0.0118 -0.0558
  936POPC   C3B13721   1.501   6.962   6.871  0.1022 -0.0415  0.3469
  936POPC   C4B13722   1.621   6.959   7.375  0.0324 -0.2523 -0.0769
  937POPC   NC313723  11.355   1.528   5.150 -0.0288 -0.3498  0.1448
  937POPC   PO413724  11.578   1.685   5.547  0.1822  0.4042  0.0342
  937POPC   GL113725  11.843   1.759   5.948 -0.0512  0.1345  0.0415
  937POPC   GL213726  11.616   1.881   6.219  0.0231  0.0148  0.0561
  937POPC   C1A13727  12.172   2.079   6.122 -0.1451  0.1996  0.2704
  937POPC   D2A13728  12.640   1.994   6.216  0.0335  0.0059 -0.0291
  937POPC   C3A13729  12.806   1.568   6.255 -0.1167  0.2576 -0.4402
  937POPC   C4A13730  13.074   1.185   6.226  0.0256  0.0152 -0.1240
  937POPC   C1B13731  11.850   1.599   6.487  0.3898  0.1281  0.3166
  937POPC   C2B13732  12.043   1.326   6.807 -0.3361  0.0865 -0.3191
  937POPC   C3B13733  12.320   0.919   6.958 -0.1451  0.0902  0.0412
  937POPC   C4B13734  12.659   0.651   7.221 -0.0307 -0.2812 -0.0822
  938POPC   NC313735  11.549   4.143   5.371  0.4001 -0.0310  0.0333
  938POPC   PO413736  11.271   3.972   5.347  0.0183 -0.2244  0.3483
  938POPC   GL113737  11.298   3.819   5.770  0.1122  0.4787 -0.3435
  938POPC   GL213738  10.973   3.746   5.926 -0.1761  0.0339 -0.1666
  938POPC   C1A13739  11.423   3.945   6.141 -0.1971 -0.1190  0.0589
  938POPC   D2A13740  11.556   3.986   6.573 -0.0756  0.3278 -0.2545
  938POPC   C3A13741  11.681   3.716   6.900 -0.5844  0.1497 -0.2306
  938POPC   C4A13742  12.029   3.507   7.207  0.2153 -0.0379 -0.0599
  938POPC   C1B13743  10.974   4.163   6.152 -0.1342 -0.1220  0.1538
  938POPC   C2B13744  11.188   4.363   6.450  0.0002 -0.1239 -0.0459
  938POPC   C3B13745  11.438   4.438   6.761 -0.1916 -0.1871 -0.0578
  938POPC   C4B13746  11.497   4.173   7.028 -0.2728 -0.0613  0.1156
  939POPC   NC313747   6.414  10.990   5.693  0.3360 -0.0471  0.1685
  939POPC   PO413748   6.074  11.070   5.848 -0.5157 -0.2437  0.1936
  939POPC   GL113749   5.909  11.195   6.187  0.0488  0.0032 -0.0449
  939POPC   GL213750   6.071  10.951   6.366  0.0128  0.1317 -0.0067
  939POPC   C1A13751   5.525  11.257   6.359  0.3502 -0.1913  0.1966
  939POPC   D2A13752   5.202  11.539   6.481  0.1300  0.2985  0.2136
  939POPC   C3A13753   5.029  11.553   6.840  0.0679 -0.1236  0.1613
  939POPC   C4A13754   4.872  11.451   7.340  0.1225  0.4817  0.0684
  939POPC   C1B13755   6.216  10.525   6.566  0.0704  0.0728 -0.2439
  939POPC   C2B13756   6.359  10.217   6.848 -0.0471  0.0068 -0.0269
  939POPC   C3B13757   6.547  10.067   7.147 -0.0162 -0.1202 -0.0364
  939POPC   C4B13758   7.054   9.865   7.125  0.0530 -0.2198  0.0604
  940POPC   NC313759   1.614  16.575   5.296  0.4124 -0.0919 -0.1296
  940POPC   PO413760   1.895  16.434   5.139  0.0766 -0.1031 -0.2677
  940POPC   GL113761   2.147  16.467   5.429 -0.1151 -0.1303  0.0682
  940POPC   GL213762   2.253  16.816   5.568 -0.2092 -0.2007  0.0648
  940POPC   C1A13763   2.151  16.271   5.853  0.3700  0.1189 -0.1388
  940POPC   D2A13764   2.176  15.910   5.998 -0.2205 -0.1844 -0.0682
  940POPC   C3A13765   2.070  15.790   6.460 -0.2075 -0.0193  0.1531
  940POPC   C4A13766   2.070  15.558   6.992  0.2625  0.0224  0.0209
  940POPC   C1B13767   2.200  16.815   5.960  0.1224  0.0972 -0.1274
  940POPC   C2B13768   2.246  16.831   6.408  0.3408 -0.1976 -0.0022
  940POPC   C3B13769   2.305  16.558   6.794 -0.1585  0.1911  0.0840
  940POPC   C4B13770   2.637  16.335   6.717 -0.0247  0.0553 -0.0409
  941POPC   NC313771  16.888  11.941   4.917  0.2351 -0.1180  0.1942
  941POPC   PO413772  16.547  11.630   5.115  0.0543 -0.1782 -0.1330
  941POPC   GL113773  16.450  11.687   5.504 -0.2924  0.2687  0.0964
  941POPC   GL213774  16.512  11.502   5.695 -0.2099  0.1113 -0.1757
  941POPC   C1A13775  16.579  12.001   5.796 -0.0651 -0.0677  0.0582
  941POPC   D2A13776  16.529  12.143   6.169 -0.2614  0.1915 -0.0187
  941POPC   C3A13777  16.695  12.509   6.278 -0.0818 -0.1854 -0.0357
  941POPC   C4A13778  16.846  12.796   6.022  0.0836 -0.2297  0.1911
  941POPC   C1B13779  16.409  11.624   6.146 -0.1474  0.2390  0.2951
  941POPC   C2B13780  16.600  11.776   6.474  0.1276 -0.0339 -0.0145
  941POPC   C3B13781  16.771  11.720   6.915  0.1579 -0.1921 -0.3603
  941POPC   C4B13782  17.013  11.401   7.000  0.1292 -0.0097 -0.3121
  942POPC   NC313783   0.599   3.029   5.604  0.2167 -0.0266  0.2004
  942POPC   PO413784   0.061   3.115   5.503 -0.0784  0.0146 -0.1168
  942POPC   GL113785   0.233   2.923   5.938  0.0411 -0.0617  0.2313
  942POPC   GL213786   0.379   3.216   6.021 -0.0813 -0.3325 -0.2149
  942POPC   C1A13787   0.286   2.926   6.414  0.3042  0.0052  0.0276
  942POPC   D2A13788  -0.003   3.164   6.758 -0.2077 -0.0003 -0.2001
  942POPC   C3A13789   0.092   3.078   7.138  0.0473 -0.0932 -0.0090
  942POPC   C4A13790   0.025   2.965   7.527 -0.1922  0.1690  0.1098
  942POPC   C1B13791   0.436   3.393   6.330 -0.5420  0.2418  0.0673
  942POPC   C2B13792   0.408   3.460   6.779  0.1936 -0.0205  0.3096
  942POPC   C3B13793   0.488   3.385   7.265 -0.1723  0.1659 -0.2505
  942POPC   C4B13794   0.835   3.609   7.493  0.5074  0.0755  0.1154
  943POPC   NC313795   1.383   6.843   5.096  0.0625 -0.0824  0.2724
  943POPC   PO413796   1.480   6.930   5.494 -0.2124 -0.1189  0.1223
  943POPC   GL113797   1.612   7.161   5.898 -0.1525 -0.1379 -0.0973
  943POPC   GL213798   1.965   7.160   5.828  0.1075 -0.3291 -0.2319
  943POPC   C1A13799   1.669   7.122   6.351  0.2703 -0.0153 -0.1216
  943POPC   D2A13800   2.003   7.451   6.646 -0.0252 -0.2667 -0.0973
  943POPC   C3A13801   2.129   7.954   6.835  0.1216 -0.0604  0.0489
  943POPC   C4A13802   2.323   8.242   7.036 -0.4191 -0.1863 -0.2927
  943POPC   C1B13803   2.100   6.852   6.257 -0.0021  0.2331 -0.2201
  943POPC   C2B13804   1.803   6.672   6.585 -0.1981  0.6781  0.0294
  943POPC   C3B13805   1.555   6.206   6.670  0.0630 -0.0159 -0.3214
  943POPC   C4B13806   1.553   6.134   7.112  0.1084  0.2251  0.1166
  944POPC   NC313807   4.662   7.869   5.354 -0.1848 -0.1078  0.0028
  944POPC   PO413808   4.478   7.600   5.744 -0.1155 -0.1397  0.1084
  944POPC   GL113809   4.223   7.648   6.156 -0.1009 -0.1328 -0.0450
  944POPC   GL213810   3.891   7.779   6.193 -0.0773  0.6245  0.2845
  944POPC   C1A13811   4.304   7.662   6.539  0.2801 -0.3432 -0.1635
  944POPC   D2A13812   4.137   7.852   6.795  0.0480 -0.0031  0.1795
  944POPC   C3A13813   3.751   7.779   7.064  0.0417  0.2120  0.2254
  944POPC   C4A13814   3.316   7.653   7.204 -0.1284 -0.2636  0.5505
  944POPC   C1B13815   3.795   8.091   6.518  0.0693  0.2781  0.2485
  944POPC   C2B13816   3.818   8.280   6.955  0.2914  0.1951 -0.3681
  944POPC   C3B13817   3.666   8.460   7.335 -0.2961  0.2310  0.1389
  944POPC   C4B13818   3.546   8.799   7.608  0.3868 -0.0644 -0.1086
  945POPC   NC313819   9.939   9.499   5.353  0.2332  0.4631  0.0477
  945POPC   PO413820  10.013   9.113   5.603  0.2627  0.0508 -0.1838
  945POPC   GL113821  10.081   9.174   6.104  0.0787 -0.2018  0.1384
  945POPC   GL213822  10.151   9.406   6.196  0.0118  0.0292 -0.2630
  945POPC   C1A13823   9.828   9.062   6.475  0.1255 -0.2711  0.1785
  945POPC   D2A13824   9.371   9.052   6.627  0.2119 -0.2277 -0.3094
  945POPC   C3A13825   9.294   9.117   7.087 -0.0332  0.0349  0.0226
  945POPC   C4A13826   9.322   9.176   7.535 -0.1353  0.0176  0.0748
  945POPC   C1B13827   9.940   9.592   6.598 -0.1846 -0.2653 -0.0262
  945POPC   C2B13828   9.746   9.414   6.914  0.1210 -0.1686 -0.1507
  945POPC   C3B13829   9.748   9.216   7.279  0.1552 -0.0984  0.1995
  945POPC   C4B13830   9.823   9.228   7.651 -0.3595 -0.0310  0.0419
  946POPC   NC313831   9.830   6.175   5.913 -0.1338  0.4616 -0.0096
  946POPC   PO413832  10.181   6.529   5.867 -0.5235 -0.0932  0.1124
  946POPC   GL113833  10.251   6.369   6.260  0.2396 -0.0014  0.0292
  946POPC   GL213834  10.611   6.270   6.266  0.0326  0.0805  0.1862
  946POPC   C1A13835  10.398   6.486   6.653 -0.1894  0.0370  0.1977
  946POPC   D2A13836  10.549   6.525   7.075 -0.1392 -0.0370 -0.2009
  946POPC   C3A13837  10.581   6.547   7.466 -0.0831 -0.1123 -0.2101
  946POPC   C4A13838  10.317   6.519   7.888  0.2074 -0.1258  0.3073
  946POPC   C1B13839  10.886   6.317   6.685 -0.0315  0.0054 -0.2106
  946POPC   C2B13840  11.030   6.457   7.140 -0.0604  0.2091 -0.2103
  946POPC   C3B13841  10.948   6.208   7.508 -0.2000 -0.0908  0.1799
  946POPC   C4B13842  10.976   5.822   7.372  0.1161  0.1886  0.0532
  947POPC   NC313843   1.392   1.884   5.090  0.2386  0.1616 -0.0766
  947POPC   PO413844   1.085   1.866   5.479  0.2166 -0.2012  0.0551
  947POPC   GL113845   0.870   1.773   5.897 -0.2520 -0.0841  0.2124
  947POPC   GL213846   0.862   1.394   5.757 -0.1918 -0.4261 -0.0674
  947POPC   C1A13847   0.732   1.554   6.294 -0.1460  0.0372 -0.0521
  947POPC   D2A13848   0.357   1.486   6.379  0.2768 -0.2800  0.1772
  947POPC   C3A13849  -0.062   1.541   6.245 -0.0585 -0.0670 -0.0204
  947POPC   C4A13850  -0.416   1.645   6.418 -0.0167 -0.1559 -0.1200
  947POPC   C1B13851   0.488   1.110   5.661 -0.1346 -0.0168 -0.0518
  947POPC   C2B13852   0.194   1.145   6.007 -0.1240  0.0396  0.0921
  947POPC   C3B13853   0.077   0.852   6.414 -0.0338 -0.0584  0.0043
  947POPC   C4B13854   0.208   0.627   6.765  0.1954 -0.2084  0.0907
  948POPC   NC313855   4.965   2.548   5.802  0.0152 -0.2627  0.0104
  948POPC   PO413856   4.798   3.010   5.975  0.1921  0.2419  0.3317
  948POPC   GL113857   4.822   3.435   6.247  0.1011 -0.0898  0.0729
  948POPC   GL213858   4.474   3.583   6.328 -0.0717 -0.1344 -0.0366
  948POPC   C1A13859   4.875   3.353   6.700 -0.2118  0.1142  0.2276
  948POPC   D2A13860   5.126   3.355   6.966 -0.2627  0.2486 -0.0153
  948POPC   C3A13861   4.886   3.312   7.314 -0.3567 -0.2011  0.2262
  948POPC   C4A13862   4.725   3.338   7.795 -0.2616 -0.1954  0.2626
  948POPC   C1B13863   4.544   3.817   6.679 -0.1758  0.0936  0.0888
  948POPC   C2B13864   4.655   3.978   6.992 -0.1610 -0.3185 -0.1682
  948POPC   C3B13865   4.873   3.819   7.367  0.1228  0.0733  0.1679
  948POPC   C4B13866   5.166   3.772   7.674  0.0685 -0.1525 -0.1222
  949POPC   NC313867   0.674  13.156   4.692 -0.0798  0.1152  0.5348
  949POPC   PO413868   0.514  12.759   4.880 -0.1646  0.0808  0.1137
  949POPC   GL113869   0.570  12.621   5.251  0.1481  0.0881  0.2317
  949POPC   GL213870   0.644  12.289   5.358  0.0760 -0.0067 -0.0900
  949POPC   C1A13871   0.793  12.780   5.678 -0.0204 -0.0990 -0.0662
  949POPC   D2A13872   1.100  12.601   5.897 -0.0439 -0.3144  0.0068
  949POPC   C3A13873   1.117  12.307   6.312  0.0185  0.0396  0.0290
  949POPC   C4A13874   1.001  11.948   6.469  0.0033  0.3433 -0.4218
  949POPC   C1B13875   0.813  12.069   5.779 -0.2188  0.0807  0.0566
  949POPC   C2B13876   0.784  11.653   6.021 -0.3518 -0.2598 -0.0400
  949POPC   C3B13877   0.693  11.519   6.421 -0.1697 -0.1580 -0.2129
  949POPC   C4B13878   0.949  11.223   6.680 -0.1148  0.0829  0.0984
  950POPC   NC313879  11.069  18.067   4.738  0.0124 -0.0578  0.2103
  950POPC   PO413880  11.506  18.126   4.973  0.0735  0.0986  0.0256
  950POPC   GL113881  11.505  18.125   5.511 -0.1136  0.2957  0.1062
  950POPC   GL213882  11.215  18.378   5.650 -0.1206  0.0712  0.2010
  950POPC   C1A13883  11.371  18.003   5.919 -0.0247 -0.0899  0.2274
  950POPC   D2A13884  11.145  17.653   6.205  0.1801 -0.2262  0.0252
  950POPC   C3A13885  11.510  17.821   6.433 -0.1337  0.0213  0.4780
  950POPC   C4A13886  11.757  17.909   6.780  0.0574 -0.4430  0.1606
  950POPC   C1B13887  11.430  18.546   5.978 -0.0570  0.1088 -0.0454
  950POPC   C2B13888  11.359  18.327   6.288 -0.0084 -0.0899 -0.0754
  950POPC   C3B13889  11.312  18.324   6.682 -0.0046  0.1755 -0.2801
  950POPC   C4B13890  11.367  18.041   7.055 -0.2851  0.0598 -0.3117
  951POPC   NC313891  14.731   4.532   5.614 -0.4126 -0.3057 -0.3342
  951POPC   PO413892  14.459   4.247   5.654  0.0531 -0.2647  0.2201
  951POPC   GL113893  14.431   4.481   6.166 -0.3709 -0.0139 -0.1430
  951POPC   GL213894  14.204   4.746   5.999 -0.1180 -0.0568  0.0260
  951POPC   C1A13895  14.412   4.357   6.609  0.1761 -0.0058  0.1920
  951POPC   D2A13896  14.163   4.160   6.786  0.3679  0.0959  0.0331
  951POPC   C3A13897  13.813   4.099   6.603  0.1048 -0.1706  0.0061
  951POPC   C4A13898  13.608   3.839   6.392 -0.3244 -0.3393  0.0251
  951POPC   C1B13899  14.468   4.952   6.393  0.1770 -0.0923  0.1875
  951POPC   C2B13900  14.517   4.848   6.817  0.5150  0.0011 -0.3432
  951POPC   C3B13901  14.584   4.644   7.087  0.4608  0.1992 -0.1650
  951POPC   C4B13902  14.664   4.490   7.585 -0.0389  0.5832  0.2970
  952POPC   NC313903   8.944   4.871   5.294 -0.0983  0.0643  0.2427
  952POPC   PO413904   9.151   4.547   5.535 -0.1201 -0.1387 -0.0535
  952POPC   GL113905   9.310   4.545   5.946  0.4130  0.0828 -0.1655
  952POPC   GL213906   9.558   4.404   6.122 -0.2010 -0.1657 -0.0048
  952POPC   C1A13907   9.378   4.886   6.141 -0.0516 -0.3384  0.0314
  952POPC   D2A13908   9.458   5.319   6.320  0.1406  0.0301  0.1177
  952POPC   C3A13909   9.655   5.450   6.721 -0.0188 -0.0006  0.0644
  952POPC   C4A13910   9.668   5.469   7.065  0.2842 -0.1749  0.0051
  952POPC   C1B13911   9.515   4.422   6.550 -0.0654  0.3007  0.0971
  952POPC   C2B13912   9.518   4.328   6.934  0.0485 -0.1683 -0.1240
  952POPC   C3B13913   9.728   4.283   7.230 -0.0412  0.1981  0.0748
  952POPC   C4B13914   9.813   4.020   7.513 -0.0855 -0.0876 -0.0149
  953POPC   NC313915   2.000   5.736   4.949 -0.2766  0.3350  0.0634
  953POPC   PO413916   2.011   5.749   5.383 -0.1637  0.1917 -0.1686
  953POPC   GL113917   1.762   5.494   5.683 -0.2638 -0.1271  0.1655
  953POPC   GL213918   1.406   5.432   5.759 -0.2332 -0.2018 -0.1456
  953POPC   C1A13919   1.807   5.232   5.980  0.0848  0.0865  0.0748
  953POPC   D2A13920   2.103   4.905   6.070  0.0344  0.3557  0.1124
  953POPC   C3A13921   2.161   4.966   6.452  0.0320 -0.1512 -0.1942
  953POPC   C4A13922   1.964   5.060   6.780  0.1787 -0.1549 -0.0775
  953POPC   C1B13923   1.071   5.406   6.030 -0.1462  0.3532  0.1070
  953POPC   C2B13924   0.917   5.561   6.567 -0.1217  0.2444  0.1617
  953POPC   C3B13925   0.997   5.937   6.737  0.0126  0.0737 -0.0163
  953POPC   C4B13926   1.024   6.130   7.083 -0.2662 -0.1302 -0.1468
  954POPC   NC313927  15.147   8.608   5.198 -0.1625  0.4091 -0.2127
  954POPC   PO413928  15.001   8.252   5.267 -0.0620  0.1504 -0.0993
  954POPC   GL113929  15.053   8.103   5.685  0.0603  0.0305  0.3303
  954POPC   GL213930  15.155   7.765   5.767 -0.4606 -0.0794  0.0008
  954POPC   C1A13931  14.596   8.270   5.893 -0.1876  0.2452  0.0636
  954POPC   D2A13932  14.341   8.653   5.929  0.0226  0.3671  0.0257
  954POPC   C3A13933  14.368   9.092   6.191  0.1039  0.0507 -0.1688
  954POPC   C4A13934  14.489   9.097   6.624 -0.6511  0.1417  0.0313
  954POPC   C1B13935  15.361   7.874   6.219  0.0928 -0.1525  0.2338
  954POPC   C2B13936  15.310   7.938   6.694  0.1561 -0.0330  0.1599
  954POPC   C3B13937  15.039   8.249   6.836  0.1074 -0.0279  0.1240
  954POPC   C4B13938  14.978   8.590   7.153  0.0530 -0.2487 -0.1050
  955POPC   NC313939  12.416   4.428   5.659 -0.0374  0.1180  0.0386
  955POPC   PO413940  12.913   4.271   5.874 -0.3093  0.0116 -0.1081
  955POPC   GL113941  12.684   4.393   6.211  0.1855 -0.4009 -0.0405
  955POPC   GL213942  12.385   4.195   6.295  0.1258 -0.2394  0.2170
  955POPC   C1A13943  12.797   4.542   6.579  0.2123  0.0145 -0.0715
  955POPC   D2A13944  12.935   4.712   6.960  0.0913  0.0151 -0.0506
  955POPC   C3A13945  13.216   4.456   7.293 -0.2226  0.3158 -0.0796
  955POPC   C4A13946  13.270   4.035   7.421  0.0812 -0.2272  0.1569
  955POPC   C1B13947  12.638   4.009   6.579 -0.1805 -0.4231  0.0869
  955POPC   C2B13948  12.724   3.576   6.693 -0.2040 -0.0389  0.1844
  955POPC   C3B13949  12.883   3.271   6.946 -0.0001 -0.1272 -0.4009
  955POPC   C4B13950  13.007   3.243   7.417 -0.2685  0.4505 -0.0623
  956POPC   NC313951   0.476   7.670   5.845  0.2242  0.1591 -0.0235
  956POPC   PO413952   0.181   7.971   5.591 -0.3480 -0.0762  0.3976
  956POPC   GL113953   0.260   8.326   5.884  0.1371  0.0144 -0.1213
  956POPC   GL213954   0.244   8.046   6.092  0.0289 -0.1327  0.1344
  956POPC   C1A13955   0.231   8.511   6.254 -0.2798 -0.0983 -0.1024
  956POPC   D2A13956  -0.043   8.571   6.735 -0.0937  0.0263  0.2584
  956POPC   C3A13957  -0.380   8.337   6.817  0.3070  0.0044  0.0275
  956POPC   C4A13958  -0.624   8.167   6.470  0.0442 -0.1300 -0.0618
  956POPC   C1B13959   0.400   7.953   6.531 -0.1796 -0.1432  0.2850
  956POPC   C2B13960   0.590   7.743   6.908  0.0573 -0.1641  0.0134
  956POPC   C3B13961   0.836   7.712   7.278  0.2626  0.1533 -0.0518
  956POPC   C4B13962   1.196   7.707   7.509 -0.1444 -0.1094 -0.1809
  957POPC   NC313963   1.431  11.195   4.977 -0.3255 -0.1078 -0.0427
  957POPC   PO413964   1.022  11.065   5.080 -0.2565  0.1506 -0.2949
  957POPC   GL113965   1.008  11.055   5.552  0.4342  0.0568  0.1358
  957POPC   GL213966   1.086  11.416   5.707  0.1944  0.2208  0.1076
  957POPC   C1A13967   1.111  10.637   5.820 -0.0898 -0.0367 -0.1616
  957POPC   D2A13968   1.243  10.377   6.095  0.0471 -0.0943 -0.0135
  957POPC   C3A13969   1.477   9.957   6.071 -0.0591 -0.2368 -0.0517
  957POPC   C4A13970   1.718   9.630   6.118 -0.1318 -0.1463 -0.1289
  957POPC   C1B13971   0.792  11.120   5.995  0.1948 -0.1939 -0.0393
  957POPC   C2B13972   0.769  10.871   6.297  0.1109  0.3106 -0.1216
  957POPC   C3B13973   0.414  10.626   6.439 -0.0992 -0.0069 -0.4182
  957POPC   C4B13974   0.225  10.317   6.765 -0.0335  0.0873  0.0163
  958POPC   NC313975  15.912  18.945   5.067  0.1354 -0.0338  0.3010
  958POPC   PO413976  15.466  19.235   5.053  0.3109  0.2427  0.0449
  958POPC   GL113977  15.592  18.951   5.446  0.2033  0.2713  0.0603
  958POPC   GL213978  15.512  18.667   5.426 -0.0112  0.3669  0.2988
  958POPC   C1A13979  15.767  18.814   5.837  0.1776  0.0293  0.1902
  958POPC   D2A13980  15.863  18.949   6.204  0.0442 -0.3298  0.0458
  958POPC   C3A13981  15.671  19.327   6.409 -0.1169  0.1172 -0.1423
  958POPC   C4A13982  15.775  19.777   6.367  0.0787  0.0409  0.0570
  958POPC   C1B13983  15.120  18.786   5.658  0.1869 -0.2505  0.0900
  958POPC   C2B13984  14.829  18.712   5.946  0.1612  0.2617  0.2055
  958POPC   C3B13985  14.504  18.573   6.259  0.0807  0.0944  0.1606
  958POPC   C4B13986  14.176  18.379   6.467 -0.0625  0.1587 -0.0967
  959POPC   NC313987   4.328   9.774   5.250 -0.1279  0.2202  0.0077
  959POPC   PO413988   4.657   9.745   5.455 -0.1758 -0.2291 -0.2650
  959POPC   GL113989   4.680   9.457   5.854 -0.3125  0.0841 -0.2801
  959POPC   GL213990   4.648   9.794   5.944 -0.3549 -0.0062  0.1013
  959POPC   C1A13991   4.870   9.373   6.346  0.0497  0.0809  0.0998
  959POPC   D2A13992   4.867   9.475   6.724  0.0672 -0.1438  0.0281
  959POPC   C3A13993   4.939   9.950   6.742 -0.2050  0.2010  0.1751
  959POPC   C4A13994   4.781  10.274   6.711  0.0563 -0.0176  0.0450
  959POPC   C1B13995   4.549   9.708   6.359 -0.1861 -0.1429  0.0102
  959POPC   C2B13996   4.336   9.412   6.616 -0.2037  0.4390  0.2057
  959POPC   C3B13997   4.402   9.060   7.035  0.3675 -0.2435 -0.0422
  959POPC   C4B13998   4.523   8.760   7.264  0.2512 -0.4724 -0.2586
  960POPC   NC313999  17.976  15.880   5.121 -0.1654  0.1031  0.3340
  960POPC   PO414000  17.577  16.051   5.085 -0.1601 -0.0115  0.0121
  960POPC   GL114001  17.627  15.912   5.533  0.1114 -0.4519  0.1330
  960POPC   GL214002  17.531  15.640   5.572  0.0819 -0.1016 -0.0125
  960POPC   C1A14003  17.635  15.859   6.003 -0.3586  0.0488  0.3109
  960POPC   D2A14004  17.462  16.096   6.416  0.0824 -0.0568  0.0602
  960POPC   C3A14005  17.370  15.727   6.644 -0.4320 -0.1310 -0.2084
  960POPC   C4A14006  17.449  15.287   6.946  0.1416 -0.2850  0.0103
  960POPC   C1B14007  17.527  15.347   5.949 -0.0737 -0.0311 -0.1561
  960POPC   C2B14008  17.799  15.318   6.341  0.4091  0.0943  0.3106
  960POPC   C3B14009  17.955  15.109   6.557  0.0558  0.0603 -0.0135
  960POPC   C4B14010  17.962  15.121   6.916 -0.0298  0.2486 -0.3929
  961POPC   NC314011   3.140  16.072   5.234  0.1884 -0.1755 -0.2729
  961POPC   PO414012   2.867  15.745   5.241  0.1285 -0.1500  0.0166
  961POPC   GL114013   2.816  15.517   5.582 -0.0444  0.2059 -0.0951
  961POPC   GL214014   2.431  15.506   5.742  0.0799 -0.0883 -0.0191
  961POPC   C1A14015   2.737  15.142   5.941  0.1137 -0.1037 -0.1264
  961POPC   D2A14016   2.543  14.947   6.309 -0.1078  0.0596 -0.3824
  961POPC   C3A14017   2.798  15.075   6.642  0.3148  0.2445  0.0544
  961POPC   C4A14018   3.000  15.385   6.914 -0.0644  0.2827 -0.0425
  961POPC   C1B14019   2.287  15.351   6.128 -0.3187 -0.2334  0.2105
  961POPC   C2B14020   1.884  15.119   6.300  0.1449  0.2389  0.0128
  961POPC   C3B14021   1.785  15.005   6.681  0.1968  0.1230  0.0742
  961POPC   C4B14022   1.377  15.041   6.734  0.1821 -0.2150 -0.0097
  962POPC   NC314023   5.399   9.910   5.353 -0.0860  0.2167  0.4038
  962POPC   PO414024   5.321  10.296   5.206  0.2303  0.0129  0.4039
  962POPC   GL114025   5.231  10.267   5.617 -0.3444 -0.1002 -0.0077
  962POPC   GL214026   5.105  10.020   5.749 -0.2831  0.1730  0.1342
  962POPC   C1A14027   5.278  10.393   6.049  0.3498  0.0036 -0.3450
  962POPC   D2A14028   5.300  10.309   6.498 -0.2027  0.1812  0.0001
  962POPC   C3A14029   5.159  10.651   6.738 -0.3519 -0.1236 -0.1912
  962POPC   C4A14030   4.827  10.567   7.103  0.1420  0.2188  0.2612
  962POPC   C1B14031   5.125   9.884   6.179  0.1285 -0.0332  0.2183
  962POPC   C2B14032   5.312   9.481   6.269 -0.1236 -0.0760 -0.1631
  962POPC   C3B14033   5.380   9.348   6.706  0.0634  0.4548  0.1163
  962POPC   C4B14034   5.427   9.049   7.024 -0.1065 -0.0703 -0.2989
  963YOPC   NC314035  11.859   9.504   5.287 -0.1995 -0.1676 -0.1258
  963YOPC   PO414036  11.666   9.545   5.724  0.0101  0.2253  0.1037
  963YOPC   GL114037  11.850   9.728   5.976 -0.0689 -0.1275 -0.2243
  963YOPC   GL214038  12.145   9.681   6.000  0.2557 -0.4556 -0.1457
  963YOPC   C1A14039  11.696   9.927   6.360  0.0373  0.2323 -0.2951
  963YOPC   D2A14040  11.851  10.289   6.588 -0.1635 -0.0182  0.2164
  963YOPC   C3A14041  11.757  10.607   6.865  0.1412 -0.1303 -0.0227
  963YOPC   C4A14042  11.742  10.633   7.268  0.0110 -0.0023 -0.1600
  963YOPC   C1B14043  12.287   9.968   6.340 -0.1972 -0.1070 -0.0739
  963YOPC   C2B14044  12.209   9.922   6.693 -0.0749  0.0130 -0.1051
  963YOPC   D3B14045  11.946  10.100   7.015  0.2048  0.2637  0.0477
  963YOPC   C4B14046  11.748  10.122   7.379 -0.0393 -0.0016 -0.1863
  964YOPC   NC314047  13.633  16.197   4.869  0.1358  0.2584  0.1215
  964YOPC   PO414048  13.440  15.960   5.221  0.1695 -0.3720 -0.1378
  964YOPC   GL114049  13.544  16.156   5.582 -0.0963 -0.1067  0.3736
  964YOPC   GL214050  13.280  16.233   5.720  0.0462  0.1287  0.2203
  964YOPC   C1A14051  13.565  16.056   6.067  0.2928 -0.3660 -0.0994
  964YOPC   D2A14052  13.661  16.182   6.439 -0.1010  0.2244  0.3642
  964YOPC   C3A14053  13.477  16.432   6.664 -0.0500  0.0620  0.1404
  964YOPC   C4A14054  13.637  16.830   6.873  0.3278 -0.1170  0.1162
  964YOPC   C1B14055  13.078  15.867   5.972  0.1599 -0.2651 -0.0714
  964YOPC   C2B14056  13.420  15.594   6.332 -0.0187 -0.0992 -0.1566
  964YOPC   D3B14057  13.831  15.662   6.286  0.0399  0.2336 -0.2773
  964YOPC   C4B14058  14.059  15.868   5.871 -0.0167  0.0117  0.1859
  965YOPC   NC314059   6.930   7.051   5.692  0.2178  0.2219 -0.0568
  965YOPC   PO414060   6.940   6.708   5.905 -0.0290  0.3500  0.0759
  965YOPC   GL114061   6.670   6.597   6.252 -0.0544  0.1885 -0.3612
  965YOPC   GL214062   6.755   6.388   6.512  0.2325  0.1321  0.1428
  965YOPC   C1A14063   6.344   6.695   6.553 -0.1684 -0.3300 -0.1298
  965YOPC   D2A14064   6.032   6.617   6.821  0.3605  0.0361 -0.1985
  965YOPC   C3A14065   5.941   6.731   7.203  0.4256 -0.1823 -0.0068
  965YOPC   C4A14066   5.975   6.880   7.651 -0.1565 -0.1754  0.0393
  965YOPC   C1B14067   6.706   6.632   6.904 -0.3773  0.1212  0.1455
  965YOPC   C2B14068   6.921   6.674   7.187  0.2161  0.0200 -0.2906
  965YOPC   D3B14069   7.233   6.838   7.385  0.0619 -0.1380  0.2378
  965YOPC   C4B14070   7.371   6.465   7.585  0.1583 -0.3844  0.0738
  966YOPC   NC314071  15.506   8.132   5.511 -0.2433  0.2094 -0.7662
  966YOPC   PO414072  15.666   7.861   5.674  0.1957 -0.3134  0.1056
  966YOPC   GL114073  15.822   8.002   6.046  0.0745 -0.1356  0.0070
  966YOPC   GL214074  16.226   8.095   5.977  0.0071  0.2885 -0.3236
  966YOPC   C1A14075  16.050   8.338   6.366 -0.0668 -0.0858 -0.2356
  966YOPC   D2A14076  16.213   8.391   6.740  0.0821  0.1187  0.2537
  966YOPC   C3A14077  16.356   8.511   7.110 -0.2261 -0.1462  0.0220
  966YOPC   C4A14078  16.225   8.636   7.570  0.1565 -0.0500  0.0430
  966YOPC   C1B14079  16.227   7.681   6.084  0.1482  0.1419 -0.4187
  966YOPC   C2B14080  16.126   7.664   6.526  0.1396 -0.0342 -0.1527
  966YOPC   D3B14081  15.844   7.976   6.693  0.1445 -0.4422  0.0868
  966YOPC   C4B14082  15.948   8.121   7.158  0.0589  0.2516  0.1323
  967YOPC   NC314083  16.103  11.843   4.968  0.0501 -0.0229 -0.0887
  967YOPC   PO414084  16.398  12.204   5.108  0.1866  0.3010  0.0259
  967YOPC   GL114085  16.085  12.116   5.401 -0.2393  0.0020 -0.4670
  967YOPC   GL214086  15.783  12.176   5.650  0.1802 -0.1757  0.0150
  967YOPC   C1A14087  16.018  11.766   5.710 -0.1811  0.0923  0.2659
  967YOPC   D2A14088  15.959  11.446   5.989 -0.1457  0.3611  0.1140
  967YOPC   C3A14089  16.102  11.283   6.444 -0.1499 -0.3211 -0.2004
  967YOPC   C4A14090  16.538  11.305   6.589 -0.1866  0.0811 -0.0607
  967YOPC   C1B14091  16.112  12.246   5.974  0.0701  0.0343  0.1503
  967YOPC   C2B14092  16.203  12.433   6.346 -0.0382  0.1415 -0.1306
  967YOPC   D3B14093  16.138  11.923   6.471  0.1299 -0.0091 -0.0481
  967YOPC   C4B14094  16.246  11.674   6.798 -0.3106  0.0031 -0.1815
  968YOPC   NC314095   5.843  18.846   5.098  0.0585  0.2019  0.0926
  968YOPC   PO414096   5.616  18.499   5.283  0.0329 -0.1816  0.1181
  968YOPC   GL114097   5.807  18.259   5.675  0.3668  0.1214  0.2553
  968YOPC   GL214098   5.678  18.112   5.878 -0.3372  0.0137  0.0360
  968YOPC   C1A14099   6.224  18.291   5.854  0.0857 -0.2160 -0.0387
  968YOPC   D2A14100   6.382  18.128   6.327  0.2592  0.2340 -0.0395
  968YOPC   C3A14101   6.706  17.832   6.396  0.2579 -0.3415  0.1395
  968YOPC   C4A14102   6.968  17.401   6.452  0.1091  0.2209  0.2352
  968YOPC   C1B14103   5.914  18.070   6.235 -0.2142 -0.0591  0.1593
  968YOPC   C2B14104   6.079  17.934   6.693 -0.1464 -0.0247 -0.1712
  968YOPC   D3B14105   5.867  17.836   6.968  0.1227  0.2439  0.1346
  968YOPC   C4B14106   5.633  17.885   7.358 -0.3633 -0.0320 -0.0465
  969YOPC   NC314107  11.187  14.281   5.073  0.2093 -0.0857 -0.0212
  969YOPC   PO414108  11.086  14.741   5.092 -0.0081 -0.0882 -0.0563
  969YOPC   GL114109  11.050  14.622   5.518 -0.0065  0.1901  0.1338
  969YOPC   GL214110  10.716  14.649   5.714 -0.0543  0.1515 -0.1236
  969YOPC   C1A14111  11.051  14.378   5.875 -0.0087  0.4082 -0.0977
  969YOPC   D2A14112  11.180  14.103   6.274  0.0646  0.3035 -0.0025
  969YOPC   C3A14113  11.418  14.224   6.603 -0.0254  0.1871  0.0202
  969YOPC   C4A14114  11.476  14.345   6.975  0.2127  0.0765  0.0427
  969YOPC   C1B14115  10.572  14.511   6.133  0.2835 -0.0466  0.0483
  969YOPC   C2B14116  10.331  14.486   6.514  0.1595  0.2608  0.0464
  969YOPC   D3B14117   9.951  14.340   6.736  0.4044 -0.1520 -0.1933
  969YOPC   C4B14118   9.688  14.341   7.028  0.0393  0.0950 -0.2937
  970YOPC   NC314119  14.048  10.885   4.757 -0.1606 -0.2473  0.0620
  970YOPC   PO414120  13.636  10.838   4.924 -0.1796 -0.1327  0.0467
  970YOPC   GL114121  13.638  10.868   5.356  0.3161  0.0450 -0.4831
  970YOPC   GL214122  13.569  10.526   5.559 -0.1243 -0.1355  0.0005
  970YOPC   C1A14123  13.999  10.945   5.653  0.0417  0.3695 -0.2299
  970YOPC   D2A14124  14.374  10.912   5.745 -0.3749 -0.1149  0.1972
  970YOPC   C3A14125  14.306  11.047   6.084  0.4439 -0.1363  0.2602
  970YOPC   C4A14126  14.306  10.905   6.462 -0.1621 -0.0952 -0.1428
  970YOPC   C1B14127  13.464  10.727   5.897 -0.4569  0.0349  0.2610
  970YOPC   C2B14128  13.479  11.111   6.066  0.0446 -0.0095  0.0480
  970YOPC   D3B14129  13.330  11.269   6.449 -0.2520 -0.2010 -0.0013
  970YOPC   C4B14130  12.862  11.514   6.679  0.1529 -0.3463  0.0014
  971YOPC   NC314131   1.489  13.210   5.046  0.1976  0.0699  0.0373
  971YOPC   PO414132   1.830  13.430   5.184  0.3868  0.4353  0.1565
  971YOPC   GL114133   1.942  13.170   5.454 -0.0464 -0.3143 -0.1754
  971YOPC   GL214134   2.269  13.252   5.494  0.0212 -0.1349  0.3027
  971YOPC   C1A14135   2.154  13.024   5.883 -0.1503  0.3426  0.4257
  971YOPC   D2A14136   2.068  12.871   6.233  0.6683  0.5732  0.0629
  971YOPC   C3A14137   2.228  12.700   6.552  0.0936 -0.2002 -0.0082
  971YOPC   C4A14138   2.633  12.675   6.657 -0.0726  0.1245  0.1125
  971YOPC   C1B14139   2.270  13.568   5.839  0.0578 -0.0074 -0.0361
  971YOPC   C2B14140   2.345  13.771   6.173  0.4789 -0.0152  0.0932
  971YOPC   D3B14141   2.292  13.707   6.637  0.1135  0.0140  0.0258
  971YOPC   C4B14142   2.292  13.532   7.033 -0.2056  0.0562 -0.0802
  972YOPC   NC314143  11.249  10.598   5.627  0.5194 -0.2548 -0.2125
  972YOPC   PO414144  11.009  10.257   5.730  0.3816 -0.0395 -0.1391
  972YOPC   GL114145  10.930  10.406   6.094 -0.0264 -0.1218  0.1049
  972YOPC   GL214146  10.586  10.573   6.079  0.3941 -0.0579 -0.2190
  972YOPC   C1A14147  11.140  10.438   6.540  0.0456 -0.0242 -0.2836
  972YOPC   D2A14148  11.346  10.764   6.662  0.2143  0.1182  0.0191
  972YOPC   C3A14149  11.201  11.105   6.973  0.1579  0.1430 -0.2631
  972YOPC   C4A14150  10.826  11.145   7.211 -0.2446  0.3012 -0.0839
  972YOPC   C1B14151  10.456  10.737   6.461 -0.0616  0.2450  0.0965
  972YOPC   C2B14152  10.705  10.798   6.736  0.1473 -0.1096 -0.0316
  972YOPC   D3B14153  10.429  10.788   7.164  0.0540 -0.2337 -0.0802
  972YOPC   C4B14154  10.104  10.602   7.305 -0.2569 -0.0954 -0.0566
  973YOPC   NC314155   0.181  13.574   5.172  0.3206 -0.3138  0.0278
  973YOPC   PO414156  -0.002  13.984   5.271 -0.0621 -0.0522 -0.1025
  973YOPC   GL114157  -0.090  14.335   5.591  0.3357  0.1589 -0.0567
  973YOPC   GL214158  -0.243  14.190   5.926 -0.2881 -0.0254  0.1629
  973YOPC   C1A14159  -0.368  14.664   5.784 -0.1464 -0.1975  0.2255
  973YOPC   D2A14160  -0.386  14.520   6.235 -0.1069  0.0273  0.1700
  973YOPC   C3A14161  -0.317  14.588   6.592  0.0602  0.2455 -0.2771
  973YOPC   C4A14162  -0.720  14.402   7.010 -0.0094  0.2192 -0.0523
  973YOPC   C1B14163  -0.041  13.735   6.054  0.0959 -0.2099  0.2621
  973YOPC   C2B14164  -0.065  13.377   6.389 -0.1108 -0.5512  0.3690
  973YOPC   D3B14165  -0.487  13.234   6.451 -0.2089 -0.0055  0.0472
  973YOPC   C4B14166  -0.699  12.886   6.601  0.0189 -0.1345 -0.1388
  974YOPC   NC314167  11.087   3.445   5.174  0.1424 -0.1325 -0.3109
  974YOPC   PO414168  10.682   3.558   5.283 -0.1007 -0.3684 -0.0049
  974YOPC   GL114169  10.575   3.696   5.618 -0.2604 -0.0206 -0.2016
  974YOPC   GL214170  10.221   3.731   5.705 -0.0350 -0.1767 -0.2318
  974YOPC   C1A14171  10.516   3.493   6.083 -0.2369  0.3069 -0.0473
  974YOPC   D2A14172  10.831   3.468   6.471  0.3969  0.0426  0.0603
  974YOPC   C3A14173  10.842   3.055   6.591  0.0741 -0.1955 -0.5252
  974YOPC   C4A14174  10.695   2.812   6.894  0.1060  0.4365  0.2381
  974YOPC   C1B14175  10.024   3.889   6.065  0.5348  0.2645  0.0129
  974YOPC   C2B14176   9.754   3.986   6.448  0.3282  0.1023 -0.2884
  974YOPC   D3B14177   9.724   3.539   6.585  0.1388 -0.1885  0.0433
  974YOPC   C4B14178   9.365   3.361   6.797 -0.2187 -0.1428 -0.0542
  975YOPC   NC314179   5.230  17.713   5.553  0.1689  0.0604 -0.1293
  975YOPC   PO414180   5.008  18.085   5.593  0.0110 -0.3250 -0.1888
  975YOPC   GL114181   5.195  17.953   6.063 -0.0878  0.1393  0.1066
  975YOPC   GL214182   5.326  18.093   6.302  0.1245 -0.2513 -0.2098
  975YOPC   C1A14183   5.053  17.756   6.492  0.0295 -0.0259  0.0983
  975YOPC   D2A14184   5.178  18.092   6.894  0.1605  0.0704  0.0108
  975YOPC   C3A14185   4.839  18.193   7.114  0.3295  0.2393 -0.3827
  975YOPC   C4A14186   4.545  18.386   7.397  0.2868  0.3764 -0.1190
  975YOPC   C1B14187   5.583  18.199   6.647 -0.0033  0.1950  0.0872
  975YOPC   C2B14188   5.888  18.452   6.675 -0.1480 -0.0609 -0.2664
  975YOPC   D3B14189   6.170  18.525   7.059 -0.1221  0.1657  0.0428
  975YOPC   C4B14190   6.553  18.459   7.409 -0.0543  0.1593  0.0093
  976YOPC   NC314191  16.547  18.581   4.900  0.0415 -0.0756 -0.1998
  976YOPC   PO414192  17.009  18.321   4.868  0.2037 -0.4510 -0.1868
  976YOPC   GL114193  17.149  18.131   5.211 -0.1344  0.3847  0.2108
  976YOPC   GL214194  17.349  18.326   5.308 -0.0431 -0.2202 -0.0788
  976YOPC   C1A14195  17.344  17.792   5.490  0.1822 -0.2191 -0.1172
  976YOPC   D2A14196  17.167  17.461   5.759  0.1204 -0.1236 -0.1266
  976YOPC   C3A14197  17.111  17.467   6.177  0.1789 -0.1936 -0.0247
  976YOPC   C4A14198  17.199  17.439   6.618  0.2599 -0.0583 -0.1067
  976YOPC   C1B14199  17.002  18.595   5.486  0.0843  0.1545 -0.2052
  976YOPC   C2B14200  16.784  18.645   5.926  0.0276 -0.0257  0.3136
  976YOPC   D3B14201  16.999  18.995   6.046 -0.1633  0.1466 -0.1411
  976YOPC   C4B14202  17.209  18.992   5.751  0.0880 -0.2305  0.0059
  977YOPC   NC314203   6.138   7.513   6.162  0.1257  0.0157 -0.2220
  977YOPC   PO414204   5.834   7.782   6.110 -0.0343  0.1022  0.0493
  977YOPC   GL114205   5.945   7.922   6.434 -0.3423 -0.3592  0.1290
  977YOPC   GL214206   6.181   7.774   6.559 -0.2332 -0.1735  0.0548
  977YOPC   C1A14207   5.868   8.013   6.834 -0.3363  0.1238 -0.1155
  977YOPC   D2A14208   5.487   8.056   6.969  0.2048 -0.1622  0.0837
  977YOPC   C3A14209   5.264   8.127   7.305 -0.0731 -0.1224  0.0020
  977YOPC   C4A14210   4.992   8.460   7.550  0.0703  0.0916  0.2256
  977YOPC   C1B14211   6.447   7.926   6.823  0.0044  0.0564 -0.1669
  977YOPC   C2B14212   6.655   7.915   7.095 -0.0623 -0.2218 -0.0393
  977YOPC   D3B14213   6.768   8.241   7.304 -0.0008  0.1287  0.1619
  977YOPC   C4B14214   6.715   8.652   7.475 -0.1515  0.2025 -0.0277
  978YOPC   NC314215  14.809   6.905   5.539  0.0984 -0.2944 -0.2417
  978YOPC   PO414216  15.115   6.970   5.380  0.1973 -0.0874  0.0452
  978YOPC   GL114217  15.181   7.094   5.839 -0.4720 -0.2673  0.0499
  978YOPC   GL214218  15.367   6.978   6.168 -0.3063  0.0223 -0.2312
  978YOPC   C1A14219  15.100   7.339   6.253 -0.5168  0.2896 -0.0420
  978YOPC   D2A14220  14.946   7.572   6.518  0.1210 -0.0096  0.0847
  978YOPC   C3A14221  14.862   7.211   6.788 -0.2983 -0.2152 -0.1257
  978YOPC   C4A14222  14.646   7.143   7.191 -0.0537 -0.1368  0.1762
  978YOPC   C1B14223  15.273   7.019   6.586 -0.2880 -0.0303 -0.2548
  978YOPC   C2B14224  15.352   6.867   6.935 -0.3030  0.2332 -0.0873
  978YOPC   D3B14225  15.251   7.182   7.156  0.2310  0.1011  0.0647
  978YOPC   C4B14226  15.104   7.535   7.478 -0.2268 -0.0093  0.2621
  979YOPC   NC314227   9.115   9.652   5.361 -0.0469 -0.0536 -0.0478
  979YOPC   PO414228   9.485   9.838   5.537  0.0538 -0.0824 -0.1781
  979YOPC   GL114229   9.469   9.939   5.925 -0.0114 -0.2294 -0.0894
  979YOPC   GL214230   9.761   9.867   6.232 -0.2899 -0.0069  0.2327
  979YOPC   C1A14231   9.252  10.076   6.349  0.0878  0.0267 -0.0002
  979YOPC   D2A14232   9.231  10.290   6.825  0.1111  0.1287  0.0429
  979YOPC   C3A14233   8.924  10.047   7.069 -0.0615  0.0268  0.2151
  979YOPC   C4A14234   8.509   9.813   7.005 -0.3303 -0.1366  0.1841
  979YOPC   C1B14235   9.903  10.066   6.630 -0.0740  0.1393 -0.4606
  979YOPC   C2B14236   9.734  10.310   6.931 -0.0794  0.0365 -0.2764
  979YOPC   D3B14237   9.757  10.268   7.300  0.1254 -0.1494  0.1340
  979YOPC   C4B14238   9.763  10.253   7.748  0.3229  0.1872  0.0340
  980YOPC   NC314239   1.403  12.022   5.018 -0.1333  0.0033  0.2170
  980YOPC   PO414240   1.704  11.681   5.013 -0.3791 -0.4448 -0.1691
  980YOPC   GL114241   1.989  11.757   5.327 -0.1238 -0.2367 -0.0337
  980YOPC   GL214242   2.226  11.528   5.345 -0.4762  0.0200  0.0601
  980YOPC   C1A14243   2.267  12.152   5.505  0.0002  0.1867  0.1917
  980YOPC   D2A14244   2.647  12.289   5.687  0.1348  0.1034 -0.1080
  980YOPC   C3A14245   2.952  12.327   6.019  0.0902 -0.0674 -0.1331
  980YOPC   C4A14246   3.004  12.332   6.484 -0.0605 -0.0430  0.3260
  980YOPC   C1B14247   2.043  11.508   5.733  0.2240  0.0950 -0.1197
  980YOPC   C2B14248   1.957  11.500   6.117  0.1708  0.3344 -0.1282
  980YOPC   D3B14249   1.604  11.530   6.284  0.0511  0.1242  0.1408
  980YOPC   C4B14250   1.338  11.494   6.599 -0.1143 -0.1174 -0.0351
  981YOPC   NC314251   9.702   4.943   5.321 -0.0432  0.2430  0.0361
  981YOPC   PO414252  10.105   4.746   5.432 -0.0309 -0.0933  0.0187
  981YOPC   GL114253  10.170   4.690   5.932  0.0457 -0.0579  0.0426
  981YOPC   GL214254  10.270   4.925   6.126 -0.3708 -0.0842 -0.3042
  981YOPC   C1A14255  10.054   4.381   6.374  0.0928 -0.0385 -0.2548
  981YOPC   D2A14256   9.983   4.412   6.744  0.0455  0.2054 -0.1305
  981YOPC   C3A14257  10.014   4.024   6.908  0.0584  0.1380  0.1643
  981YOPC   C4A14258  10.118   3.613   7.102  0.0050 -0.1072  0.1420
  981YOPC   C1B14259  10.272   4.853   6.606  0.1000 -0.1854 -0.0364
  981YOPC   C2B14260  10.265   4.863   7.065  0.0737 -0.3303  0.1003
  981YOPC   D3B14261  10.730   4.939   7.182  0.3623  0.1909 -0.0821
  981YOPC   C4B14262  10.997   4.782   6.896 -0.0774  0.0301  0.0239
  982YOPC   NC314263   6.676   3.236   5.907  0.1421 -0.2427 -0.0943
  982YOPC   PO414264   6.461   3.561   5.534 -0.1115 -0.2892  0.0880
  982YOPC   GL114265   6.397   3.725   5.903  0.1864 -0.2358 -0.3820
  982YOPC   GL214266   6.119   3.548   6.019  0.0857  0.0562 -0.0153
  982YOPC   C1A14267   6.612   3.781   6.293  0.0212 -0.0904  0.0832
  982YOPC   D2A14268   6.503   3.595   6.755 -0.1487 -0.0383  0.0967
  982YOPC   C3A14269   6.783   3.739   6.958  0.2184  0.1826 -0.1243
  982YOPC   C4A14270   6.933   4.079   7.236  0.0001  0.1056 -0.0006
  982YOPC   C1B14271   6.113   3.663   6.475  0.1784 -0.2000  0.1896
  982YOPC   C2B14272   6.008   3.675   6.863  0.1203  0.2234  0.2109
  982YOPC   D3B14273   5.992   3.926   7.225  0.2194 -0.0053 -0.0137
  982YOPC   C4B14274   6.131   3.811   7.686  0.2046 -0.3598  0.1361
  983YOPC   NC314275   8.979   8.292   5.787  0.0274  0.0568 -0.0809
  983YOPC   PO414276   9.017   8.701   5.785  0.0249  0.0498 -0.2394
  983YOPC   GL114277   8.884   8.942   6.175 -0.0410 -0.2326 -0.2612
  983YOPC   GL214278   9.119   9.121   6.193 -0.2153  0.3216 -0.2415
  983YOPC   C1A14279   8.884   8.927   6.651 -0.2357 -0.0246  0.3216
  983YOPC   D2A14280   9.062   8.701   6.930  0.1089  0.0839  0.1232
  983YOPC   C3A14281   9.051   8.791   7.428 -0.0313  0.3642  0.2716
  983YOPC   C4A14282   8.796   8.803   7.756  0.1111  0.0330  0.2508
  983YOPC   C1B14283   9.366   8.710   6.287 -0.1544 -0.0894  0.1039
  983YOPC   C2B14284   9.467   8.422   6.500  0.0411 -0.0819  0.1905
  983YOPC   D3B14285   9.466   8.395   6.906 -0.2248 -0.1317  0.2335
  983YOPC   C4B14286   9.321   8.302   7.348  0.0745 -0.1718  0.1536
  984YOPC   NC314287  10.176   1.660   5.362 -0.0269 -0.4585 -0.1532
  984YOPC   PO414288   9.734   1.560   5.568 -0.3738 -0.0556  0.1108
  984YOPC   GL114289   9.614   1.625   5.980  0.2012  0.1482  0.3051
  984YOPC   GL214290   9.561   1.978   5.788 -0.2742 -0.2353  0.2744
  984YOPC   C1A14291   9.465   1.953   6.317 -0.2020 -0.1678 -0.0349
  984YOPC   D2A14292   9.087   1.976   6.579  0.0042 -0.0061  0.4104
  984YOPC   C3A14293   8.897   1.626   6.580  0.0565 -0.1509  0.0741
  984YOPC   C4A14294   8.706   1.280   6.764  0.1969  0.0064 -0.0433
  984YOPC   C1B14295   9.329   2.342   6.035 -0.0541  0.0245  0.1130
  984YOPC   C2B14296   9.365   2.623   6.240  0.2639 -0.0142  0.2432
  984YOPC   D3B14297   9.334   2.428   6.570 -0.1026 -0.0642  0.1973
  984YOPC   C4B14298   9.519   2.146   6.881 -0.2171  0.0585  0.2453
  985YOPC   NC314299  18.730  10.370   5.102  0.0194 -0.3471  0.1913
  985YOPC   PO414300  18.168  10.195   4.851  0.1238  0.0685  0.0360
  985YOPC   GL114301  18.225  10.197   5.249 -0.0215 -0.0222 -0.0891
  985YOPC   GL214302  18.325  10.574   5.404 -0.0634  0.3456 -0.1823
  985YOPC   C1A14303  18.508   9.966   5.516 -0.0176  0.2714  0.1560
  985YOPC   D2A14304  18.789  10.035   5.868  0.2577 -0.4216 -0.0606
  985YOPC   C3A14305  18.939  10.318   6.079 -0.2039 -0.0372 -0.1357
  985YOPC   C4A14306  19.046  10.378   6.538 -0.0276 -0.0446  0.3094
  985YOPC   C1B14307  18.397  10.317   5.847  0.0507 -0.0133  0.1169
  985YOPC   C2B14308  18.438  10.463   6.281  0.1989 -0.0893 -0.0040
  985YOPC   D3B14309  18.751  10.764   6.338 -0.2203 -0.0862  0.1526
  985YOPC   C4B14310  18.833  10.861   6.814  0.1882 -0.0183  0.1689
  986YOPC   NC314311  19.267   0.665   5.204  0.1151 -0.1214  0.0734
  986YOPC   PO414312  18.778   0.878   5.338  0.0927 -0.1453 -0.1390
  986YOPC   GL114313  18.966   0.630   5.689 -0.3199 -0.0654 -0.2309
  986YOPC   GL214314  18.981   0.900   5.884  0.0098 -0.1949 -0.0666
  986YOPC   C1A14315  18.754   0.361   5.782 -0.1143 -0.3565  0.0606
  986YOPC   D2A14316  18.691   0.015   6.023  0.3909  0.2001  0.1310
  986YOPC   C3A14317  18.509  -0.143   6.404  0.0228 -0.1301 -0.1095
  986YOPC   C4A14318  18.480  -0.370   6.817  0.0539 -0.1630  0.1342
  986YOPC   C1B14319  18.891   1.147   6.427  0.2080 -0.1851  0.1597
  986YOPC   C2B14320  18.783   1.423   6.860  0.0093  0.2416 -0.2555
  986YOPC   D3B14321  19.239   1.553   6.764 -0.1027  0.2511  0.2977
  986YOPC   C4B14322  19.629   1.606   6.935 -0.0919  0.0213  0.0566
  987YOPC   NC314323   2.964  15.239   5.152 -0.3162 -0.1979 -0.1113
  987YOPC   PO414324   2.962  14.761   5.183  0.0181 -0.2379  0.3659
  987YOPC   GL114325   3.255  14.754   5.602 -0.1360 -0.1323  0.2688
  987YOPC   GL214326   3.525  14.874   5.592 -0.2739  0.0423  0.0175
  987YOPC   C1A14327   3.412  14.433   5.865 -0.1796 -0.2347  0.1427
  987YOPC   D2A14328   3.454  14.342   6.238 -0.3193 -0.0770 -0.0668
  987YOPC   C3A14329   3.604  13.984   6.245 -0.2584 -0.2239  0.2239
  987YOPC   C4A14330   3.987  13.979   6.513  0.1774 -0.0530 -0.1171
  987YOPC   C1B14331   3.755  14.786   5.961  0.1255  0.1247  0.1419
  987YOPC   C2B14332   3.664  14.894   6.409  0.1779  0.2820  0.3215
  987YOPC   D3B14333   3.382  15.163   6.572  0.1005 -0.0371  0.0447
  987YOPC   C4B14334   3.194  15.465   6.425  0.3195  0.1408 -0.2481
  988YOPC   NC314335   1.555   9.351   5.125 -0.0475 -0.1183  0.1006
  988YOPC   PO414336   1.742   8.933   5.180  0.1094  0.1215 -0.1739
  988YOPC   GL114337   2.030   9.215   5.419  0.2575 -0.1702 -0.1533
  988YOPC   GL214338   2.057   9.616   5.254  0.2639  0.2699 -0.3674
  988YOPC   C1A14339   2.072   9.298   5.881 -0.2637 -0.1226  0.2583
  988YOPC   D2A14340   2.427   9.348   6.257 -0.3082  0.1573 -0.0371
  988YOPC   C3A14341   2.345   9.011   6.627  0.0431  0.2857  0.2157
  988YOPC   C4A14342   2.014   8.769   6.794 -0.1457 -0.2990 -0.0259
  988YOPC   C1B14343   2.205   9.902   5.651 -0.1511  0.2434 -0.1035
  988YOPC   C2B14344   2.295   9.786   6.077  0.0402  0.1011 -0.0357
  988YOPC   D3B14345   2.104   9.668   6.430 -0.0304 -0.0488  0.1220
  988YOPC   C4B14346   2.102   9.816   6.774 -0.1744  0.1464  0.4126
  989YOPC   NC314347   8.931   9.913   5.712 -0.2481 -0.0938 -0.5098
  989YOPC   PO414348   8.498   9.957   5.711  0.0577  0.2958  0.0465
  989YOPC   GL114349   8.361   9.850   6.097  0.0317  0.1586 -0.2623
  989YOPC   GL214350   8.054  10.015   6.080 -0.1431  0.1611 -0.2741
  989YOPC   C1A14351   8.472   9.601   6.438 -0.0358  0.2106 -0.3803
  989YOPC   D2A14352   8.498   9.205   6.642  0.1791 -0.2300 -0.2277
  989YOPC   C3A14353   8.349   9.300   7.007  0.1855 -0.1473 -0.1148
  989YOPC   C4A14354   8.239   9.627   7.389  0.0394 -0.3465 -0.1492
  989YOPC   C1B14355   7.663   9.923   6.181  0.0116  0.0375  0.0399
  989YOPC   C2B14356   7.437  10.232   6.300 -0.0172  0.0966 -0.0975
  989YOPC   D3B14357   7.113  10.094   6.329 -0.1815 -0.2106 -0.1928
  989YOPC   C4B14358   6.735  10.245   6.464  0.2839  0.1839  0.0517
  990YOPC   NC314359   4.815  11.337   5.283 -0.0494 -0.0301  0.2536
  990YOPC   PO414360   4.612  10.992   5.465 -0.1809  0.3208  0.5805
  990YOPC   GL114361   4.246  10.877   5.687 -0.0546  0.3160  0.1597
  990YOPC   GL214362   4.209  10.574   5.606 -0.1181  0.0824  0.0747
  990YOPC   C1A14363   4.000  10.906   6.066 -0.0885 -0.0616  0.3255
  990YOPC   D2A14364   3.679  10.889   6.317 -0.1670 -0.0206  0.1247
  990YOPC   C3A14365   3.743  10.801   6.729  0.0276 -0.1766 -0.1864
  990YOPC   C4A14366   3.795  10.581   7.207 -0.1289  0.0618 -0.0229
  990YOPC   C1B14367   4.209  10.263   5.970  0.1380 -0.3094  0.0491
  990YOPC   C2B14368   4.205  10.035   6.264 -0.0555 -0.3361 -0.1086
  990YOPC   D3B14369   4.353   9.997   6.693  0.0180 -0.0130 -0.0823
  990YOPC   C4B14370   4.548   9.724   7.005  0.0338 -0.1950 -0.2440
  991YOPC   NC314371  17.982  14.721   5.330  0.0205  0.0437  0.1436
  991YOPC   PO414372  18.359  14.847   5.169  0.3376  0.3042 -0.4254
  991YOPC   GL114373  18.417  14.859   5.670 -0.2649 -0.0019 -0.0653
  991YOPC   GL214374  18.145  14.943   5.731 -0.0628 -0.2772  0.1635
  991YOPC   C1A14375  18.430  14.689   6.079  0.0107 -0.1295 -0.2100
  991YOPC   D2A14376  18.415  14.491   6.492  0.2159 -0.3492  0.1508
  991YOPC   C3A14377  18.123  14.607   6.850  0.1559  0.0317 -0.2958
  991YOPC   C4A14378  17.744  14.646   7.073 -0.4798 -0.1424 -0.3167
  991YOPC   C1B14379  17.902  14.889   6.064  0.0431  0.2831 -0.3595
  991YOPC   C2B14380  17.693  14.647   6.546  0.0637  0.0640  0.0563
  991YOPC   D3B14381  17.257  14.785   6.641 -0.1886 -0.0187  0.1181
  991YOPC   C4B14382  16.992  14.690   6.385 -0.1009  0.3581 -0.2073
  992YOPC   NC314383   7.947  13.187   4.993  0.4062 -0.2351 -0.1195
  992YOPC   PO414384   8.281  13.297   5.322 -0.1038 -0.1295 -0.0090
  992YOPC   GL114385   8.309  13.366   5.732  0.4255 -0.2432  0.0751
  992YOPC   GL214386   8.092  13.713   5.775 -0.1747 -0.1294  0.1009
  992YOPC   C1A14387   8.446  13.589   6.093 -0.0325  0.1831  0.1200
  992YOPC   D2A14388   8.832  13.436   6.466  0.1929 -0.1935 -0.1563
  992YOPC   C3A14389   8.849  13.330   6.829  0.2861  0.1598 -0.1197
  992YOPC   C4A14390   9.014  13.234   7.155  0.2184  0.0685  0.1881
  992YOPC   C1B14391   7.981  13.476   6.204 -0.2523 -0.1256 -0.1311
  992YOPC   C2B14392   7.979  13.348   6.542  0.0960  0.0306 -0.2659
  992YOPC   D3B14393   8.098  13.013   6.744 -0.5313 -0.4889  0.3550
  992YOPC   C4B14394   8.583  12.827   6.785 -0.1158  0.2135  0.1096
  993YOPC   NC314395   8.694  17.603   4.993  0.0432 -0.1972 -0.0833
  993YOPC   PO414396   8.877  17.211   5.244  0.1830 -0.0008 -0.2675
  993YOPC   GL114397   8.687  17.234   5.719 -0.4710  0.2477 -0.1979
  993YOPC   GL214398   8.684  17.552   5.743  0.2028  0.2862  0.0451
  993YOPC   C1A14399   8.793  17.194   6.158  0.0236  0.0550 -0.2543
  993YOPC   D2A14400   9.124  16.918   6.230  0.2539 -0.1167 -0.1817
  993YOPC   C3A14401   9.119  16.645   6.606  0.0121 -0.1601 -0.0613
  993YOPC   C4A14402   8.976  16.676   7.026 -0.2553 -0.3040  0.3901
  993YOPC   C1B14403   8.746  17.711   6.065 -0.1488 -0.1083  0.1566
  993YOPC   C2B14404   8.842  17.642   6.502  0.0178  0.0040 -0.0060
  993YOPC   D3B14405   8.663  17.847   6.856  0.2040  0.0131 -0.1788
  993YOPC   C4B14406   8.499  17.966   7.312 -0.1648 -0.2673 -0.0778
  994YOPC   NC314407  13.592   3.582   5.372  0.0189 -0.0180 -0.3008
  994YOPC   PO414408  13.421   3.521   5.841 -0.2096  0.1286  0.1405
  994YOPC   GL114409  13.362   3.399   6.221 -0.2467  0.3442  0.1540
  994YOPC   GL214410  13.286   3.028   6.264 -0.3062 -0.1837 -0.2553
  994YOPC   C1A14411  13.188   3.623   6.605 -0.4186  0.2475  0.1639
  994YOPC   D2A14412  13.366   3.469   7.001 -0.1017 -0.0020  0.0325
  994YOPC   C3A14413  13.857   3.428   7.142 -0.1569 -0.0782 -0.0835
  994YOPC   C4A14414  14.241   3.259   7.299 -0.1230  0.0820 -0.1998
  994YOPC   C1B14415  13.165   3.066   6.605  0.0882  0.3470 -0.0535
  994YOPC   C2B14416  13.136   2.779   6.957 -0.2022 -0.2745  0.1620
  994YOPC   D3B14417  13.410   2.661   7.337  0.4151 -0.1568  0.0127
  994YOPC   C4B14418  13.341   2.860   7.699 -0.0576 -0.1039 -0.0999
  995YOPC   NC314419  18.352   2.181   5.158 -0.2527  0.0890  0.2147
  995YOPC   PO414420  18.734   2.399   5.360 -0.0508  0.0910  0.0386
  995YOPC   GL114421  18.924   2.427   5.798  0.0557 -0.1742  0.2613
  995YOPC   GL214422  19.135   2.732   5.771  0.6250  0.1792  0.2277
  995YOPC   C1A14423  18.900   2.190   6.230 -0.0219 -0.0613  0.0400
  995YOPC   D2A14424  18.813   2.084   6.631 -0.1464  0.0135 -0.0432
  995YOPC   C3A14425  18.418   1.831   6.741 -0.0750  0.1057  0.1047
  995YOPC   C4A14426  18.333   1.384   6.760 -0.0167 -0.2681 -0.1924
  995YOPC   C1B14427  19.139   2.778   6.246 -0.1933 -0.0669 -0.1993
  995YOPC   C2B14428  19.029   2.703   6.659 -0.0613  0.1179  0.1070
  995YOPC   D3B14429  18.632   2.453   6.866  0.0047  0.1386 -0.4247
  995YOPC   C4B14430  18.143   2.435   6.844  0.1317 -0.0604 -0.1651
  996YOPC   NC314431  10.629  11.249   5.377 -0.2353  0.1666 -0.2466
  996YOPC   PO414432  10.376  11.094   5.672  0.1153 -0.0057 -0.4256
  996YOPC   GL114433  10.312  11.151   6.021 -0.0215 -0.0565 -0.2736
  996YOPC   GL214434  10.203  10.942   6.150  0.0858 -0.2755 -0.0565
  996YOPC   C1A14435  10.411  11.364   6.348  0.1703  0.1809  0.1438
  996YOPC   D2A14436  10.162  11.714   6.553 -0.1057 -0.2108  0.0227
  996YOPC   C3A14437  10.267  11.779   7.032  0.1705  0.0318 -0.0790
  996YOPC   C4A14438  10.311  12.154   7.332  0.0108 -0.0098  0.1852
  996YOPC   C1B14439  10.102  11.028   6.564 -0.0538 -0.1893 -0.0985
  996YOPC   C2B14440   9.809  10.932   6.927  0.1771  0.0820 -0.0195
  996YOPC   D3B14441   9.621  11.091   7.260 -0.0787 -0.0657 -0.1310
  996YOPC   C4B14442   9.469  11.256   7.639 -0.2199 -0.1728  0.1746
  997YOPC   NC314443  11.180   0.010   5.424 -0.2259 -0.1046  0.2236
  997YOPC   PO414444  11.519  -0.233   5.326  0.0835  0.0354  0.5390
  997YOPC   GL114445  11.825  -0.255   5.553 -0.1550 -0.3340 -0.0904
  997YOPC   GL214446  11.828   0.036   5.636 -0.0537  0.2172 -0.2875
  997YOPC   C1A14447  12.190  -0.296   5.578 -0.1282 -0.0827  0.0188
  997YOPC   D2A14448  12.464  -0.515   5.740 -0.1599  0.2352 -0.4361
  997YOPC   C3A14449  12.611  -0.547   6.134 -0.0802  0.0833 -0.1562
  997YOPC   C4A14450  12.909  -0.715   6.424  0.2675 -0.1254 -0.1661
  997YOPC   C1B14451  11.647  -0.225   5.978 -0.2391  0.1201  0.0072
  997YOPC   C2B14452  11.707  -0.409   6.371 -0.0037  0.1471 -0.0354
  997YOPC   D3B14453  11.525  -0.422   6.825  0.0557 -0.2072 -0.1275
  997YOPC   C4B14454  11.327  -0.441   7.303 -0.0185 -0.1378  0.2245
  998YOPC   NC314455  12.050   1.468   5.496 -0.0646  0.3559  0.3340
  998YOPC   PO414456  12.440   1.596   5.470  0.2845 -0.0046 -0.2182
  998YOPC   GL114457  12.621   1.397   5.844 -0.3569 -0.1096  0.2780
  998YOPC   GL214458  12.372   1.626   5.984 -0.1974 -0.0447  0.0361
  998YOPC   C1A14459  12.689   0.962   5.955 -0.0263  0.1727 -0.0065
  998YOPC   D2A14460  12.888   0.714   6.261  0.2009  0.0982 -0.0356
  998YOPC   C3A14461  12.741   0.284   6.570  0.2169  0.0119 -0.0433
  998YOPC   C4A14462  12.627   0.160   6.937 -0.1460 -0.0719 -0.2888
  998YOPC   C1B14463  12.371   1.625   6.462 -0.1427 -0.1432  0.2308
  998YOPC   C2B14464  12.578   1.733   6.788  0.2316 -0.1552  0.0745
  998YOPC   D3B14465  12.591   1.463   7.119 -0.0954 -0.1882 -0.2939
  998YOPC   C4B14466  12.480   1.213   7.440  0.2362 -0.0205 -0.1704
  999YOPC   NC314467   6.537  12.279   5.870  0.1076  0.1397 -0.0233
  999YOPC   PO414468   6.123  12.478   5.807 -0.0328  0.2204 -0.2029
  999YOPC   GL114469   5.981  12.524   6.251  0.0285 -0.2153 -0.3202
  999YOPC   GL214470   5.959  12.358   6.634 -0.0744 -0.3354  0.2316
  999YOPC   C1A14471   5.769  12.805   6.569 -0.1787 -0.0504  0.0492
  999YOPC   D2A14472   5.812  12.991   6.938  0.2802  0.3421 -0.0248
  999YOPC   C3A14473   5.690  12.751   7.287  0.2839  0.1704  0.1321
  999YOPC   C4A14474   5.841  12.703   7.660 -0.0145 -0.2590  0.1115
  999YOPC   C1B14475   5.747  12.334   6.982 -0.2207 -0.0116  0.1853
  999YOPC   C2B14476   5.623  12.125   7.348 -0.0007 -0.0699  0.0594
  999YOPC   D3B14477   5.870  11.729   7.360  0.1044 -0.0725 -0.1379
  999YOPC   C4B14478   6.106  11.387   7.312 -0.0869 -0.3926 -0.2108
 1000YOPC   NC314479  11.011   1.860   5.444 -0.1384  0.1756  0.0425
 1000YOPC   PO414480  10.569   1.985   5.280 -0.2413 -0.0792  0.1184
 1000YOPC   GL114481  10.399   1.859   5.748 -0.0639 -0.0966  0.0472
 1000YOPC   GL214482  10.177   1.683   5.885 -0.2324 -0.1892  0.1534
 1000YOPC   C1A14483  10.505   1.915   6.148 -0.0994 -0.0990  0.0385
 1000YOPC   D2A14484  10.628   1.749   6.471  0.1067  0.4028  0.1199
 1000YOPC   C3A14485  10.896   1.646   6.803 -0.0739  0.1495 -0.0436
 1000YOPC   C4A14486  11.002   1.562   7.127  0.0440 -0.1151  0.0356
 1000YOPC   C1B14487   9.983   1.760   6.308  0.3268  0.1115  0.3006
 1000YOPC   C2B14488   9.983   2.008   6.612  0.2838  0.1628  0.1312
 1000YOPC   D3B14489   9.874   1.707   6.934  0.1114 -0.3386 -0.1366
 1000YOPC   C4B14490   9.663   1.668   7.327 -0.1107 -0.4023  0.0850
 1001YOPC   NC314491   6.921   6.199   5.826  0.0913  0.3944 -0.0579
 1001YOPC   PO414492   6.631   5.994   5.689  0.0508  0.2014  0.0233
 1001YOPC   GL114493   6.476   6.120   6.126 -0.1378 -0.2052 -0.0107
 1001YOPC   GL214494   6.462   5.899   6.500  0.5123 -0.0336  0.1813
 1001YOPC   C1A14495   6.132   6.254   6.429  0.0453  0.3491  0.0275
 1001YOPC   D2A14496   5.751   6.209   6.561  0.0320 -0.3790 -0.2260
 1001YOPC   C3A14497   5.804   6.154   7.026 -0.0685 -0.3322 -0.2947
 1001YOPC   C4A14498   5.993   6.222   7.391 -0.0427  0.2304 -0.2934
 1001YOPC   C1B14499   6.407   6.246   6.881 -0.1246 -0.1353  0.1635
 1001YOPC   C2B14500   6.414   6.482   7.270  0.2928 -0.0365  0.1361
 1001YOPC   D3B14501   6.453   6.340   7.649 -0.1133 -0.1902  0.1078
 1001YOPC   C4B14502   6.091   6.277   7.948 -0.1291 -0.2043 -0.1844
 1002YOPC   NC314503  18.920   3.214   5.359  0.0137  0.0190 -0.0014
 1002YOPC   PO414504  18.622   2.896   5.343  0.0591  0.1567  0.1654
 1002YOPC   GL114505  18.594   2.948   5.837  0.4799  0.4726 -0.0256
 1002YOPC   GL214506  18.461   2.676   5.851 -0.0409 -0.1028 -0.1863
 1002YOPC   C1A14507  18.695   3.185   6.296  0.0536  0.0546 -0.1159
 1002YOPC   D2A14508  18.775   3.195   6.711  0.0555  0.1580  0.1777
 1002YOPC   C3A14509  18.943   3.450   6.989  0.0048 -0.7025 -0.2550
 1002YOPC   C4A14510  19.286   3.653   7.178 -0.0584 -0.1803 -0.1121
 1002YOPC   C1B14511  18.187   3.030   6.117  0.2420  0.2961 -0.1478
 1002YOPC   C2B14512  17.829   3.190   6.350 -0.0712 -0.1287  0.1642
 1002YOPC   D3B14513  17.797   3.540   6.561  0.1551 -0.0521  0.0402
 1002YOPC   C4B14514  17.618   4.011   6.402  0.1007  0.2275 -0.0377
 1003YOPC   NC314515  13.995  12.090   5.228  0.0660  0.0822 -0.1625
 1003YOPC   PO414516  13.680  12.510   5.450  0.0511  0.1073 -0.1409
 1003YOPC   GL114517  13.582  12.175   5.726  0.1127  0.3816  0.2573
 1003YOPC   GL214518  13.810  11.921   5.680  0.1464  0.2693  0.1388
 1003YOPC   C1A14519  13.490  12.175   6.151 -0.1907  0.1574 -0.3551
 1003YOPC   D2A14520  12.998  12.293   6.371 -0.2356 -0.0629 -0.1606
 1003YOPC   C3A14521  12.967  12.114   6.769  0.2308 -0.2900 -0.0412
 1003YOPC   C4A14522  13.343  12.252   7.086  0.2219  0.0158 -0.5047
 1003YOPC   C1B14523  13.481  11.698   5.833 -0.3610 -0.2341  0.3729
 1003YOPC   C2B14524  13.159  11.671   6.149 -0.0890 -0.1966 -0.0295
 1003YOPC   D3B14525  13.355  11.811   6.599  0.3323 -0.3203 -0.2404
 1003YOPC   C4B14526  13.254  11.748   7.018  0.0766 -0.0663  0.1206
 1004YOPC   NC314527   8.323   2.556   5.369  0.1058 -0.0438 -0.3232
 1004YOPC   PO414528   8.374   2.737   5.816 -0.1633 -0.0396  0.0536
 1004YOPC   GL114529   8.298   2.527   6.161 -0.2068  0.3945  0.0018
 1004YOPC   GL214530   8.495   2.848   6.389 -0.0636  0.0140 -0.1854
 1004YOPC   C1A14531   8.348   2.373   6.568  0.1612 -0.1586 -0.0393
 1004YOPC   D2A14532   8.475   2.251   6.945 -0.0442  0.2925  0.0091
 1004YOPC   C3A14533   8.435   2.514   7.287 -0.2926  0.1394 -0.1453
 1004YOPC   C4A14534   8.465   2.815   7.576 -0.3719  0.4371  0.2145
 1004YOPC   C1B14535   8.372   2.771   6.813  0.0780  0.6135 -0.0006
 1004YOPC   C2B14536   8.069   2.935   7.103  0.0027 -0.3066 -0.2873
 1004YOPC   D3B14537   7.869   2.897   7.491 -0.0063 -0.0121 -0.0358
 1004YOPC   C4B14538   7.567   3.171   7.745  0.0066  0.1061 -0.0137
 1005YOPC   NC314539   5.131  15.136   4.996  0.1626  0.1443 -0.0341
 1005YOPC   PO414540   4.742  14.901   5.024 -0.1052 -0.2957 -0.0340
 1005YOPC   GL114541   4.856  15.108   5.514 -0.1344  0.1178 -0.0926
 1005YOPC   GL214542   4.855  15.356   5.528 -0.0583  0.3328 -0.0861
 1005YOPC   C1A14543   4.750  14.852   5.883 -0.1511  0.0385  0.0061
 1005YOPC   D2A14544   4.592  14.866   6.273 -0.1826 -0.0177  0.4362
 1005YOPC   C3A14545   4.531  14.533   6.420 -0.1950 -0.0979  0.3454
 1005YOPC   C4A14546   4.322  14.317   6.664 -0.0584  0.2474  0.0042
 1005YOPC   C1B14547   5.033  15.442   5.912 -0.0294 -0.1507 -0.0306
 1005YOPC   C2B14548   5.069  15.219   6.154 -0.1717  0.1672  0.1165
 1005YOPC   D3B14549   4.983  15.215   6.529 -0.1762 -0.0800 -0.5390
 1005YOPC   C4B14550   4.815  15.246   6.997 -0.3083  0.0382  0.2065
 1006YOPC   NC314551  19.178   6.859   5.384  0.0378  0.0101 -0.1395
 1006YOPC   PO414552  18.653   6.847   5.309 -0.4286  0.2760 -0.0455
 1006YOPC   GL114553  18.752   6.700   5.760 -0.0689 -0.0486  0.2028
 1006YOPC   GL214554  18.586   6.812   6.003 -0.1476  0.2232  0.0047
 1006YOPC   C1A14555  18.965   6.641   6.257  0.2347  0.2973 -0.1873
 1006YOPC   D2A14556  19.119   6.574   6.618  0.0367 -0.0020 -0.0450
 1006YOPC   C3A14557  19.655   6.646   6.863  0.2063 -0.0019  0.1587
 1006YOPC   C4A14558  19.946   6.486   7.172 -0.0144 -0.1040 -0.0122
 1006YOPC   C1B14559  18.084   6.810   6.137  0.0571 -0.0656 -0.0419
 1006YOPC   C2B14560  17.987   6.763   6.592 -0.1679  0.2177 -0.0238
 1006YOPC   D3B14561  18.223   6.749   6.977  0.0161  0.0111 -0.4350
 1006YOPC   C4B14562  18.306   6.977   7.456  0.0486 -0.3802  0.2266
 1007YOPC   NC314563  12.302   2.745   5.016  0.0709  0.2047 -0.0395
 1007YOPC   PO414564  12.497   2.569   5.394  0.0025 -0.0221  0.0940
 1007YOPC   GL114565  12.409   2.659   5.763 -0.4383 -0.0241  0.0326
 1007YOPC   GL214566  12.660   2.400   5.833  0.0245  0.2332 -0.1349
 1007YOPC   C1A14567  12.342   2.584   6.222 -0.1813 -0.4291  0.1698
 1007YOPC   D2A14568  12.405   2.495   6.622 -0.3478  0.1036 -0.0160
 1007YOPC   C3A14569  12.022   2.519   6.999  0.2477 -0.1365  0.0618
 1007YOPC   C4A14570  11.548   2.425   7.143  0.0012 -0.2661 -0.0543
 1007YOPC   C1B14571  12.868   2.420   6.245 -0.3593  0.0997  0.1897
 1007YOPC   C2B14572  12.797   2.724   6.484 -0.0040 -0.0272 -0.2321
 1007YOPC   D3B14573  12.809   3.222   6.371  0.3034 -0.3167  0.1126
 1007YOPC   C4B14574  12.546   3.645   6.151  0.1241 -0.1511  0.2364
 1008YOPC   NC314575   4.279   6.207   5.471  0.1111  0.1301 -0.0817
 1008YOPC   PO414576   4.329   6.565   5.628 -0.2841 -0.2453 -0.1984
 1008YOPC   GL114577   4.084   6.833   5.906 -0.1060 -0.3039  0.1097
 1008YOPC   GL214578   4.271   7.106   6.034 -0.2521  0.0373  0.0050
 1008YOPC   C1A14579   4.190   6.768   6.334  0.1333 -0.0195 -0.1800
 1008YOPC   D2A14580   4.010   6.596   6.716 -0.0390  0.2535  0.2010
 1008YOPC   C3A14581   4.114   7.038   6.865 -0.1171  0.0599 -0.0960
 1008YOPC   C4A14582   4.151   7.439   7.025  0.0971 -0.2808 -0.1431
 1008YOPC   C1B14583   4.030   7.240   6.391  0.0307 -0.0981  0.0884
 1008YOPC   C2B14584   3.836   7.530   6.600 -0.0977 -0.0235 -0.2738
 1008YOPC   D3B14585   3.649   7.276   7.030  0.2695  0.1367 -0.1775
 1008YOPC   C4B14586   3.492   7.288   7.423  0.2007  0.0190  0.1466
 1009YOPC   NC314587  13.583  17.713   4.954 -0.2005  0.0130 -0.0621
 1009YOPC   PO414588  13.889  18.018   4.859 -0.0030 -0.0224 -0.0056
 1009YOPC   GL114589  14.067  17.955   5.261  0.2894  0.0626  0.1335
 1009YOPC   GL214590  13.994  17.729   5.463  0.1620 -0.1757 -0.0165
 1009YOPC   C1A14591  14.425  17.954   5.511  0.3078 -0.3383 -0.0482
 1009YOPC   D2A14592  14.856  17.879   5.418  0.1356  0.0063  0.1562
 1009YOPC   C3A14593  15.071  18.276   5.462 -0.0341 -0.1229 -0.1681
 1009YOPC   C4A14594  15.275  18.418   5.887  0.0545 -0.1698 -0.0765
 1009YOPC   C1B14595  13.762  17.696   5.616 -0.1380 -0.0931 -0.1689
 1009YOPC   C2B14596  13.526  17.760   5.951  0.1102  0.0868 -0.2925
 1009YOPC   D3B14597  13.254  18.080   6.140  0.0090  0.2455  0.1009
 1009YOPC   C4B14598  12.895  18.079   6.259 -0.0839  0.0196 -0.1626
 1010YOPC   NC314599  17.421   6.830   5.607  0.0526  0.0520  0.3376
 1010YOPC   PO414600  17.516   7.246   5.554 -0.0626 -0.2487  0.1802
 1010YOPC   GL114601  17.472   7.150   5.983 -0.0202 -0.1250 -0.0647
 1010YOPC   GL214602  17.606   6.812   6.114 -0.2416 -0.0683  0.0247
 1010YOPC   C1A14603  17.153   7.130   6.282 -0.3188  0.2115 -0.0869
 1010YOPC   D2A14604  16.938   7.094   6.663 -0.3589  0.2419  0.3750
 1010YOPC   C3A14605  17.121   7.025   7.162  0.1379 -0.2096  0.2056
 1010YOPC   C4A14606  17.395   7.089   7.467 -0.1298 -0.0118  0.2199
 1010YOPC   C1B14607  17.562   7.054   6.530 -0.0898  0.0809  0.0830
 1010YOPC   C2B14608  17.357   7.360   6.741  0.0343  0.2268  0.2824
 1010YOPC   D3B14609  17.238   7.634   6.968 -0.0996  0.1521  0.0300
 1010YOPC   C4B14610  17.042   7.945   7.075  0.2652  0.2566  0.3275
 1011YOPC   NC314611   6.017   2.630   5.683  0.2707  0.1179  0.1827
 1011YOPC   PO414612   6.217   3.056   5.968 -0.0588  0.3950 -0.2110
 1011YOPC   GL114613   6.325   3.186   6.320  0.0147 -0.0220 -0.1171
 1011YOPC   GL214614   6.629   3.186   6.460  0.3835  0.0873 -0.3101
 1011YOPC   C1A14615   6.206   3.212   6.776  0.0080 -0.0381  0.1221
 1011YOPC   D2A14616   6.228   3.363   7.262  0.1054  0.1512  0.3042
 1011YOPC   C3A14617   6.485   3.636   7.394  0.0746 -0.4470  0.2434
 1011YOPC   C4A14618   6.695   3.892   7.835 -0.0550  0.0650 -0.0005
 1011YOPC   C1B14619   6.722   3.177   6.976  0.0634  0.2145  0.1578
 1011YOPC   C2B14620   6.759   3.241   7.390  0.1761  0.1336 -0.1539
 1011YOPC   D3B14621   6.975   3.545   7.608  0.1511  0.2797 -0.0261
 1011YOPC   C4B14622   7.182   3.557   8.018  0.0506 -0.1239  0.0740
 1012YOPC   NC314623   2.506   1.018   5.453  0.0620  0.1776  0.2233
 1012YOPC   PO414624   2.628   0.500   5.563  0.0436 -0.1745  0.0481
 1012YOPC   GL114625   2.378   0.598   5.902 -0.0963  0.1814  0.0322
 1012YOPC   GL214626   2.158   0.358   6.049 -0.0365 -0.0030  0.0086
 1012YOPC   C1A14627   2.405   0.915   6.120 -0.2109  0.2258 -0.3237
 1012YOPC   D2A14628   2.417   1.328   6.326  0.1901  0.2256 -0.1358
 1012YOPC   C3A14629   2.705   1.425   6.636 -0.2213 -0.1799 -0.2742
 1012YOPC   C4A14630   2.856   1.750   6.976  0.0329  0.2763  0.0203
 1012YOPC   C1B14631   2.095   0.568   6.342  0.0907 -0.1918  0.3661
 1012YOPC   C2B14632   1.830   0.773   6.626 -0.2733 -0.1604  0.1305
 1012YOPC   D3B14633   1.849   0.906   7.052  0.0019 -0.0645  0.1149
 1012YOPC   C4B14634   2.091   1.292   7.213 -0.1700 -0.2913 -0.0210
 1013YOPC   NC314635   6.022  15.104   5.365  0.1394  0.2201 -0.1972
 1013YOPC   PO414636   5.592  15.074   5.374 -0.0302 -0.2470  0.1292
 1013YOPC   GL114637   5.456  14.863   5.674 -0.2034 -0.1189  0.0192
 1013YOPC   GL214638   5.130  14.639   5.728  0.0839 -0.1683  0.1178
 1013YOPC   C1A14639   5.516  14.778   6.105 -0.3454  0.0558  0.0467
 1013YOPC   D2A14640   5.420  14.933   6.484 -0.1393 -0.1551  0.2296
 1013YOPC   C3A14641   5.504  15.198   6.757  0.4278  0.1653 -0.1799
 1013YOPC   C4A14642   5.722  15.146   6.956 -0.1410  0.1952  0.3485
 1013YOPC   C1B14643   5.056  14.468   6.114  0.2842  0.2320 -0.2740
 1013YOPC   C2B14644   5.034  14.606   6.544 -0.0195  0.3876  0.1078
 1013YOPC   D3B14645   5.129  14.825   6.912  0.0802 -0.2120  0.2874
 1013YOPC   C4B14646   5.203  14.976   7.235 -0.0149 -0.1863  0.1200
 1014YOPC   NC314647   4.289  15.901   5.269  0.0996  0.1904  0.3121
 1014YOPC   PO414648   4.560  16.182   5.358  0.0329  0.2328 -0.0774
 1014YOPC   GL114649   4.306  16.172   5.732  0.3217  0.0071 -0.0291
 1014YOPC   GL214650   4.434  16.383   5.939 -0.1090 -0.0946  0.0093
 1014YOPC   C1A14651   3.933  15.988   5.942  0.2325  0.2390  0.0909
 1014YOPC   D2A14652   3.639  15.690   5.989 -0.1310  0.0600  0.2484
 1014YOPC   C3A14653   3.759  15.311   5.966  0.0192  0.0713  0.3517
 1014YOPC   C4A14654   4.023  15.089   5.741 -0.0248  0.0134 -0.2233
 1014YOPC   C1B14655   4.639  16.657   6.186 -0.1637  0.0336  0.1258
 1014YOPC   C2B14656   4.848  16.863   6.450 -0.1007 -0.2262 -0.0433
 1014YOPC   D3B14657   5.322  16.764   6.636  0.3165  0.1605 -0.0493
 1014YOPC   C4B14658   5.617  16.730   6.978  0.3248  0.0499 -0.1691
 1015YOPC   NC314659  15.802  18.768   4.435  0.2434  0.1552  0.0563
 1015YOPC   PO414660  16.007  18.470   4.741  0.0703  0.2363 -0.0243
 1015YOPC   GL114661  15.831  18.366   5.061 -0.0442 -0.0146  0.1303
 1015YOPC   GL214662  15.961  18.509   5.300  0.1395  0.0015 -0.1854
 1015YOPC   C1A14663  15.572  18.157   5.431 -0.3172 -0.0744  0.1521
 1015YOPC   D2A14664  15.637  18.029   5.986 -0.0387 -0.0166 -0.2467
 1015YOPC   C3A14665  15.379  17.912   6.313  0.1508  0.1840 -0.0521
 1015YOPC   C4A14666  15.034  17.734   6.436 -0.4743  0.1218 -0.2840
 1015YOPC   C1B14667  15.996  18.294   5.687 -0.1514 -0.1889  0.1093
 1015YOPC   C2B14668  15.879  18.420   6.097  0.3601  0.2315  0.0781
 1015YOPC   D3B14669  15.930  18.209   6.492  0.0025  0.2630  0.0299
 1015YOPC   C4B14670  16.333  18.158   6.706  0.4950  0.1798 -0.3266
 1016YOPC   NC314671  12.043  17.889   5.216 -0.1334 -0.0452  0.2439
 1016YOPC   PO414672  12.204  17.493   5.333 -0.0977  0.0474  0.0308
 1016YOPC   GL114673  12.302  17.506   5.735 -0.0958 -0.1064  0.0157
 1016YOPC   GL214674  12.031  17.266   5.819  0.1890 -0.1291  0.4307
 1016YOPC   C1A14675  12.467  17.789   6.030 -0.0537 -0.2648  0.0698
 1016YOPC   D2A14676  12.460  17.890   6.395  0.1256  0.0904 -0.2262
 1016YOPC   C3A14677  12.166  17.647   6.575 -0.1298  0.0017 -0.3048
 1016YOPC   C4A14678  12.026  17.580   7.018 -0.0375 -0.0050 -0.1095
 1016YOPC   C1B14679  12.312  17.303   6.220 -0.0060 -0.2316  0.0702
 1016YOPC   C2B14680  12.734  17.405   6.372 -0.2656 -0.0084  0.0485
 1016YOPC   D3B14681  12.895  17.152   6.790 -0.0732  0.0830 -0.2052
 1016YOPC   C4B14682  13.025  16.658   6.784 -0.1015 -0.1140  0.0391
 1017YOPC   NC314683  10.215  17.228   5.466 -0.0725 -0.1469 -0.1432
 1017YOPC   PO414684  10.407  16.769   5.602 -0.0141 -0.0092 -0.6061
 1017YOPC   GL114685  10.380  16.798   6.032 -0.1851  0.1233 -0.0912
 1017YOPC   GL214686  10.491  16.980   6.228  0.1886 -0.1865  0.0601
 1017YOPC   C1A14687  10.432  16.493   6.375  0.6134 -0.0378 -0.1290
 1017YOPC   D2A14688  10.541  16.117   6.337  0.2381  0.1001 -0.0047
 1017YOPC   C3A14689  10.223  15.886   6.113  0.1851 -0.3475 -0.4545
 1017YOPC   C4A14690  10.179  15.444   6.032  0.1739 -0.1686  0.2466
 1017YOPC   C1B14691  10.200  17.265   6.509  0.1127  0.2417 -0.2131
 1017YOPC   C2B14692  10.147  17.475   6.921  0.1143 -0.2651  0.0366
 1017YOPC   D3B14693  10.206  17.379   7.351 -0.1029 -0.0004 -0.1365
 1017YOPC   C4B14694  10.145  17.675   7.553 -0.1292  0.0675  0.2711
 1018YOPC   NC314695   5.052   4.236   5.836  0.2959 -0.1037 -0.2014
 1018YOPC   PO414696   5.192   3.816   5.666 -0.0527  0.1292 -0.0608
 1018YOPC   GL114697   5.238   3.645   6.106 -0.1411 -0.1122 -0.0767
 1018YOPC   GL214698   5.094   3.861   6.325  0.3630 -0.1763  0.0071
 1018YOPC   C1A14699   5.288   3.299   6.387  0.3273 -0.0668  0.1128
 1018YOPC   D2A14700   4.973   2.900   6.425  0.7309 -0.2630 -0.4415
 1018YOPC   C3A14701   4.933   2.512   6.548 -0.1294 -0.0649  0.0114
 1018YOPC   C4A14702   4.760   2.266   6.299 -0.1257  0.1410  0.0887
 1018YOPC   C1B14703   5.402   4.195   6.596 -0.3244 -0.1776  0.2837
 1018YOPC   C2B14704   5.616   4.141   6.939  0.3776 -0.2673 -0.0075
 1018YOPC   D3B14705   5.482   3.963   7.240  0.3409  0.0756  0.2296
 1018YOPC   C4B14706   5.463   3.576   7.300  0.1327 -0.1472 -0.1882
 1019YOPC   NC314707   7.534  17.167   5.121 -0.0603 -0.1370 -0.1293
 1019YOPC   PO414708   7.945  16.932   5.190 -0.2207  0.2213 -0.1257
 1019YOPC   GL114709   7.766  17.204   5.524 -0.0015  0.0171 -0.3059
 1019YOPC   GL214710   7.921  17.427   5.490 -0.1860 -0.0394 -0.2455
 1019YOPC   C1A14711   7.790  17.084   5.960 -0.0285 -0.4103  0.0130
 1019YOPC   D2A14712   7.657  17.253   6.320 -0.0255 -0.1595 -0.3288
 1019YOPC   C3A14713   7.914  17.186   6.593  0.2180  0.0635  0.1218
 1019YOPC   C4A14714   8.142  17.104   6.931  0.0311  0.1351  0.2357
 1019YOPC   C1B14715   7.877  17.602   5.890  0.0845 -0.3032 -0.0261
 1019YOPC   C2B14716   7.959  17.685   6.346 -0.0074 -0.2743  0.1525
 1019YOPC   D3B14717   7.772  17.745   6.679  0.1614 -0.0589 -0.0712
 1019YOPC   C4B14718   7.625  17.718   7.064 -0.2783  0.0539  0.1449
 1020YOPC   NC314719  16.056   7.471   5.246 -0.1336 -0.0814  0.1753
 1020YOPC   PO414720  16.507   7.357   5.340  0.0105 -0.1498 -0.1389
 1020YOPC   GL114721  16.556   7.433   5.772  0.2229 -0.3242  0.3044
 1020YOPC   GL214722  16.753   7.639   5.696  0.1196 -0.3216 -0.3138
 1020YOPC   C1A14723  16.454   7.301   6.272  0.0921 -0.3975  0.2821
 1020YOPC   D2A14724  16.359   7.265   6.658  0.4436 -0.1172  0.1646
 1020YOPC   C3A14725  16.029   6.982   6.705  0.1449  0.0874  0.2821
 1020YOPC   C4A14726  15.897   6.854   7.132 -0.3019  0.0232  0.2810
 1020YOPC   C1B14727  16.687   7.979   6.049  0.2970  0.0347 -0.4642
 1020YOPC   C2B14728  16.494   8.045   6.466 -0.2529  0.1516 -0.2217
 1020YOPC   D3B14729  16.633   8.119   6.901 -0.0562  0.0954 -0.0353
 1020YOPC   C4B14730  16.818   8.405   7.172  0.0195  0.3462  0.0481
 1021YOPC   NC314731   5.004   3.388   5.718 -0.1914 -0.0695  0.0579
 1021YOPC   PO414732   5.306   2.943   5.802  0.2464  0.1445  0.0567
 1021YOPC   GL114733   5.563   2.779   6.164 -0.1758 -0.0253  0.0819
 1021YOPC   GL214734   5.942   2.718   6.209  0.1156 -0.2468  0.1750
 1021YOPC   C1A14735   5.593   2.655   6.558 -0.1249  0.0911 -0.1368
 1021YOPC   D2A14736   5.428   2.588   6.978  0.2273  0.0812  0.2493
 1021YOPC   C3A14737   5.064   2.827   7.019  0.1464 -0.1643  0.4365
 1021YOPC   C4A14738   4.721   2.618   7.005  0.1675  0.1589  0.2065
 1021YOPC   C1B14739   6.179   2.773   6.587  0.1322 -0.0632  0.0366
 1021YOPC   C2B14740   6.526   2.741   6.776  0.3996 -0.2939  0.1299
 1021YOPC   D3B14741   6.503   2.773   7.256  0.2866  0.1465  0.0450
 1021YOPC   C4B14742   6.172   2.468   7.556  0.0689 -0.3445  0.2177
 1022YOPC   NC314743   5.038   5.627   5.731  0.1137  0.3016  0.1617
 1022YOPC   PO414744   4.722   5.402   5.710  0.2820  0.0997 -0.3990
 1022YOPC   GL114745   4.554   5.483   6.101 -0.1944  0.3770  0.1594
 1022YOPC   GL214746   4.397   5.672   6.278  0.0337 -0.3031 -0.0378
 1022YOPC   C1A14747   4.685   5.397   6.512  0.1151  0.0886  0.1060
 1022YOPC   D2A14748   4.539   5.326   6.927 -0.0532 -0.1824 -0.0494
 1022YOPC   C3A14749   4.354   5.616   7.159 -0.0517  0.0893  0.1169
 1022YOPC   C4A14750   4.248   5.415   7.452 -0.0390  0.3305  0.0650
 1022YOPC   C1B14751   4.150   5.562   6.702 -0.1474 -0.1027 -0.1962
 1022YOPC   C2B14752   3.775   5.691   6.929 -0.3899  0.3365  0.1325
 1022YOPC   D3B14753   3.469   5.606   7.272 -0.3862 -0.0922  0.0613
 1022YOPC   C4B14754   3.359   5.243   7.399  0.1467  0.0607 -0.2234
 1023YOPC   NC314755   6.629   4.984   5.762  0.1756 -0.1892  0.0258
 1023YOPC   PO414756   6.805   5.278   6.076  0.0369  0.1175  0.0183
 1023YOPC   GL114757   6.645   5.274   6.458  0.1358 -0.0787 -0.2560
 1023YOPC   GL214758   6.389   5.285   6.502  0.0482  0.0559 -0.2557
 1023YOPC   C1A14759   6.690   5.609   6.860 -0.4286 -0.1921  0.1010
 1023YOPC   D2A14760   6.666   5.843   7.149 -0.2830  0.0820  0.0791
 1023YOPC   C3A14761   6.829   5.738   7.412  0.0063 -0.2998 -0.0664
 1023YOPC   C4A14762   6.823   5.931   7.806  0.1410  0.2812  0.2927
 1023YOPC   C1B14763   6.151   5.007   6.808  0.3105  0.0273 -0.1148
 1023YOPC   C2B14764   6.002   5.032   7.237 -0.1328 -0.4669  0.0746
 1023YOPC   D3B14765   5.771   4.951   7.533  0.1429 -0.1812  0.0691
 1023YOPC   C4B14766   5.598   4.737   7.934 -0.2581 -0.2067  0.0491
 1024YOPC   NC314767   0.182  10.013   4.688  0.2391 -0.0483 -0.0880
 1024YOPC   PO414768   0.542  10.160   4.976 -0.1063  0.1340  0.0509
 1024YOPC   GL114769   0.540  10.323   5.440 -0.1336  0.2775 -0.1041
 1024YOPC   GL214770   0.748  10.581   5.448 -0.0262 -0.0460  0.1083
 1024YOPC   C1A14771   0.462  10.548   5.871 -0.3645  0.1139  0.2727
 1024YOPC   D2A14772   0.323  10.897   6.022 -0.0931 -0.0770  0.1707
 1024YOPC   C3A14773   0.355  11.170   6.286 -0.0804  0.0683 -0.0697
 1024YOPC   C4A14774   0.396  11.143   6.686  0.0873  0.2035 -0.0160
 1024YOPC   C1B14775   0.509  10.958   5.579  0.2325 -0.1309 -0.2092
 1024YOPC   C2B14776   0.412  11.363   5.782  0.2234  0.0930 -0.0479
 1024YOPC   D3B14777   0.579  11.723   5.491 -0.3140  0.1149  0.0463
 1024YOPC   C4B14778   0.766  11.788   5.035 -0.1578 -0.2094 -0.0811
 1025YOPC   NC314779   9.064  12.869   5.796 -0.0914 -0.3101 -0.2789
 1025YOPC   PO414780   9.096  12.429   5.729  0.0934  0.2283  0.1939
 1025YOPC   GL114781   9.262  12.363   6.016  0.1613  0.0425  0.3420
 1025YOPC   GL214782   9.604  12.230   6.061 -0.1376 -0.1035 -0.0569
 1025YOPC   C1A14783   9.365  12.607   6.478  0.2035  0.1978  0.0492
 1025YOPC   D2A14784   9.790  12.670   6.729  0.0115 -0.2446 -0.2299
 1025YOPC   C3A14785  10.075  13.113   6.630  0.2737  0.0508  0.0963
 1025YOPC   C4A14786   9.863  13.454   6.588 -0.0194  0.1394  0.3679
 1025YOPC   C1B14787   9.888  12.240   6.386 -0.1849  0.0312  0.1748
 1025YOPC   C2B14788  10.319  12.168   6.474  0.0117  0.1579  0.4755
 1025YOPC   D3B14789  10.494  12.249   6.856  0.2119  0.1944  0.2068
 1025YOPC   C4B14790  10.847  12.179   6.881 -0.0781  0.0958  0.2324
 1026YOPC   NC314791   3.173   8.243   5.233  0.0555  0.0775  0.1352
 1026YOPC   PO414792   3.472   8.447   5.566  0.0214 -0.2254 -0.0271
 1026YOPC   GL114793   3.619   8.846   5.659 -0.0497  0.1908 -0.0014
 1026YOPC   GL214794   3.338   9.158   5.566 -0.2603  0.1769  0.0499
 1026YOPC   C1A14795   3.981   8.992   5.935  0.0798  0.4991 -0.2077
 1026YOPC   D2A14796   3.891   9.092   6.354 -0.2142  0.2218  0.1219
 1026YOPC   C3A14797   3.509   9.432   6.365  0.0693 -0.0615  0.0691
 1026YOPC   C4A14798   3.203   9.486   6.646 -0.1046  0.0777 -0.2083
 1026YOPC   C1B14799   3.035   9.024   5.817  0.3617 -0.0561 -0.1023
 1026YOPC   C2B14800   2.894   9.027   6.190  0.2012 -0.0658  0.0708
 1026YOPC   D3B14801   2.788   9.140   6.632 -0.1773  0.3985 -0.3474
 1026YOPC   C4B14802   2.492   9.429   6.939  0.1466 -0.0674 -0.0026
 1027YOPC   NC314803  12.159   5.162   5.743  0.0743 -0.1398  0.2886
 1027YOPC   PO414804  12.433   4.934   5.492  0.5451  0.2351  0.0095
 1027YOPC   GL114805  12.321   4.793   5.996 -0.2252  0.1580 -0.0147
 1027YOPC   GL214806  12.005   4.838   6.105  0.4640  0.2168 -0.1359
 1027YOPC   C1A14807  12.311   4.642   6.405 -0.1368 -0.0653 -0.1498
 1027YOPC   D2A14808  12.400   4.729   6.801  0.3561 -0.2532 -0.0414
 1027YOPC   C3A14809  12.233   4.540   7.215 -0.2464  0.0911 -0.1323
 1027YOPC   C4A14810  12.061   4.399   7.662  0.0746 -0.1752  0.2442
 1027YOPC   C1B14811  11.954   4.987   6.551 -0.1239  0.0005  0.1360
 1027YOPC   C2B14812  12.265   5.190   6.713  0.0812  0.0004  0.4275
 1027YOPC   D3B14813  12.657   5.205   6.705 -0.3316 -0.2324  0.2620
 1027YOPC   C4B14814  12.947   5.587   6.739  0.0270  0.0203 -0.1697
 1028YOPC   NC314815  13.521   8.811   5.049  0.0215 -0.0341 -0.3835
 1028YOPC   PO414816  13.867   9.008   5.237  0.2077  0.1297  0.0313
 1028YOPC   GL114817  14.106   9.261   5.567  0.0621  0.2469  0.0446
 1028YOPC   GL214818  14.339   9.109   5.677 -0.0840 -0.2072  0.1214
 1028YOPC   C1A14819  14.181   9.501   5.977  0.1017 -0.1049 -0.1509
 1028YOPC   D2A14820  14.465   9.626   6.404 -0.1847 -0.0318  0.1851
 1028YOPC   C3A14821  14.595   9.533   6.798  0.0315 -0.1612  0.0030
 1028YOPC   C4A14822  14.924   9.485   6.807 -0.2384  0.1908 -0.3818
 1028YOPC   C1B14823  14.672   9.358   5.938 -0.0966  0.1709 -0.2177
 1028YOPC   C2B14824  14.940   9.247   6.291 -0.1602 -0.0137  0.0197
 1028YOPC   D3B14825  15.384   9.012   6.231  0.0625  0.1395 -0.0280
 1028YOPC   C4B14826  15.703   9.342   6.084 -0.1801  0.3386  0.2560
 1029YOPC   NC314827  10.508  18.866   4.999  0.0725  0.0386  0.0824
 1029YOPC   PO414828  10.788  18.454   5.131 -0.1686 -0.0067  0.2812
 1029YOPC   GL114829  10.695  18.533   5.605 -0.1043 -0.1062 -0.1712
 1029YOPC   GL214830  10.462  18.232   5.706  0.2966  0.0733 -0.0975
 1029YOPC   C1A14831  10.762  18.664   6.007 -0.2059  0.0147  0.0869
 1029YOPC   D2A14832  10.713  18.788   6.436  0.0241  0.1259 -0.1767
 1029YOPC   C3A14833  10.316  18.872   6.634  0.2639  0.1687  0.2106
 1029YOPC   C4A14834  10.135  18.858   7.186 -0.5593 -0.1044  0.0042
 1029YOPC   C1B14835  10.128  18.032   5.834 -0.1591 -0.2688  0.2831
 1029YOPC   C2B14836  10.047  17.681   6.203 -0.0726 -0.1963 -0.0065
 1029YOPC   D3B14837   9.984  17.828   6.601 -0.3630  0.3672 -0.1683
 1029YOPC   C4B14838   9.896  17.917   7.068 -0.1173  0.0399  0.0122
 1030YOPC   NC314839   7.421  15.124   5.421 -0.0635 -0.0947 -0.0894
 1030YOPC   PO414840   7.154  14.774   5.396  0.0357 -0.4050 -0.1946
 1030YOPC   GL114841   7.338  14.845   5.817 -0.2665  0.0450 -0.2513
 1030YOPC   GL214842   7.228  14.742   6.012 -0.1365 -0.0777  0.2553
 1030YOPC   C1A14843   7.388  15.200   6.273  0.0436  0.7211  0.0771
 1030YOPC   D2A14844   7.433  15.163   6.817  0.0946  0.2903 -0.2426
 1030YOPC   C3A14845   7.241  15.131   7.303  0.0809 -0.0501  0.1061
 1030YOPC   C4A14846   7.310  15.233   7.700  0.2861 -0.4376  0.1473
 1030YOPC   C1B14847   7.328  14.394   6.188  0.3162  0.0762  0.0236
 1030YOPC   C2B14848   7.038  14.266   6.469 -0.1535  0.4777  0.1436
 1030YOPC   D3B14849   6.974  14.179   6.950 -0.2371 -0.2616 -0.0752
 1030YOPC   C4B14850   7.126  13.959   7.297 -0.0594 -0.3499  0.0865
 1031YOPC   NC314851  16.445  10.060   5.062  0.0375 -0.0366 -0.0106
 1031YOPC   PO414852  16.557  10.481   4.916 -0.3195  0.0830  0.2383
 1031YOPC   GL114853  16.399  10.595   5.300  0.0857  0.0289  0.0395
 1031YOPC   GL214854  16.658  10.769   5.632  0.4232  0.0091  0.0465
 1031YOPC   C1A14855  16.148  10.639   5.713 -0.0559 -0.2028  0.2120
 1031YOPC   D2A14856  16.079  10.310   6.051  0.1226 -0.0765  0.0917
 1031YOPC   C3A14857  15.933  10.262   6.347 -0.1097  0.1467  0.0383
 1031YOPC   C4A14858  15.825  10.115   6.740  0.1117  0.3091  0.1065
 1031YOPC   C1B14859  17.043  10.453   5.685  0.1807  0.0113  0.2889
 1031YOPC   C2B14860  17.107   9.962   5.780 -0.2210  0.2746  0.0323
 1031YOPC   D3B14861  17.117   9.904   6.187  0.2518  0.0580 -0.0660
 1031YOPC   C4B14862  17.175   9.609   6.529  0.2433 -0.1163  0.2366
 1032YOPC   NC314863  18.602  15.597   4.634  0.2192  0.1619  0.1684
 1032YOPC   PO414864  18.413  16.010   4.882 -0.3409 -0.2447 -0.0777
 1032YOPC   GL114865  18.631  16.265   5.298  0.1255  0.2820 -0.0329
 1032YOPC   GL214866  18.986  16.297   5.348  0.0979 -0.1557 -0.0254
 1032YOPC   C1A14867  18.745  16.632   5.582  0.0362 -0.1448 -0.0149
 1032YOPC   D2A14868  18.711  16.741   5.995 -0.1907 -0.0284  0.0780
 1032YOPC   C3A14869  18.832  16.460   6.298 -0.0984  0.0893  0.0208
 1032YOPC   C4A14870  18.869  16.388   6.740  0.3421 -0.1732 -0.0589
 1032YOPC   C1B14871  19.080  16.335   5.843 -0.0079  0.0807  0.3548
 1032YOPC   C2B14872  19.037  15.998   6.178  0.1725  0.1948 -0.1240
 1032YOPC   D3B14873  19.127  15.989   6.658  0.1610  0.1433 -0.0613
 1032YOPC   C4B14874  19.401  16.178   6.990 -0.2464 -0.2317 -0.0798
 1033YOPC   NC314875   3.691  12.295   4.895 -0.0558 -0.2601 -0.2919
 1033YOPC   PO414876   3.679  12.014   5.103  0.3669  0.1837 -0.1133
 1033YOPC   GL114877   3.523  11.988   5.528 -0.1278 -0.2910  0.1008
 1033YOPC   GL214878   3.322  12.280   5.412 -0.3542 -0.0464 -0.2164
 1033YOPC   C1A14879   3.537  12.028   5.999 -0.0620  0.3100  0.1596
 1033YOPC   D2A14880   3.512  12.034   6.362  0.0703  0.3782  0.0343
 1033YOPC   C3A14881   3.788  12.332   6.501  0.1395 -0.1802  0.3589
 1033YOPC   C4A14882   3.903  12.325   6.902 -0.3415 -0.0402 -0.1371
 1033YOPC   C1B14883   3.038  12.017   5.592  0.1712  0.0535  0.1575
 1033YOPC   C2B14884   2.873  11.816   5.966  0.0435  0.1347 -0.0925
 1033YOPC   D3B14885   2.398  11.899   6.007 -0.0777  0.0693  0.1024
 1033YOPC   C4B14886   1.905  11.923   5.822  0.0861  0.0419  0.0182
 1034YOPC   NC314887   7.375   5.352   5.914 -0.0728  0.2725 -0.1731
 1034YOPC   PO414888   7.225   4.969   6.073  0.4441 -0.2848 -0.2414
 1034YOPC   GL114889   6.820   4.825   6.224 -0.0677 -0.1033  0.3873
 1034YOPC   GL214890   6.857   4.780   6.571  0.0485 -0.4236 -0.1344
 1034YOPC   C1A14891   6.740   4.290   6.351 -0.0852  0.3886 -0.0188
 1034YOPC   D2A14892   6.833   4.252   6.755  0.1034 -0.0897  0.2697
 1034YOPC   C3A14893   6.767   4.530   7.109 -0.1443  0.2619 -0.0772
 1034YOPC   C4A14894   6.494   4.763   7.382 -0.0807 -0.0752 -0.2228
 1034YOPC   C1B14895   6.666   4.985   6.908  0.0610  0.1754 -0.1672
 1034YOPC   C2B14896   6.593   5.306   7.267  0.0733 -0.0337 -0.1959
 1034YOPC   D3B14897   6.331   5.222   7.609  0.0581  0.0130  0.3519
 1034YOPC   C4B14898   5.946   5.349   7.801 -0.3170 -0.0581  0.0743
 1035YOPC   NC314899  19.270  18.437   4.687 -0.1259  0.0964  0.0418
 1035YOPC   PO414900  18.940  18.197   4.814 -0.0790 -0.1750  0.2353
 1035YOPC   GL114901  18.685  18.360   5.188 -0.3194 -0.0242  0.0114
 1035YOPC   GL214902  18.890  18.582   5.318 -0.1662  0.0192  0.0740
 1035YOPC   C1A14903  18.540  18.404   5.696  0.2069  0.1168  0.0193
 1035YOPC   D2A14904  18.304  18.101   5.911  0.1814  0.2483  0.1640
 1035YOPC   C3A14905  18.324  17.909   6.277  0.0246 -0.2731 -0.0807
 1035YOPC   C4A14906  18.063  18.143   6.469  0.1603  0.3580 -0.2191
 1035YOPC   C1B14907  19.051  18.286   5.687  0.0399  0.0699  0.1403
 1035YOPC   C2B14908  19.370  18.031   5.937 -0.2418 -0.2364 -0.0142
 1035YOPC   D3B14909  19.351  17.850   6.350  0.2145 -0.0055 -0.0527
 1035YOPC   C4B14910  19.143  17.507   6.693 -0.0918 -0.1302 -0.0519
 1036YOPC   NC314911  16.592  11.013   4.790  0.1308  0.0365 -0.2217
 1036YOPC   PO414912  16.240  11.284   4.886 -0.0384 -0.2289 -0.0415
 1036YOPC   GL114913  16.007  11.357   5.299  0.1534  0.1209  0.0361
 1036YOPC   GL214914  16.020  10.921   5.275  0.2587  0.0520 -0.1522
 1036YOPC   C1A14915  15.737  11.173   5.666  0.0202  0.0096 -0.2505
 1036YOPC   D2A14916  15.765  11.013   6.053 -0.3406 -0.5975  0.0765
 1036YOPC   C3A14917  15.825  10.702   6.101 -0.0709 -0.1353  0.1275
 1036YOPC   C4A14918  16.240  10.718   6.294 -0.0319 -0.0275  0.2065
 1036YOPC   C1B14919  16.287  11.080   5.585  0.1469 -0.0519 -0.0169
 1036YOPC   C2B14920  16.657  11.157   6.021  0.1636 -0.3312  0.1754
 1036YOPC   D3B14921  16.831  10.807   6.117 -0.3321 -0.0419  0.1746
 1036YOPC   C4B14922  16.921  10.400   6.329 -0.0290  0.1246  0.1064
 1037YOPC   NC314923  15.879  14.436   4.726  0.0085 -0.2728  0.0076
 1037YOPC   PO414924  15.969  14.611   5.103  0.1717  0.1230 -0.1210
 1037YOPC   GL114925  16.072  14.655   5.450  0.0927 -0.0045  0.1391
 1037YOPC   GL214926  15.907  14.897   5.643 -0.2112 -0.2535 -0.5578
 1037YOPC   C1A14927  16.251  14.711   5.946 -0.1092 -0.1222  0.0535
 1037YOPC   D2A14928  16.006  14.787   6.410  0.0712 -0.1639  0.0192
 1037YOPC   C3A14929  16.170  15.034   6.689 -0.3168  0.0283 -0.2448
 1037YOPC   C4A14930  16.431  15.324   6.845 -0.1607 -0.0561  0.0079
 1037YOPC   C1B14931  15.731  14.778   5.892  0.0235 -0.2011 -0.2571
 1037YOPC   C2B14932  15.430  14.614   5.976  0.1175  0.1420  0.3910
 1037YOPC   D3B14933  15.109  14.590   5.615 -0.0667 -0.0500 -0.0015
 1037YOPC   C4B14934  14.919  14.884   5.421 -0.2398  0.0546 -0.0033
 1038YOPC   NC314935   0.920  16.095   4.859  0.0196 -0.0358  0.0253
 1038YOPC   PO414936   1.112  16.487   5.154  0.3494  0.3620  0.0686
 1038YOPC   GL114937   1.252  16.330   5.628  0.2253 -0.0073  0.1161
 1038YOPC   GL214938   1.201  16.596   5.785  0.1191  0.0382  0.1578
 1038YOPC   C1A14939   1.190  16.122   5.936  0.3605 -0.0187 -0.1466
 1038YOPC   D2A14940   1.242  15.934   6.381 -0.1681 -0.0955  0.1076
 1038YOPC   C3A14941   1.558  16.035   6.570  0.1982 -0.1203  0.2672
 1038YOPC   C4A14942   1.518  16.191   6.956  0.1738  0.1166  0.0681
 1038YOPC   C1B14943   0.929  16.761   5.801  0.1192  0.2465 -0.0150
 1038YOPC   C2B14944   0.868  17.134   5.786 -0.0356  0.3740  0.0654
 1038YOPC   D3B14945   0.808  17.342   6.187  0.3368  0.0149  0.1255
 1038YOPC   C4B14946   0.913  17.569   6.584  0.2498 -0.1044  0.0797
 1039YOPC   NC314947  18.171  12.339   5.229  0.2614 -0.1706  0.1544
 1039YOPC   PO414948  17.960  12.663   5.326  0.1462 -0.0887 -0.2784
 1039YOPC   GL114949  17.776  12.664   5.662 -0.0233 -0.0662  0.1322
 1039YOPC   GL214950  17.908  12.865   5.833 -0.0253  0.2799 -0.1408
 1039YOPC   C1A14951  17.616  12.268   5.879 -0.4568 -0.0292  0.0431
 1039YOPC   D2A14952  17.659  11.754   5.891  0.1922 -0.0650  0.1019
 1039YOPC   C3A14953  17.430  11.551   6.243 -0.1601 -0.1531  0.0350
 1039YOPC   C4A14954  17.209  11.794   6.642  0.0587  0.2400  0.0189
 1039YOPC   C1B14955  17.867  12.586   6.254  0.2641 -0.4170  0.1330
 1039YOPC   C2B14956  17.535  12.174   6.403 -0.3164  0.1972  0.2373
 1039YOPC   D3B14957  17.182  11.974   6.087  0.1232  0.1004  0.1201
 1039YOPC   C4B14958  16.928  12.337   5.893 -0.0748 -0.1390  0.2092
 1040YOPC   NC314959   3.622  16.860   5.070 -0.1146  0.2532  0.4619
 1040YOPC   PO414960   3.555  16.361   4.981  0.0115 -0.1004 -0.1618
 1040YOPC   GL114961   3.605  16.520   5.463 -0.0523 -0.1610 -0.2338
 1040YOPC   GL214962   3.522  16.823   5.554 -0.3800  0.1276  0.0676
 1040YOPC   C1A14963   3.511  16.271   5.798 -0.1325  0.2576  0.1258
 1040YOPC   D2A14964   3.254  15.872   5.677 -0.1988  0.0528 -0.2855
 1040YOPC   C3A14965   3.167  15.542   5.923  0.0813  0.1934  0.4302
 1040YOPC   C4A14966   3.292  15.109   6.027 -0.1640 -0.4575 -0.1558
 1040YOPC   C1B14967   3.344  16.695   6.007 -0.0449  0.0729 -0.1762
 1040YOPC   C2B14968   3.041  16.518   6.417  0.2886 -0.0221  0.2075
 1040YOPC   D3B14969   2.867  16.765   6.760  0.1923  0.2131 -0.0184
 1040YOPC   C4B14970   3.079  16.957   7.129  0.2004  0.1754  0.2111
 1041YOPC   NC314971  15.862   9.202   5.142 -0.1020  0.3422 -0.1204
 1041YOPC   PO414972  15.599   9.532   5.371  0.2673  0.2582 -0.0749
 1041YOPC   GL114973  15.909   9.599   5.634  0.0070 -0.0732  0.1257
 1041YOPC   GL214974  15.811   9.942   5.794 -0.0317  0.0562 -0.2671
 1041YOPC   C1A14975  16.222   9.810   5.969 -0.2840 -0.2087 -0.0299
 1041YOPC   D2A14976  16.614  10.135   5.967 -0.0441  0.1052 -0.1198
 1041YOPC   C3A14977  16.476  10.212   6.386  0.1601  0.2052  0.0510
 1041YOPC   C4A14978  16.206   9.883   6.525 -0.1347 -0.2126 -0.0764
 1041YOPC   C1B14979  15.667   9.863   6.273  0.0308  0.0104  0.3421
 1041YOPC   C2B14980  15.319  10.077   6.538 -0.1036  0.4129  0.3172
 1041YOPC   D3B14981  15.529  10.513   6.559 -0.1352 -0.1730  0.1662
 1041YOPC   C4B14982  15.804  10.796   6.581 -0.0292 -0.1327 -0.2471
 1042YOPC   NC314983   6.698   1.278   5.794 -0.3061 -0.0178 -0.2755
 1042YOPC   PO414984   6.883   0.993   5.587 -0.0399  0.1439  0.1129
 1042YOPC   GL114985   6.917   0.844   6.002 -0.0685 -0.0057 -0.0645
 1042YOPC   GL214986   7.153   0.659   6.078  0.2501 -0.3035  0.1424
 1042YOPC   C1A14987   6.721   0.686   6.384  0.0003  0.1853 -0.0940
 1042YOPC   D2A14988   6.751   0.706   6.760  0.0741 -0.1156 -0.2060
 1042YOPC   C3A14989   6.952   1.031   6.900 -0.0412  0.1295 -0.0072
 1042YOPC   C4A14990   7.112   1.266   7.326 -0.0509  0.2018  0.1368
 1042YOPC   C1B14991   7.214   0.600   6.552  0.2428 -0.3573 -0.1240
 1042YOPC   C2B14992   7.231   0.506   6.957  0.2493  0.1152  0.2066
 1042YOPC   D3B14993   7.204   0.713   7.312  0.0703 -0.2130 -0.1940
 1042YOPC   C4B14994   7.304   0.993   7.724  0.1489  0.1286 -0.4070
 1043YOPC   NC314995  15.500   0.808   4.550 -0.2196 -0.4169  0.0959
 1043YOPC   PO414996  15.733   1.103   4.861  0.1600 -0.1482 -0.1502
 1043YOPC   GL114997  15.809   1.099   5.297  0.2177 -0.3982  0.1679
 1043YOPC   GL214998  15.820   0.676   5.304 -0.2275  0.0810 -0.0150
 1043YOPC   C1A14999  16.025   1.269   5.671  0.1231 -0.2443  0.1088
 1043YOPC   D2A15000  16.010   1.413   6.087  0.0614 -0.1188  0.1999
 1043YOPC   C3A15001  16.183   1.282   6.469 -0.1180  0.3695 -0.4028
 1043YOPC   C4A15002  16.322   1.045   6.831  0.1289  0.0938 -0.1437
 1043YOPC   C1B15003  15.593   0.325   5.573  0.0165 -0.0186 -0.0412
 1043YOPC   C2B15004  15.869   0.007   5.723  0.1520  0.1784 -0.2016
 1043YOPC   D3B15005  16.164  -0.325   5.455 -0.0292  0.2929 -0.1248
 1043YOPC   C4B15006  16.583  -0.387   5.413  0.0024  0.3327  0.0583
 1044YOPC   NC315007  14.976   5.928   5.873 -0.1144 -0.0915  0.1088
 1044YOPC   PO415008  14.742   5.549   5.780  0.0599 -0.1683 -0.3777
 1044YOPC   GL115009  14.948   5.500   6.128  0.2388  0.3106  0.0356
 1044YOPC   GL215010  14.859   5.802   6.385  0.3342  0.3506  0.0753
 1044YOPC   C1A15011  14.985   5.285   6.487  0.2269 -0.0741  0.0913
 1044YOPC   D2A15012  15.099   4.964   6.905 -0.3498 -0.0138  0.2433
 1044YOPC   C3A15013  14.824   5.042   7.320 -0.2002 -0.2704  0.1101
 1044YOPC   C4A15014  14.514   4.935   7.607  0.0126  0.0298 -0.4125
 1044YOPC   C1B15015  14.490   5.933   6.591 -0.0990 -0.0993  0.2401
 1044YOPC   C2B15016  14.466   6.175   6.958  0.2162 -0.0496 -0.1182
 1044YOPC   D3B15017  14.847   6.161   7.145  0.1067  0.1834  0.0528
 1044YOPC   C4B15018  15.052   5.950   7.475 -0.1750 -0.3190 -0.2000
 1045YOPC   NC315019  11.122  17.321   5.111 -0.0224  0.4595 -0.1867
 1045YOPC   PO415020  10.808  17.504   5.282  0.0731 -0.0582  0.0384
 1045YOPC   GL115021  11.088  17.380   5.707 -0.0419 -0.1898  0.0392
 1045YOPC   GL215022  11.307  17.598   5.617  0.2482 -0.0915 -0.0068
 1045YOPC   C1A15023  11.096  17.163   6.109 -0.3141  0.1698  0.0484
 1045YOPC   D2A15024  10.877  17.162   6.517 -0.0851  0.1165  0.1403
 1045YOPC   C3A15025  11.112  17.422   6.697  0.3356 -0.1559 -0.0294
 1045YOPC   C4A15026  11.070  17.892   6.700  0.0281  0.0617  0.1295
 1045YOPC   C1B15027  11.501  17.456   5.952 -0.1305 -0.1669  0.1447
 1045YOPC   C2B15028  11.778  17.387   6.262  0.2425  0.0808 -0.1263
 1045YOPC   D3B15029  11.621  17.439   6.799  0.0763  0.0989 -0.1331
 1045YOPC   C4B15030  11.567  17.543   7.247  0.0815  0.2489 -0.1080
 1046YOPC   NC315031  10.849  16.467   5.455  0.2983  0.2135 -0.0881
 1046YOPC   PO415032  11.291  16.468   5.298 -0.0686  0.1982 -0.1771
 1046YOPC   GL115033  11.331  16.355   5.756  0.1683  0.2019 -0.1753
 1046YOPC   GL215034  11.081  16.040   5.813  0.1473 -0.0213 -0.1202
 1046YOPC   C1A15035  11.383  16.351   6.143  0.1623  0.4415 -0.0776
 1046YOPC   D2A15036  11.669  16.387   6.450 -0.0495  0.0075 -0.1338
 1046YOPC   C3A15037  11.597  16.367   6.893  0.2460  0.2658 -0.1376
 1046YOPC   C4A15038  11.644  16.475   7.277  0.1925  0.0290  0.0692
 1046YOPC   C1B15039  11.021  16.007   6.312 -0.0730 -0.0894 -0.1514
 1046YOPC   C2B15040  11.369  15.960   6.553 -0.0055 -0.1439  0.0054
 1046YOPC   D3B15041  11.286  15.993   6.999  0.0910 -0.0965  0.1887
 1046YOPC   C4B15042  10.913  16.094   7.265 -0.3555  0.2825 -0.1208
 1047YOPC   NC315043  12.003  14.923   5.215  0.0375  0.0317 -0.0276
 1047YOPC   PO415044  12.153  15.316   5.404  0.1232 -0.2897  0.0219
 1047YOPC   GL115045  12.541  15.442   5.713  0.2036 -0.1447 -0.1762
 1047YOPC   GL215046  12.587  15.806   5.597  0.0323 -0.1469  0.0176
 1047YOPC   C1A15047  12.638  15.624   6.122  0.0843 -0.0947 -0.0984
 1047YOPC   D2A15048  12.785  15.551   6.498 -0.0644  0.1792  0.1131
 1047YOPC   C3A15049  12.743  15.171   6.711  0.3204  0.2238  0.2093
 1047YOPC   C4A15050  12.886  14.813   6.892  0.2385  0.1082 -0.2854
 1047YOPC   C1B15051  12.270  16.030   5.977 -0.1074  0.1117  0.0125
 1047YOPC   C2B15052  11.992  16.402   6.021  0.0007  0.0045 -0.0155
 1047YOPC   D3B15053  12.194  16.773   6.159 -0.2572  0.3145  0.0938
 1047YOPC   C4B15054  12.013  17.005   6.474 -0.3939 -0.2613  0.0618
 1048YOPC   NC315055  17.705  12.986   5.019 -0.4599  0.0066  0.2461
 1048YOPC   PO415056  17.635  13.407   5.140 -0.0421  0.0455 -0.2342
 1048YOPC   GL115057  17.505  13.148   5.518  0.1744  0.1001  0.3067
 1048YOPC   GL215058  17.608  13.323   5.815 -0.0906  0.0641 -0.4690
 1048YOPC   C1A15059  17.349  12.798   5.804 -0.1971  0.3100  0.2723
 1048YOPC   D2A15060  17.371  12.615   6.184 -0.2059  0.2716  0.3744
 1048YOPC   C3A15061  17.082  12.779   6.474  0.0885 -0.0516  0.3358
 1048YOPC   C4A15062  16.851  13.098   6.586  0.4490  0.0042 -0.0718
 1048YOPC   C1B15063  17.884  13.111   6.234  0.1538 -0.1068 -0.2095
 1048YOPC   C2B15064  18.142  12.981   6.665  0.0724  0.0109  0.2711
 1048YOPC   D3B15065  18.196  13.257   6.982  0.0438  0.1644 -0.2855
 1048YOPC   C4B15066  18.182  13.431   7.308 -0.1603  0.0804  0.0140
 1049YOPC   NC315067  16.534  17.385   4.248  0.0016  0.2222  0.0081
 1049YOPC   PO415068  16.623  17.651   4.647  0.1519  0.0448  0.1722
 1049YOPC   GL115069  16.754  17.645   5.111 -0.0806 -0.3785  0.0550
 1049YOPC   GL215070  16.685  17.924   5.132  0.0122 -0.2017 -0.0431
 1049YOPC   C1A15071  16.807  17.598   5.465  0.0988 -0.2686  0.2923
 1049YOPC   D2A15072  16.675  17.423   5.877  0.0425  0.2282 -0.0802
 1049YOPC   C3A15073  16.630  17.722   6.145  0.0145  0.0001 -0.1297
 1049YOPC   C4A15074  16.802  18.090   6.372  0.1352 -0.0505 -0.0397
 1049YOPC   C1B15075  16.261  17.969   5.318  0.0617 -0.0259  0.1945
 1049YOPC   C2B15076  15.897  17.726   5.337 -0.2510 -0.1078 -0.2626
 1049YOPC   D3B15077  15.755  17.606   5.709  0.1465 -0.1594 -0.0625
 1049YOPC   C4B15078  15.700  17.587   6.107  0.0351 -0.0350  0.1987
 1050YOPC   NC315079  16.061  16.158   4.889  0.0235  0.0459 -0.3478
 1050YOPC   PO415080  15.946  15.864   5.197  0.1230 -0.0063 -0.0656
 1050YOPC   GL115081  15.663  15.831   5.587  0.0763  0.1891 -0.0854
 1050YOPC   GL215082  15.389  16.103   5.612 -0.0942  0.0745  0.2056
 1050YOPC   C1A15083  15.625  15.710   5.976  0.1119 -0.1237 -0.0808
 1050YOPC   D2A15084  15.754  15.710   6.340  0.0507 -0.1465  0.2632
 1050YOPC   C3A15085  15.945  15.548   6.745 -0.0275 -0.3362  0.2053
 1050YOPC   C4A15086  16.000  15.770   7.200  0.1550 -0.3614  0.5141
 1050YOPC   C1B15087  15.414  16.120   6.063 -0.1676 -0.5207  0.0033
 1050YOPC   C2B15088  15.500  16.122   6.483  0.1921  0.0091 -0.5298
 1050YOPC   D3B15089  15.563  15.843   6.904 -0.0028 -0.1704 -0.1232
 1050YOPC   C4B15090  15.540  15.447   7.136  0.0839 -0.0761 -0.0329
 1051YOPC   NC315091  15.099   9.463   5.355  0.0518  0.2526  0.1874
 1051YOPC   PO415092  14.905   9.059   5.278  0.1160 -0.2743 -0.0122
 1051YOPC   GL115093  14.954   9.093   5.688  0.0121 -0.2028 -0.3517
 1051YOPC   GL215094  15.283   9.262   5.800 -0.2497 -0.0951  0.0354
 1051YOPC   C1A15095  14.783   8.827   6.082  0.3383  0.2045  0.0574
 1051YOPC   D2A15096  14.920   8.678   6.393  0.3344 -0.2645 -0.2295
 1051YOPC   C3A15097  15.178   8.800   6.649 -0.1043  0.2934 -0.3049
 1051YOPC   C4A15098  15.454   8.794   7.059  0.3268 -0.1281  0.0410
 1051YOPC   C1B15099  15.303   9.639   6.016  0.3262 -0.0816  0.0250
 1051YOPC   C2B15100  15.259   9.588   6.449 -0.1135 -0.2991 -0.1511
 1051YOPC   D3B15101  15.346   9.222   6.662 -0.0333  0.1162 -0.1572
 1051YOPC   C4B15102  15.722   8.875   6.638  0.0816  0.1119  0.2015
 1052YOPC   NC315103  10.593   0.941   5.305  0.0273  0.3832 -0.1589
 1052YOPC   PO415104  10.248   0.550   5.145  0.0655 -0.0395 -0.1783
 1052YOPC   GL115105  10.248   0.562   5.643 -0.0769 -0.0037  0.2846
 1052YOPC   GL215106  10.089   0.747   5.806  0.1489  0.1424 -0.2502
 1052YOPC   C1A15107  10.377   0.352   6.056 -0.1967  0.4118 -0.0365
 1052YOPC   D2A15108  10.440   0.033   6.496  0.1494  0.0647  0.2736
 1052YOPC   C3A15109  10.803  -0.160   6.797  0.0971  0.0642 -0.0395
 1052YOPC   C4A15110  11.201   0.084   6.958 -0.0721  0.1692 -0.0274
 1052YOPC   C1B15111   9.923   0.585   6.162 -0.0496 -0.3411  0.2453
 1052YOPC   C2B15112  10.021   0.504   6.548 -0.0173 -0.2163 -0.0805
 1052YOPC   D3B15113  10.168   0.673   6.989  0.0305 -0.2104 -0.1894
 1052YOPC   C4B15114  10.412   0.905   7.298 -0.0808  0.0376 -0.1599
 1053YOPC   NC315115  16.598  13.711   4.475 -0.2036 -0.3102  0.1050
 1053YOPC   PO415116  16.620  13.923   4.884  0.0448 -0.0212  0.1088
 1053YOPC   GL115117  16.489  13.988   5.306 -0.0582 -0.1250 -0.2162
 1053YOPC   GL215118  16.158  14.121   5.383  0.4181  0.3170  0.0496
 1053YOPC   C1A15119  16.488  13.875   5.733  0.1409 -0.1177  0.1928
 1053YOPC   D2A15120  16.126  13.709   5.850  0.1228  0.2940 -0.2314
 1053YOPC   C3A15121  16.000  13.436   6.204  0.3536  0.1107  0.1241
 1053YOPC   C4A15122  15.786  13.359   6.679  0.0642 -0.0203  0.1569
 1053YOPC   C1B15123  16.491  14.388   5.648 -0.0772  0.1203 -0.0165
 1053YOPC   C2B15124  16.734  14.673   5.743  0.1210  0.0628  0.0590
 1053YOPC   D3B15125  16.606  14.990   6.046 -0.5928  0.1231  0.0914
 1053YOPC   C4B15126  16.706  15.065   6.385  0.0867  0.5103  0.0576
 1054YOPC   NC315127  15.583  11.882   4.753 -0.1609 -0.1775 -0.0420
 1054YOPC   PO415128  15.670  11.664   5.124 -0.0515 -0.2091  0.1935
 1054YOPC   GL115129  15.483  11.570   5.477  0.3161 -0.2909 -0.2596
 1054YOPC   GL215130  15.209  11.341   5.456 -0.3715  0.0507  0.1422
 1054YOPC   C1A15131  15.526  11.751   5.829 -0.1403 -0.0446 -0.0600
 1054YOPC   D2A15132  15.758  11.961   6.156  0.2045  0.0778  0.3358
 1054YOPC   C3A15133  15.677  11.857   6.633  0.3117 -0.1368 -0.0235
 1054YOPC   C4A15134  15.830  12.013   7.066 -0.2175 -0.1382 -0.0366
 1054YOPC   C1B15135  15.288  11.372   5.935 -0.4778  0.1544 -0.3971
 1054YOPC   C2B15136  15.516  11.508   6.297 -0.3527  0.3968  0.2820
 1054YOPC   D3B15137  15.575  11.301   6.630 -0.0224 -0.1711  0.0148
 1054YOPC   C4B15138  15.349  10.958   6.801  0.2913 -0.0141  0.0738
 1055YOPC   NC315139   2.625   1.868   5.474 -0.0094  0.1439 -0.0048
 1055YOPC   PO415140   2.859   2.246   5.749 -0.1237  0.0459 -0.2902
 1055YOPC   GL115141   2.807   2.157   6.070  0.0188  0.1414 -0.0935
 1055YOPC   GL215142   2.650   2.305   6.306  0.0147  0.0705  0.0445
 1055YOPC   C1A15143   2.942   1.821   6.396 -0.0952  0.0428 -0.1977
 1055YOPC   D2A15144   3.182   1.485   6.608  0.2738  0.0781 -0.1358
 1055YOPC   C3A15145   3.110   1.333   7.026 -0.0640 -0.2104  0.1343
 1055YOPC   C4A15146   3.022   1.020   7.386 -0.0720  0.0734  0.3385
 1055YOPC   C1B15147   2.623   2.053   6.666 -0.0198 -0.1994 -0.0115
 1055YOPC   C2B15148   2.464   2.023   7.125  0.4402  0.0257 -0.0117
 1055YOPC   D3B15149   2.517   1.617   7.387  0.1294 -0.0821 -0.3091
 1055YOPC   C4B15150   2.863   1.535   7.522  0.0154 -0.1308  0.4737
 1056YOPC   NC315151   3.717   1.790   5.237  0.0807 -0.0089 -0.0592
 1056YOPC   PO415152   3.629   1.839   5.677 -0.0944 -0.0413  0.0836
 1056YOPC   GL115153   3.679   1.590   6.044 -0.0132 -0.2239 -0.0086
 1056YOPC   GL215154   3.917   1.217   6.047  0.5798 -0.2762 -0.0305
 1056YOPC   C1A15155   3.663   1.603   6.552 -0.2524 -0.2784  0.1374
 1056YOPC   D2A15156   3.473   1.769   7.018  0.4349  0.0665  0.1112
 1056YOPC   C3A15157   3.345   1.698   7.361  0.1586 -0.0246  0.0884
 1056YOPC   C4A15158   3.361   1.880   7.745  0.0569  0.0096  0.1578
 1056YOPC   C1B15159   4.073   1.447   6.328  0.1304 -0.0891 -0.0913
 1056YOPC   C2B15160   4.095   1.326   6.744  0.2610 -0.0771 -0.0617
 1056YOPC   D3B15161   4.108   0.971   6.981 -0.2919 -0.1112  0.1289
 1056YOPC   C4B15162   4.234   0.460   6.942 -0.0146 -0.2273 -0.1783
 1057YOPC   NC315163   5.492   5.728   6.037 -0.1844  0.2391  0.2122
 1057YOPC   PO415164   5.854   5.533   5.880  0.0852 -0.1784  0.1527
 1057YOPC   GL115165   5.700   5.362   6.337 -0.1933 -0.3171  0.2746
 1057YOPC   GL215166   5.402   4.969   6.253  0.0417 -0.2280 -0.1496
 1057YOPC   C1A15167   5.649   5.083   6.659  0.0382 -0.4277  0.1716
 1057YOPC   D2A15168   5.240   4.721   6.712  0.0327 -0.1832  0.2659
 1057YOPC   C3A15169   5.185   4.360   7.112 -0.5325  0.0912  0.1687
 1057YOPC   C4A15170   4.886   4.299   7.341  0.2025  0.1412  0.1010
 1057YOPC   C1B15171   5.255   5.275   6.402 -0.1267 -0.0840  0.0785
 1057YOPC   C2B15172   5.084   5.277   6.779 -0.0049  0.0209 -0.2940
 1057YOPC   D3B15173   5.436   5.061   7.104  0.1399 -0.3714 -0.1030
 1057YOPC   C4B15174   5.642   4.601   7.101  0.0641  0.1832  0.2555
 1058YOPC   NC315175  16.789   8.831   5.135  0.0765 -0.3913 -0.0298
 1058YOPC   PO415176  16.511   8.427   5.028  0.3268 -0.2966 -0.1842
 1058YOPC   GL115177  16.506   8.332   5.485 -0.0537 -0.3366 -0.0667
 1058YOPC   GL215178  16.652   8.220   5.575  0.0349 -0.1059 -0.2300
 1058YOPC   C1A15179  16.376   8.542   5.873 -0.1626 -0.1838 -0.1129
 1058YOPC   D2A15180  16.517   8.504   6.356  0.3197  0.0067 -0.0227
 1058YOPC   C3A15181  16.933   8.174   6.477 -0.1617 -0.0243 -0.2457
 1058YOPC   C4A15182  17.372   7.946   6.536 -0.2707 -0.0237 -0.0992
 1058YOPC   C1B15183  16.903   8.444   5.966 -0.1305  0.1993  0.0840
 1058YOPC   C2B15184  17.143   8.648   6.198  0.0166  0.1559  0.0724
 1058YOPC   D3B15185  17.542   8.447   6.350 -0.0296  0.3277  0.3068
 1058YOPC   C4B15186  17.809   8.329   6.776  0.1940 -0.2572 -0.0570
 1059YOPC   NC315187  10.425  11.976   4.835  0.1570  0.3233 -0.3305
 1059YOPC   PO415188  10.704  11.777   5.280 -0.0800  0.2150 -0.0483
 1059YOPC   GL115189  10.835  11.840   5.719  0.0564 -0.1915  0.0021
 1059YOPC   GL215190  10.986  12.088   5.905 -0.4202  0.1864 -0.1242
 1059YOPC   C1A15191  10.649  11.790   6.179 -0.0518  0.1845 -0.0782
 1059YOPC   D2A15192  10.688  11.751   6.571  0.3429  0.1472 -0.0712
 1059YOPC   C3A15193  11.111  11.761   6.717 -0.0188  0.1076 -0.2581
 1059YOPC   C4A15194  11.400  11.668   7.129  0.3754 -0.0490 -0.0297
 1059YOPC   C1B15195  11.057  12.144   6.279 -0.1234  0.4371  0.1316
 1059YOPC   C2B15196  11.275  12.265   6.596 -0.1898 -0.0343 -0.5240
 1059YOPC   D3B15197  11.686  12.205   6.885  0.1270 -0.2403  0.1977
 1059YOPC   C4B15198  11.684  12.173   7.307  0.0979  0.0723  0.0447
 1060YOPC   NC315199  10.470  10.120   5.735  0.2406  0.2430 -0.1158
 1060YOPC   PO415200  10.302   9.843   6.111  0.1819  0.3282 -0.0338
 1060YOPC   GL115201  10.348  10.187   6.283  0.4343 -0.0765  0.1955
 1060YOPC   GL215202  10.088  10.332   6.148  0.1376 -0.2824 -0.0479
 1060YOPC   C1A15203  10.638  10.255   6.621  0.5188 -0.1473  0.0441
 1060YOPC   D2A15204  10.816  10.385   7.023 -0.0743 -0.0917  0.0524
 1060YOPC   C3A15205  10.617  10.352   7.381  0.0810  0.1671 -0.1388
 1060YOPC   C4A15206  10.259  10.239   7.600 -0.0400 -0.1261 -0.0934
 1060YOPC   C1B15207   9.945  10.550   6.490 -0.0850  0.3342  0.1706
 1060YOPC   C2B15208  10.183  10.576   6.844 -0.0879  0.0098  0.1194
 1060YOPC   D3B15209  10.306  10.165   6.957  0.2674 -0.3933  0.0135
 1060YOPC   C4B15210  10.511   9.883   7.183 -0.1837  0.2623 -0.2409
 1061YOPC   NC315211  15.309  12.497   4.985 -0.0222 -0.2785  0.0732
 1061YOPC   PO415212  15.643  12.786   5.049  0.0749  0.0706  0.0092
 1061YOPC   GL115213  15.647  12.631   5.345  0.0172  0.1066 -0.2860
 1061YOPC   GL215214  15.331  12.521   5.574 -0.1624  0.0461  0.4174
 1061YOPC   C1A15215  15.740  12.665   5.798 -0.0347 -0.0738 -0.1311
 1061YOPC   D2A15216  15.736  12.524   6.178  0.2151  0.1140 -0.3679
 1061YOPC   C3A15217  15.790  12.474   6.595  0.0960  0.3064 -0.0763
 1061YOPC   C4A15218  16.006  12.526   6.969  0.0727  0.0712 -0.0813
 1061YOPC   C1B15219  15.391  12.293   5.974  0.3424 -0.1857  0.1868
 1061YOPC   C2B15220  15.366  12.224   6.416 -0.1927 -0.1054 -0.1924
 1061YOPC   D3B15221  15.284  12.384   6.818 -0.2161 -0.0556  0.2815
 1061YOPC   C4B15222  15.503  12.404   7.228  0.3752  0.1987 -0.1924
 1062YOPC   NC315223   0.567  17.078   4.571 -0.0881  0.2697  0.2658
 1062YOPC   PO415224   0.599  17.343   5.001  0.1801 -0.2701 -0.0081
 1062YOPC   GL115225   0.195  17.224   5.218  0.1501 -0.0622  0.2202
 1062YOPC   GL215226   0.215  17.049   5.443 -0.1010  0.1940  0.0420
 1062YOPC   C1A15227  -0.094  17.502   5.505  0.0303  0.0070 -0.0203
 1062YOPC   D2A15228  -0.343  17.748   5.780 -0.1057  0.0762  0.2091
 1062YOPC   C3A15229  -0.749  17.843   5.541  0.1981 -0.0654  0.1002
 1062YOPC   C4A15230  -1.027  18.003   5.429 -0.0732 -0.1608  0.0781
 1062YOPC   C1B15231  -0.144  16.843   5.684  0.0082 -0.2406  0.1234
 1062YOPC   C2B15232  -0.038  16.771   6.148  0.1040 -0.4099 -0.0108
 1062YOPC   D3B15233   0.062  16.394   6.281  0.1095  0.1980 -0.0449
 1062YOPC   C4B15234   0.238  16.153   5.950  0.1765 -0.0656 -0.0658
 1063YOPC   NC315235   1.776  19.196   4.990 -0.3870 -0.1652 -0.0053
 1063YOPC   PO415236   1.331  19.339   5.053 -0.0246  0.2284  0.0102
 1063YOPC   GL115237   1.372  19.112   5.486 -0.1035  0.0500 -0.1829
 1063YOPC   GL215238   1.746  19.055   5.638  0.1450 -0.0389  0.4366
 1063YOPC   C1A15239   1.256  18.902   5.849  0.2403  0.0697  0.7046
 1063YOPC   D2A15240   1.389  19.068   6.207 -0.2943 -0.1540 -0.4435
 1063YOPC   C3A15241   1.155  19.420   6.413 -0.1542 -0.1394  0.1533
 1063YOPC   C4A15242   0.814  19.167   6.642  0.1259 -0.2818 -0.0581
 1063YOPC   C1B15243   1.776  18.734   5.867  0.2665  0.0426  0.0526
 1063YOPC   C2B15244   1.740  18.210   5.844  0.0885 -0.2605 -0.0592
 1063YOPC   D3B15245   1.531  18.029   6.220 -0.1468  0.2200  0.1551
 1063YOPC   C4B15246   1.358  17.605   6.269 -0.0634 -0.0934 -0.2228
 1064YOPC   NC315247   0.464   7.170   5.497 -0.1127 -0.0763  0.0240
 1064YOPC   PO415248   0.032   7.228   5.596 -0.0076 -0.2607 -0.1766
 1064YOPC   GL115249   0.023   7.504   6.090  0.0037 -0.1855  0.1023
 1064YOPC   GL215250   0.138   7.471   6.329  0.0452  0.2733 -0.0944
 1064YOPC   C1A15251  -0.287   7.725   6.262  0.0639  0.0037 -0.1240
 1064YOPC   D2A15252  -0.738   7.735   6.342 -0.1850 -0.0861  0.0435
 1064YOPC   C3A15253  -1.157   7.958   6.499  0.4410  0.0837  0.1636
 1064YOPC   C4A15254  -1.370   7.827   6.892  0.1704 -0.0691 -0.3190
 1064YOPC   C1B15255   0.549   7.358   6.612  0.1452  0.0139  0.0963
 1064YOPC   C2B15256   0.760   7.186   6.929 -0.0427  0.1394 -0.1329
 1064YOPC   D3B15257   0.817   6.839   6.871 -0.3484  0.0620  0.2676
 1064YOPC   C4B15258   1.127   6.590   6.845  0.2502 -0.3433 -0.0289
 1065YOPC   NC315259   4.115  15.058   4.942 -0.0148  0.0791  0.1467
 1065YOPC   PO415260   4.082  15.519   5.036  0.2253 -0.1447  0.3699
 1065YOPC   GL115261   4.281  15.479   5.504  0.0101  0.0761  0.3286
 1065YOPC   GL215262   4.134  15.638   5.729 -0.1243 -0.1910  0.1840
 1065YOPC   C1A15263   4.492  15.267   5.888  0.0210 -0.3105 -0.1870
 1065YOPC   D2A15264   4.576  15.389   6.272  0.2147  0.2129 -0.0103
 1065YOPC   C3A15265   4.397  15.384   6.593 -0.0720  0.1344  0.2148
 1065YOPC   C4A15266   4.329  15.466   6.983 -0.0972 -0.1356 -0.1247
 1065YOPC   C1B15267   4.136  15.554   6.197  0.1970 -0.1085  0.0377
 1065YOPC   C2B15268   3.832  15.353   6.472 -0.0188  0.1256  0.0051
 1065YOPC   D3B15269   3.521  15.571   6.747  0.0516 -0.0168 -0.0240
 1065YOPC   C4B15270   3.468  15.622   7.094  0.2941 -0.1251 -0.0191
 1066YOPC   NC315271  18.399  16.634   4.874  0.3516 -0.0043  0.4500
 1066YOPC   PO415272  18.652  16.934   4.866 -0.0667  0.1642  0.1349
 1066YOPC   GL115273  18.556  16.948   5.271 -0.2329  0.1793 -0.0589
 1066YOPC   GL215274  18.345  16.747   5.329  0.3966  0.1625 -0.0336
 1066YOPC   C1A15275  18.599  17.223   5.650  0.2903 -0.4099  0.0032
 1066YOPC   D2A15276  18.934  17.240   5.928  0.2737  0.0115  0.1815
 1066YOPC   C3A15277  18.928  17.530   6.222  0.0584  0.1506 -0.0651
 1066YOPC   C4A15278  18.597  17.637   6.592  0.0611 -0.0616 -0.1151
 1066YOPC   C1B15279  18.254  16.686   5.738  0.3787  0.0938 -0.2202
 1066YOPC   C2B15280  18.058  16.836   6.089 -0.3173 -0.4132  0.1117
 1066YOPC   D3B15281  17.901  17.288   6.242 -0.2232 -0.1714 -0.2484
 1066YOPC   C4B15282  17.913  17.699   6.186  0.0020  0.3650  0.0022
 1067YOPC   NC315283   0.243   8.874   5.273  0.2511  0.0663 -0.3296
 1067YOPC   PO415284  -0.015   8.542   5.473 -0.1623 -0.1470 -0.3054
 1067YOPC   GL115285  -0.288   8.580   5.722  0.1031 -0.3286  0.0549
 1067YOPC   GL215286  -0.118   8.744   5.998  0.0237 -0.2610 -0.3094
 1067YOPC   C1A15287  -0.239   8.311   6.153 -0.3752 -0.3641  0.2555
 1067YOPC   D2A15288  -0.082   8.149   6.430 -0.3655 -0.0035 -0.4313
 1067YOPC   C3A15289   0.043   8.087   6.815 -0.0445  0.0184 -0.0639
 1067YOPC   C4A15290   0.244   8.428   7.178  0.0370  0.0080 -0.0446
 1067YOPC   C1B15291   0.032   8.982   6.354 -0.2052 -0.4190  0.0535
 1067YOPC   C2B15292   0.465   8.957   6.393 -0.0005  0.1222 -0.2309
 1067YOPC   D3B15293   0.700   9.236   6.642  0.1786  0.3672  0.0922
 1067YOPC   C4B15294   0.736   9.615   6.693 -0.0891  0.0263 -0.2157
 1068YOPC   NC315295   8.485  13.745   5.410  0.0008 -0.1194 -0.2758
 1068YOPC   PO415296   8.078  14.060   5.493 -0.0099 -0.4841  0.2814
 1068YOPC   GL115297   7.795  14.202   5.894 -0.1345 -0.0299 -0.2295
 1068YOPC   GL215298   7.874  13.951   6.130 -0.0579  0.2310 -0.0525
 1068YOPC   C1A15299   7.851  14.338   6.416  0.0202 -0.0170  0.0310
 1068YOPC   D2A15300   7.814  14.482   6.834  0.4425  0.0333  0.2027
 1068YOPC   C3A15301   7.600  14.740   7.163  0.1473 -0.0236  0.1766
 1068YOPC   C4A15302   7.314  14.541   7.531 -0.0948  0.0470  0.0939
 1068YOPC   C1B15303   7.557  13.935   6.376  0.2522 -0.1229 -0.0201
 1068YOPC   C2B15304   7.414  14.205   6.697  0.1366  0.1631  0.0675
 1068YOPC   D3B15305   7.502  14.210   7.112  0.1525 -0.1009  0.2525
 1068YOPC   C4B15306   7.721  14.289   7.405 -0.1522  0.1546  0.1455
 1069YOPC   NC315307  17.961   3.618   5.018  0.0643  0.3837 -0.0423
 1069YOPC   PO415308  18.061   4.027   5.020 -0.1386  0.0249 -0.2401
 1069YOPC   GL115309  17.947   3.836   5.534  0.0936 -0.0014  0.2830
 1069YOPC   GL215310  17.728   4.020   5.629  0.1925  0.0376 -0.2546
 1069YOPC   C1A15311  18.007   3.572   5.966 -0.1816  0.3052 -0.2597
 1069YOPC   D2A15312  18.269   3.525   6.190  0.5489 -0.2115  0.2581
 1069YOPC   C3A15313  18.303   3.415   6.652 -0.0809 -0.1762  0.3192
 1069YOPC   C4A15314  18.381   3.236   7.041 -0.3108  0.2342  0.3321
 1069YOPC   C1B15315  17.937   4.062   6.067 -0.1269 -0.4335 -0.0862
 1069YOPC   C2B15316  18.158   3.981   6.548 -0.0149 -0.1364  0.0836
 1069YOPC   D3B15317  17.812   4.016   6.840  0.0491 -0.3466 -0.0531
 1069YOPC   C4B15318  17.550   4.113   7.254 -0.1366 -0.3410 -0.2909
 1070YOPC   NC315319   0.172   5.521   5.615 -0.2915  0.0978  0.0693
 1070YOPC   PO415320   0.593   5.814   5.654 -0.0289 -0.1346 -0.0771
 1070YOPC   GL115321   0.897   5.977   5.989 -0.6030  0.1337  0.3168
 1070YOPC   GL215322   0.683   6.012   6.190 -0.0505  0.0451 -0.0642
 1070YOPC   C1A15323   1.283   5.861   6.271 -0.1762  0.0101 -0.0747
 1070YOPC   D2A15324   1.700   5.685   6.306 -0.0288  0.2161 -0.1143
 1070YOPC   C3A15325   1.943   5.631   6.687  0.1023  0.0773  0.1766
 1070YOPC   C4A15326   1.943   5.501   7.024 -0.0072  0.1589 -0.2730
 1070YOPC   C1B15327   0.535   5.819   6.475 -0.3062 -0.2943 -0.0665
 1070YOPC   C2B15328   0.502   5.788   6.903 -0.4303  0.0159 -0.0715
 1070YOPC   D3B15329   0.132   5.778   7.197 -0.0146  0.1310 -0.4649
 1070YOPC   C4B15330  -0.201   5.638   7.500 -0.2872  0.3902  0.2586
 1071YOPC   NC315331   4.068   4.365   5.695 -0.0523  0.1950  0.0002
 1071YOPC   PO415332   4.397   4.419   5.875  0.0432  0.2084 -0.4395
 1071YOPC   GL115333   4.622   4.699   6.186  0.0836 -0.1395  0.0294
 1071YOPC   GL215334   4.999   4.589   6.284 -0.0361 -0.0099  0.2962
 1071YOPC   C1A15335   4.624   4.809   6.569 -0.1023 -0.1685  0.0919
 1071YOPC   D2A15336   4.691   4.623   6.920  0.0481 -0.2521  0.1327
 1071YOPC   C3A15337   4.886   4.896   7.135  0.1834  0.3595 -0.1208
 1071YOPC   C4A15338   4.812   5.206   7.349  0.1058  0.2360 -0.3351
 1071YOPC   C1B15339   4.881   4.246   6.615 -0.0251  0.0726  0.3342
 1071YOPC   C2B15340   5.079   3.893   6.850  0.1672 -0.0591 -0.2900
 1071YOPC   D3B15341   5.466   3.668   6.718  0.1647  0.2003 -0.0326
 1071YOPC   C4B15342   5.581   3.683   6.401 -0.1835 -0.1813 -0.2200
 1072YOPC   NC315343   0.718   2.586   5.154 -0.1587 -0.0196  0.1150
 1072YOPC   PO415344   1.018   2.745   5.487 -0.0971 -0.0522  0.0696
 1072YOPC   GL115345   1.056   2.511   5.792 -0.0773  0.3921 -0.0069
 1072YOPC   GL215346   0.985   2.261   5.965 -0.0139  0.1192 -0.0708
 1072YOPC   C1A15347   1.270   2.510   6.291 -0.3117 -0.0607  0.2959
 1072YOPC   D2A15348   1.239   2.475   6.700  0.6493 -0.2904  0.1261
 1072YOPC   C3A15349   1.449   2.403   7.099 -0.2785 -0.2954 -0.3031
 1072YOPC   C4A15350   1.963   2.353   7.189  0.1537  0.1331 -0.1472
 1072YOPC   C1B15351   1.106   2.060   6.387 -0.1171  0.0657 -0.0084
 1072YOPC   C2B15352   1.409   1.955   6.698  0.0362 -0.0345  0.1883
 1072YOPC   D3B15353   1.623   1.921   6.991 -0.3010  0.0607  0.1521
 1072YOPC   C4B15354   1.960   1.792   7.244 -0.0140 -0.2236 -0.2560
 1073YOPC   NC315355   1.033  18.792   4.752 -0.1826  0.0104  0.0961
 1073YOPC   PO415356   0.903  19.093   4.911 -0.1963  0.1358  0.1200
 1073YOPC   GL115357   0.723  19.093   5.406 -0.0050 -0.4974 -0.1618
 1073YOPC   GL215358   0.434  18.996   5.431  0.1006 -0.1333  0.2630
 1073YOPC   C1A15359   0.805  19.240   5.840  0.0624 -0.0032  0.1150
 1073YOPC   D2A15360   0.877  19.585   6.055  0.3846 -0.1150 -0.0403
 1073YOPC   C3A15361   0.706  19.598   6.430 -0.2036 -0.1216 -0.2414
 1073YOPC   C4A15362   0.332  19.436   6.707  0.1695  0.1622  0.0117
 1073YOPC   C1B15363   0.325  18.976   5.893  0.2211 -0.0949 -0.3108
 1073YOPC   C2B15364   0.469  19.080   6.336 -0.1539 -0.0294 -0.1089
 1073YOPC   D3B15365   0.364  18.898   6.591 -0.1955 -0.3055 -0.2112
 1073YOPC   C4B15366   0.188  18.589   6.888 -0.0852  0.2438 -0.1304
 1074YOPC   NC315367   5.583   2.282   5.228 -0.0500  0.5235 -0.0213
 1074YOPC   PO415368   5.885   2.160   5.572 -0.0820 -0.0689  0.2183
 1074YOPC   GL115369   5.707   2.221   6.032 -0.3303 -0.1134  0.2031
 1074YOPC   GL215370   5.398   2.113   6.015  0.2169 -0.3160 -0.1699
 1074YOPC   C1A15371   5.879   2.276   6.416 -0.4313 -0.0871  0.3710
 1074YOPC   D2A15372   6.039   2.322   6.839  0.1019 -0.0796  0.4457
 1074YOPC   C3A15373   5.887   2.573   7.171  0.2015  0.0077 -0.2369
 1074YOPC   C4A15374   5.976   2.858   7.308  0.0633  0.1630 -0.2058
 1074YOPC   C1B15375   5.358   2.286   6.479 -0.1364  0.0139  0.0867
 1074YOPC   C2B15376   5.568   2.116   6.791 -0.1599  0.0816  0.2021
 1074YOPC   D3B15377   5.484   1.677   7.051 -0.1319 -0.1845  0.0994
 1074YOPC   C4B15378   5.535   1.308   7.386 -0.1559 -0.0726  0.1541
 1075YOPC   NC315379  14.167  19.133   4.959 -0.0685 -0.0390 -0.0627
 1075YOPC   PO415380  13.743  18.969   5.072  0.0235 -0.0423 -0.2364
 1075YOPC   GL115381  13.951  19.153   5.377 -0.0178 -0.2802  0.0827
 1075YOPC   GL215382  14.271  19.329   5.479 -0.0742 -0.0061  0.1510
 1075YOPC   C1A15383  13.829  19.371   5.820  0.4715  0.3337  0.1609
 1075YOPC   D2A15384  13.819  19.331   6.234 -0.1098  0.2265  0.1597
 1075YOPC   C3A15385  13.586  19.186   6.603  0.1250 -0.2841 -0.1542
 1075YOPC   C4A15386  13.768  18.980   6.895 -0.2491 -0.3659  0.0680
 1075YOPC   C1B15387  14.627  19.671   5.614 -0.0681  0.1088  0.0334
 1075YOPC   C2B15388  14.668  19.855   5.957 -0.3770  0.1248  0.4251
 1075YOPC   D3B15389  14.718  19.737   6.393 -0.0939  0.1179  0.1153
 1075YOPC   C4B15390  14.885  19.804   6.727  0.0510 -0.2907 -0.0926
 1076YOPC   NC315391  17.225   2.457   5.217  0.0966  0.0011  0.0207
 1076YOPC   PO415392  17.357   2.836   5.083 -0.0640 -0.1332 -0.3062
 1076YOPC   GL115393  17.193   2.881   5.627  0.2923 -0.1933  0.1062
 1076YOPC   GL215394  16.792   3.066   5.716  0.1560  0.3545 -0.1067
 1076YOPC   C1A15395  17.033   2.540   5.989  0.0525 -0.2192 -0.0137
 1076YOPC   D2A15396  17.121   2.136   6.161 -0.0979  0.2796 -0.1712
 1076YOPC   C3A15397  16.853   2.077   6.520 -0.3876  0.5177  0.0598
 1076YOPC   C4A15398  16.735   2.168   6.934  0.0351 -0.1863  0.2504
 1076YOPC   C1B15399  16.546   2.710   5.890  0.0633  0.1102  0.2844
 1076YOPC   C2B15400  16.190   2.473   5.847 -0.0956 -0.4524  0.3950
 1076YOPC   D3B15401  16.076   1.917   5.945  0.2809 -0.2123  0.0571
 1076YOPC   C4B15402  15.849   1.802   6.337  0.0716 -0.1211 -0.1229
 1077YOPC   NC315403   2.568  17.850   5.043  0.0802  0.3350 -0.0610
 1077YOPC   PO415404   2.443  17.347   4.919  0.4720  0.1725 -0.0448
 1077YOPC   GL115405   2.268  17.466   5.305 -0.1785 -0.2502  0.0756
 1077YOPC   GL215406   2.220  17.682   5.565 -0.1151  0.4806 -0.0546
 1077YOPC   C1A15407   2.563  17.288   5.567  0.0528  0.0870 -0.1373
 1077YOPC   D2A15408   2.603  17.054   5.939 -0.3217  0.0911  0.1296
 1077YOPC   C3A15409   2.748  16.955   6.322  0.6440 -0.1842 -0.0838
 1077YOPC   C4A15410   2.724  17.255   6.676 -0.0620  0.2722  0.1444
 1077YOPC   C1B15411   2.023  17.278   5.766  0.0112  0.2346  0.0202
 1077YOPC   C2B15412   1.840  17.169   6.148  0.1156 -0.0971  0.2528
 1077YOPC   D3B15413   1.755  16.827   6.246  0.4958 -0.3781  0.0885
 1077YOPC   C4B15414   1.532  16.406   6.156  0.0360 -0.0923 -0.2126
 1078YOPC   NC315415   1.232   1.420   5.403 -0.0536 -0.1176 -0.0771
 1078YOPC   PO415416   1.160   1.079   5.054  0.2250 -0.0718  0.0855
 1078YOPC   GL115417   1.254   0.905   5.510 -0.1093 -0.0923 -0.0135
 1078YOPC   GL215418   1.457   1.117   5.700  0.3556 -0.2818  0.0157
 1078YOPC   C1A15419   1.152   0.681   5.821 -0.2165  0.0262  0.0844
 1078YOPC   D2A15420   1.241   0.549   6.247  0.1589  0.1668 -0.0961
 1078YOPC   C3A15421   1.029   0.666   6.667  0.2961  0.0164  0.0246
 1078YOPC   C4A15422   0.661   0.685   6.853  0.0218  0.0049 -0.0159
 1078YOPC   C1B15423   1.180   1.121   6.101  0.0841 -0.0809 -0.0387
 1078YOPC   C2B15424   1.380   0.956   6.562  0.3185  0.0266 -0.3849
 1078YOPC   D3B15425   1.524   1.234   6.850  0.2987 -0.0710 -0.2126
 1078YOPC   C4B15426   1.815   1.506   6.838  0.0694  0.2535 -0.0985
 1079YOPC   NC315427  16.455  17.211   4.910 -0.3934 -0.2248  0.1791
 1079YOPC   PO415428  16.584  16.853   5.091 -0.0308  0.0685 -0.2839
 1079YOPC   GL115429  16.516  17.060   5.364  0.0662  0.1046 -0.0698
 1079YOPC   GL215430  16.299  16.863   5.523 -0.1881 -0.4548 -0.1474
 1079YOPC   C1A15431  16.301  17.398   5.500 -0.2076  0.0302  0.2548
 1079YOPC   D2A15432  16.216  17.799   5.774 -0.0031  0.3106  0.0247
 1079YOPC   C3A15433  16.093  17.833   6.124 -0.2491 -0.1981 -0.0782
 1079YOPC   C4A15434  15.788  17.738   6.583 -0.1452 -0.1524  0.2879
 1079YOPC   C1B15435  16.465  16.939   5.863  0.3594 -0.0840  0.3738
 1079YOPC   C2B15436  16.408  16.771   6.407 -0.1617  0.2612 -0.2374
 1079YOPC   D3B15437  16.538  17.092   6.684 -0.0360  0.2062 -0.2047
 1079YOPC   C4B15438  16.393  17.520   6.761  0.0640  0.1614 -0.0634
 1080YOPC   NC315439   1.182   7.951   5.604  0.1352  0.0698  0.1854
 1080YOPC   PO415440   0.858   7.660   5.527 -0.1419 -0.0200 -0.0888
 1080YOPC   GL115441   0.998   7.679   5.934  0.2329 -0.2437 -0.1406
 1080YOPC   GL215442   1.294   7.781   6.032 -0.0697  0.2944  0.2420
 1080YOPC   C1A15443   0.849   7.656   6.409  0.3047 -0.0749  0.0143
 1080YOPC   D2A15444   1.067   7.620   6.784 -0.0867 -0.1065  0.1716
 1080YOPC   C3A15445   1.204   7.318   7.155 -0.1492  0.0968 -0.2054
 1080YOPC   C4A15446   1.013   6.990   7.374  0.2551 -0.0094 -0.3238
 1080YOPC   C1B15447   1.335   7.446   6.267 -0.1079 -0.1034  0.0945
 1080YOPC   C2B15448   1.498   7.408   6.668  0.0764 -0.1488  0.0436
 1080YOPC   D3B15449   1.531   7.854   6.958 -0.1361 -0.1502 -0.3814
 1080YOPC   C4B15450   1.236   8.218   7.102 -0.1601 -0.0643 -0.2319
 1081YOPC   NC315451   8.902  18.880   5.057 -0.0671 -0.2410 -0.0648
 1081YOPC   PO415452   8.673  18.600   5.000  0.3200  0.0130 -0.0145
 1081YOPC   GL115453   8.507  18.494   5.346 -0.1801  0.2597  0.0321
 1081YOPC   GL215454   8.376  18.215   5.428  0.2669 -0.1799 -0.3928
 1081YOPC   C1A15455   8.557  18.649   5.718 -0.4653 -0.2616  0.3242
 1081YOPC   D2A15456   8.334  18.956   5.942 -0.2934 -0.1665 -0.2425
 1081YOPC   C3A15457   8.033  18.877   6.294  0.1569 -0.0401 -0.0756
 1081YOPC   C4A15458   8.090  18.646   6.631  0.2236  0.3007  0.1541
 1081YOPC   C1B15459   8.802  18.181   5.676  0.0426  0.1208  0.1209
 1081YOPC   C2B15460   8.805  18.300   6.131 -0.1672  0.1377  0.0998
 1081YOPC   D3B15461   8.972  18.153   6.606  0.1435 -0.1702  0.0327
 1081YOPC   C4B15462   8.824  18.340   7.031 -0.0041  0.1685 -0.0519
 1082YOPC   NC315463   4.498   4.971   5.693 -0.0574  0.3819 -0.0496
 1082YOPC   PO415464   4.028   4.944   5.631  0.1912 -0.0087 -0.0471
 1082YOPC   GL115465   4.166   4.940   6.054  0.1277 -0.0520  0.2432
 1082YOPC   GL215466   3.916   4.685   6.029 -0.0851 -0.1339 -0.2060
 1082YOPC   C1A15467   4.200   5.124   6.475 -0.1677 -0.1599 -0.0218
 1082YOPC   D2A15468   3.874   5.167   6.867 -0.0112 -0.3526 -0.2891
 1082YOPC   C3A15469   3.841   5.068   7.401  0.2040 -0.1932  0.1159
 1082YOPC   C4A15470   4.044   4.771   7.754 -0.3546 -0.0241  0.2058
 1082YOPC   C1B15471   3.808   4.829   6.443  0.1454 -0.0949 -0.0467
 1082YOPC   C2B15472   3.786   4.518   6.842  0.1740  0.2070  0.1777
 1082YOPC   D3B15473   3.992   4.586   7.294  0.1428 -0.1055  0.2456
 1082YOPC   C4B15474   4.081   4.253   7.659 -0.0891  0.2923  0.3289
 1083YOPC   NC315475   1.134   4.052   5.204 -0.1900 -0.4042  0.0245
 1083YOPC   PO415476   1.077   4.260   5.494 -0.0799 -0.3018  0.0785
 1083YOPC   GL115477   0.919   4.605   5.716  0.1247 -0.2387 -0.1712
 1083YOPC   GL215478   0.579   4.757   5.603 -0.0558  0.0692 -0.2387
 1083YOPC   C1A15479   0.850   4.914   6.011 -0.0575  0.1596 -0.2572
 1083YOPC   D2A15480   0.722   5.096   6.401  0.0210  0.1765 -0.1749
 1083YOPC   C3A15481   0.356   5.327   6.537  0.0272  0.3005  0.0284
 1083YOPC   C4A15482   0.076   5.612   6.644  0.2798  0.1279  0.1376
 1083YOPC   C1B15483   0.346   4.405   5.673 -0.0511  0.1795  0.2906
 1083YOPC   C2B15484   0.172   3.995   5.885 -0.0938  0.0289 -0.2657
 1083YOPC   D3B15485   0.467   3.964   6.213 -0.0499  0.0270 -0.0656
 1083YOPC   C4B15486   1.010   3.927   6.192  0.0820  0.2588 -0.0810
 1084YOPC   NC315487   8.996  14.419   5.151  0.4558  0.0648 -0.3047
 1084YOPC   PO415488   8.723  14.708   5.079  0.2634 -0.2235 -0.2906
 1084YOPC   GL115489   8.584  14.789   5.531  0.2178 -0.1580 -0.0194
 1084YOPC   GL215490   8.379  14.966   5.606 -0.1349  0.1811 -0.2661
 1084YOPC   C1A15491   8.733  14.684   5.876 -0.0167 -0.0182 -0.0862
 1084YOPC   D2A15492   8.754  14.713   6.331  0.1110 -0.1890  0.0035
 1084YOPC   C3A15493   8.834  14.331   6.532  0.1993  0.2727 -0.1222
 1084YOPC   C4A15494   8.810  13.831   6.757 -0.0018  0.1401 -0.1170
 1084YOPC   C1B15495   8.399  15.118   6.005  0.0875  0.1331  0.1008
 1084YOPC   C2B15496   8.394  15.338   6.403 -0.2193  0.1506  0.1072
 1084YOPC   D3B15497   8.748  15.589   6.473 -0.3382  0.0749  0.0411
 1084YOPC   C4B15498   9.304  15.742   6.541 -0.0797  0.0490 -0.1227
 1085YOPC   NC315499   3.546  17.880   5.367 -0.1106  0.0823  0.2107
 1085YOPC   PO415500   3.738  18.290   5.255 -0.1543  0.1945 -0.3115
 1085YOPC   GL115501   3.491  18.406   5.652  0.1654 -0.2119  0.0696
 1085YOPC   GL215502   3.469  18.753   5.701  0.1398 -0.1129 -0.1247
 1085YOPC   C1A15503   3.501  18.248   6.015 -0.0388  0.0158  0.0014
 1085YOPC   D2A15504   3.895  18.298   6.356  0.0713 -0.1131  0.0306
 1085YOPC   C3A15505   4.251  18.183   6.472 -0.1963 -0.0278 -0.0274
 1085YOPC   C4A15506   4.321  17.807   6.655  0.1005  0.2217  0.1065
 1085YOPC   C1B15507   3.444  18.751   6.128 -0.0258  0.0202  0.3696
 1085YOPC   C2B15508   3.403  18.534   6.537 -0.0428  0.4823 -0.0113
 1085YOPC   D3B15509   3.113  18.484   6.782  0.2467  0.2045  0.0845
 1085YOPC   C4B15510   2.816  18.059   6.873 -0.2363 -0.0994  0.4807
 1086YOPC   NC315511  15.630   5.067   5.685  0.4447 -0.0706  0.0021
 1086YOPC   PO415512  15.303   4.685   5.703  0.1279 -0.0201  0.1185
 1086YOPC   GL115513  15.217   4.553   6.092 -0.2264  0.2909  0.0346
 1086YOPC   GL215514  15.468   4.479   6.157 -0.2847 -0.0540  0.0799
 1086YOPC   C1A15515  14.933   4.612   6.330  0.5176 -0.1310  0.1598
 1086YOPC   D2A15516  14.882   4.409   6.672  0.0571 -0.2115  0.2530
 1086YOPC   C3A15517  14.910   4.279   7.084 -0.2462  0.1143  0.1542
 1086YOPC   C4A15518  15.131   4.542   7.192  0.1087 -0.3353  0.1113
 1086YOPC   C1B15519  15.412   4.569   6.572  0.2592  0.1635  0.0668
 1086YOPC   C2B15520  15.524   4.752   6.977 -0.1197  0.2104 -0.1612
 1086YOPC   D3B15521  15.642   4.540   7.418 -0.0367  0.0376 -0.1695
 1086YOPC   C4B15522  15.661   4.425   7.896  0.0563 -0.1517  0.3581
 1087YOPC   NC315523   4.848   0.931   5.769  0.2276 -0.2078 -0.2234
 1087YOPC   PO415524   5.304   0.679   5.854 -0.3997 -0.0455 -0.0016
 1087YOPC   GL115525   5.376   0.956   6.126 -0.4142 -0.2704  0.0444
 1087YOPC   GL215526   5.315   0.812   6.467  0.2005  0.2043  0.0332
 1087YOPC   C1A15527   5.297   1.261   6.456  0.0050 -0.1355 -0.1653
 1087YOPC   D2A15528   4.972   1.384   6.768  0.0857  0.2102  0.2203
 1087YOPC   C3A15529   4.876   1.092   7.252  0.2591  0.1999  0.0419
 1087YOPC   C4A15530   4.783   0.679   7.475 -0.0786  0.0425 -0.0130
 1087YOPC   C1B15531   4.905   0.887   6.619 -0.1470  0.2276 -0.3997
 1087YOPC   C2B15532   4.622   0.747   7.004  0.0209 -0.0897 -0.0947
 1087YOPC   D3B15533   4.598   0.318   7.134  0.0787 -0.1119  0.0854
 1087YOPC   C4B15534   4.154   0.057   7.253 -0.1925 -0.2236 -0.0326
 1088YOPC   NC315535   5.923   8.412   5.400  0.1460 -0.3002  0.1681
 1088YOPC   PO415536   5.930   8.591   5.787 -0.2813  0.0469  0.0370
 1088YOPC   GL115537   5.668   8.830   6.012 -0.2345 -0.4479  0.0324
 1088YOPC   GL215538   5.387   8.742   6.074 -0.1861 -0.1699 -0.1213
 1088YOPC   C1A15539   5.679   9.199   6.226  0.2111  0.2161  0.2244
 1088YOPC   D2A15540   5.788   9.553   6.471  0.2931  0.1227 -0.2267
 1088YOPC   C3A15541   5.816   9.524   6.968 -0.2001  0.1075 -0.0609
 1088YOPC   C4A15542   5.911   9.154   7.212  0.0735 -0.2448 -0.2400
 1088YOPC   C1B15543   5.356   8.816   6.582 -0.0417 -0.0682 -0.1359
 1088YOPC   C2B15544   5.793   9.045   6.706  0.2265 -0.0581 -0.2219
 1088YOPC   D3B15545   6.046   8.877   6.790  0.0521  0.0327  0.2627
 1088YOPC   C4B15546   6.211   8.399   6.858 -0.2127  0.0493 -0.2250
 1089YOPC   NC315547   0.372   1.634   4.952  0.0875 -0.0797  0.0946
 1089YOPC   PO415548  -0.042   1.660   5.163 -0.2083 -0.0734 -0.0956
 1089YOPC   GL115549   0.155   1.534   5.555  0.0109  0.0314 -0.1155
 1089YOPC   GL215550  -0.169   1.431   5.756 -0.2193 -0.1352 -0.1831
 1089YOPC   C1A15551   0.417   1.627   5.885 -0.1587 -0.1135 -0.1863
 1089YOPC   D2A15552   0.493   2.019   6.254 -0.1213  0.2477 -0.2399
 1089YOPC   C3A15553   0.103   1.949   6.523 -0.3446 -0.0945  0.1755
 1089YOPC   C4A15554  -0.060   2.157   6.880  0.2593 -0.2821  0.0064
 1089YOPC   C1B15555  -0.584   1.401   5.976 -0.1322  0.0722 -0.0324
 1089YOPC   C2B15556  -0.876   1.139   6.303 -0.2124  0.1780 -0.1327
 1089YOPC   D3B15557  -0.882   0.901   6.646 -0.0588 -0.1535 -0.1453
 1089YOPC   C4B15558  -0.983   0.558   6.806  0.1030  0.1801 -0.2799
 1090YOPC   NC315559   6.799   9.164   5.756  0.0498 -0.2063  0.1992
 1090YOPC   PO415560   7.249   9.297   5.716 -0.1988  0.1704 -0.4280
 1090YOPC   GL115561   7.574   9.090   5.958 -0.0887  0.0936  0.1410
 1090YOPC   GL215562   7.542   8.782   6.083  0.1265  0.3315  0.0907
 1090YOPC   C1A15563   7.898   9.059   6.234 -0.2525 -0.0189  0.2241
 1090YOPC   D2A15564   7.999   9.007   6.717 -0.4583  0.4368  0.2276
 1090YOPC   C3A15565   7.572   8.828   7.033 -0.0478  0.2203  0.1921
 1090YOPC   C4A15566   7.196   8.480   7.253 -0.0501 -0.1659 -0.0970
 1090YOPC   C1B15567   7.486   8.991   6.499  0.2182  0.1143  0.0879
 1090YOPC   C2B15568   7.585   9.292   6.759  0.2852 -0.1267 -0.1212
 1090YOPC   D3B15569   7.838   9.273   7.062  0.0200  0.2196  0.2221
 1090YOPC   C4B15570   8.028   9.190   7.454  0.2673 -0.3958  0.2978
 1091YOPC   NC315571  14.287   5.754   5.696 -0.0117  0.0646  0.1065
 1091YOPC   PO415572  13.976   5.437   5.545 -0.2583  0.4279  0.3356
 1091YOPC   GL115573  14.100   5.417   5.997  0.1685 -0.0361  0.1140
 1091YOPC   GL215574  14.404   5.393   6.083  0.2204  0.0601  0.0010
 1091YOPC   C1A15575  14.059   5.684   6.401  0.3384  0.2066 -0.3003
 1091YOPC   D2A15576  14.045   5.788   6.845 -0.1943  0.3650 -0.0722
 1091YOPC   C3A15577  14.394   5.659   6.987 -0.1542 -0.2956  0.0169
 1091YOPC   C4A15578  14.656   5.657   7.235  0.0081 -0.2547 -0.1842
 1091YOPC   C1B15579  14.481   5.407   6.503 -0.1245  0.2070 -0.2923
 1091YOPC   C2B15580  14.704   5.326   6.861  0.2141 -0.0166 -0.0516
 1091YOPC   D3B15581  15.101   5.532   7.065  0.0972 -0.3500  0.2534
 1091YOPC   C4B15582  15.360   5.918   7.001 -0.1671  0.3309  0.2357
 1092YOPC   NC315583   8.125   9.982   5.297 -0.1237 -0.2247  0.2875
 1092YOPC   PO415584   7.896  10.160   5.534 -0.2642  0.2665  0.0622
 1092YOPC   GL115585   7.881  10.491   5.750 -0.1928  0.2148 -0.1401
 1092YOPC   GL215586   8.177  10.722   5.871  0.1933  0.1092 -0.0675
 1092YOPC   C1A15587   7.854  10.458   6.196 -0.0739  0.2061  0.0062
 1092YOPC   D2A15588   7.851  10.251   6.643  0.2141 -0.1270 -0.1279
 1092YOPC   C3A15589   7.676  10.568   6.934  0.0726  0.1864 -0.0076
 1092YOPC   C4A15590   7.312  10.607   7.244 -0.4975  0.1188  0.0378
 1092YOPC   C1B15591   8.230  11.097   6.138 -0.0312  0.0485  0.1461
 1092YOPC   C2B15592   8.295  11.412   6.410 -0.0906 -0.0606  0.1104
 1092YOPC   D3B15593   8.427  11.575   6.795 -0.2050 -0.0865  0.2919
 1092YOPC   C4B15594   8.750  11.729   7.134 -0.0264 -0.1451 -0.2374
 1093YOPC   NC315595  16.448   6.957   5.577  0.1272  0.0997  0.2842
 1093YOPC   PO415596  16.073   7.197   5.677 -0.0743 -0.1435  0.0044
 1093YOPC   GL115597  16.138   6.998   6.001  0.2453  0.1306  0.2117
 1093YOPC   GL215598  15.861   6.889   6.184  0.1052 -0.2087  0.0078
 1093YOPC   C1A15599  16.384   6.819   6.425 -0.0997  0.2914  0.0500
 1093YOPC   D2A15600  16.522   6.871   6.920 -0.1166 -0.2002 -0.1435
 1093YOPC   C3A15601  16.401   7.155   7.294  0.0810 -0.3100 -0.0771
 1093YOPC   C4A15602  16.427   7.442   7.587  0.0807  0.0870 -0.2118
 1093YOPC   C1B15603  15.570   6.615   6.519 -0.0850 -0.0777 -0.0949
 1093YOPC   C2B15604  15.582   6.388   6.827 -0.0444  0.0767  0.0409
 1093YOPC   D3B15605  15.360   6.428   7.176 -0.1185  0.0265 -0.1921
 1093YOPC   C4B15606  15.485   6.704   7.412  0.0753  0.0441 -0.1277
 1094YOPC   NC315607   9.726   7.791   5.418  0.2129 -0.1838  0.1998
 1094YOPC   PO415608   9.746   7.487   5.753 -0.2850  0.0571 -0.0108
 1094YOPC   GL115609  10.119   7.496   6.080 -0.0784 -0.1073  0.0192
 1094YOPC   GL215610  10.368   7.784   6.124  0.2506 -0.1552 -0.4199
 1094YOPC   C1A15611  10.170   7.524   6.467  0.2661  0.2470  0.2934
 1094YOPC   D2A15612  10.220   7.593   6.913  0.0053 -0.4183 -0.0691
 1094YOPC   C3A15613  10.081   7.816   7.246  0.3818  0.2590  0.1101
 1094YOPC   C4A15614   9.632   7.932   7.505 -0.0096  0.2265  0.1165
 1094YOPC   C1B15615  10.475   7.916   6.575 -0.2463 -0.0879  0.0299
 1094YOPC   C2B15616  10.598   7.955   6.898 -0.0390  0.2524 -0.0142
 1094YOPC   D3B15617  10.418   8.225   7.196  0.1349  0.0943 -0.1224
 1094YOPC   C4B15618  10.378   8.467   7.528  0.0305 -0.0423  0.1168
 1095YOPC   NC315619   8.350   9.222   5.477 -0.1624  0.1898  0.1013
 1095YOPC   PO415620   8.707   9.413   5.737 -0.0523  0.0266 -0.3817
 1095YOPC   GL115621   8.881   9.616   6.100 -0.1770 -0.0783  0.0404
 1095YOPC   GL215622   8.919   9.528   6.488  0.1794  0.1697  0.1582
 1095YOPC   C1A15623   8.747   9.989   6.422 -0.2345  0.0004  0.2258
 1095YOPC   D2A15624   8.302  10.066   6.628 -0.0836  0.3209 -0.1611
 1095YOPC   C3A15625   8.227  10.379   6.901 -0.0507  0.0955  0.0725
 1095YOPC   C4A15626   8.218  10.621   7.172  0.0997 -0.2523 -0.1564
 1095YOPC   C1B15627   8.972   9.402   6.817 -0.2085  0.2068  0.0079
 1095YOPC   C2B15628   8.793   9.112   7.159 -0.1400  0.0402 -0.0519
 1095YOPC   D3B15629   8.521   9.238   7.550  0.1273 -0.2102 -0.2147
 1095YOPC   C4B15630   8.368   9.131   8.027 -0.1206  0.1979  0.2812
 1096YOPC   NC315631   0.619  14.030   5.308  0.2206  0.2315  0.4891
 1096YOPC   PO415632   0.698  13.709   5.085  0.0364  0.1886  0.0874
 1096YOPC   GL115633   0.748  13.556   5.548  0.4831 -0.1252  0.0175
 1096YOPC   GL215634   0.785  13.826   5.741  0.2598  0.0777  0.0258
 1096YOPC   C1A15635   1.012  13.362   5.881 -0.1981 -0.0726 -0.0583
 1096YOPC   D2A15636   1.257  13.120   6.221  0.1001  0.1699  0.1962
 1096YOPC   C3A15637   1.094  12.798   6.472  0.2214 -0.2059 -0.2982
 1096YOPC   C4A15638   1.176  12.593   6.861 -0.2428 -0.2983  0.3753
 1096YOPC   C1B15639   0.744  13.699   6.136  0.3610  0.2409  0.0336
 1096YOPC   C2B15640   0.826  13.379   6.408  0.1305  0.1308 -0.1013
 1096YOPC   D3B15641   0.676  12.876   6.217 -0.2415 -0.1137  0.0594
 1096YOPC   C4B15642   0.615  12.426   6.075 -0.1392 -0.0441 -0.0103
 1097YOPC   NC315643  18.815  11.164   4.946 -0.2939 -0.0143  0.0370
 1097YOPC   PO415644  18.752  10.862   5.211  0.1647 -0.0356 -0.1843
 1097YOPC   GL115645  18.644  10.977   5.549 -0.0758 -0.1243 -0.0601
 1097YOPC   GL215646  18.536  10.804   5.839 -0.1854  0.1712  0.2378
 1097YOPC   C1A15647  18.771  11.220   5.912 -0.0174  0.3019  0.0982
 1097YOPC   D2A15648  18.744  11.303   6.326  0.1770  0.0355 -0.1397
 1097YOPC   C3A15649  18.314  11.287   6.528 -0.1914 -0.0311  0.2089
 1097YOPC   C4A15650  18.160  11.530   6.913  0.1826  0.0243  0.1631
 1097YOPC   C1B15651  18.090  10.883   6.014 -0.1160 -0.1058 -0.0579
 1097YOPC   C2B15652  17.838  10.884   6.373 -0.1761  0.2094  0.0836
 1097YOPC   D3B15653  17.643  10.586   6.277 -0.1576 -0.2089 -0.0650
 1097YOPC   C4B15654  17.462  10.360   5.967 -0.0510  0.4184 -0.0294
 1098YOPC   NC315655  15.171   3.086   5.008 -0.0233  0.0136  0.0072
 1098YOPC   PO415656  15.447   3.149   5.352  0.1427 -0.0441 -0.2512
 1098YOPC   GL115657  15.766   3.346   5.637  0.1109 -0.2693 -0.4097
 1098YOPC   GL215658  16.154   3.292   5.772  0.3480  0.0144 -0.1966
 1098YOPC   C1A15659  15.666   3.455   6.055 -0.1027 -0.0011  0.0315
 1098YOPC   D2A15660  15.806   3.625   6.366 -0.1278  0.2051 -0.2870
 1098YOPC   C3A15661  15.693   3.650   6.862  0.0027 -0.6211 -0.2763
 1098YOPC   C4A15662  15.693   3.725   7.261  0.0574  0.0911 -0.1111
 1098YOPC   C1B15663  16.501   3.249   6.069 -0.0155 -0.1503  0.1849
 1098YOPC   C2B15664  16.880   3.004   6.235 -0.0719  0.0772  0.1184
 1098YOPC   D3B15665  16.956   2.902   6.711  0.1156  0.0494 -0.0006
 1098YOPC   C4B15666  16.661   2.852   7.088 -0.2073  0.1729  0.2906
 1099YOPC   NC315667   8.720   3.078   5.622  0.2198 -0.0800 -0.0804
 1099YOPC   PO415668   9.168   2.845   5.491  0.1289 -0.1189  0.2658
 1099YOPC   GL115669   9.484   3.049   5.726 -0.1021 -0.1415  0.4523
 1099YOPC   GL215670   9.586   2.767   5.734  0.0104  0.3124 -0.1140
 1099YOPC   C1A15671   9.478   3.154   6.152 -0.0305  0.0120 -0.1576
 1099YOPC   D2A15672   9.344   3.568   6.270  0.1903 -0.0393  0.3243
 1099YOPC   C3A15673   8.926   3.494   6.349 -0.1006 -0.1633 -0.0126
 1099YOPC   C4A15674   8.737   3.227   6.671 -0.0211  0.2311  0.1493
 1099YOPC   C1B15675   9.844   2.488   5.749 -0.1628  0.0616 -0.1722
 1099YOPC   C2B15676   9.942   2.196   6.083 -0.0829  0.0269  0.1539
 1099YOPC   D3B15677   9.824   2.448   6.522 -0.1601  0.1566 -0.0098
 1099YOPC   C4B15678   9.838   2.631   6.944 -0.0504  0.1340  0.1067
 1100YOPC   NC315679  17.939  13.593   5.502 -0.0569 -0.1601  0.0524
 1100YOPC   PO415680  18.248  13.880   5.521 -0.1318 -0.0692 -0.2872
 1100YOPC   GL115681  18.292  13.699   5.965  0.2601 -0.1050 -0.3738
 1100YOPC   GL215682  18.059  13.601   6.120  0.1487 -0.2071 -0.1201
 1100YOPC   C1A15683  18.391  13.221   6.235  0.2364 -0.2389 -0.1074
 1100YOPC   D2A15684  18.329  12.804   6.168 -0.2087  0.0761 -0.1612
 1100YOPC   C3A15685  18.442  12.464   6.478 -0.1680  0.0236  0.3886
 1100YOPC   C4A15686  18.744  12.498   6.872 -0.1488  0.3167  0.1521
 1100YOPC   C1B15687  17.981  13.561   6.584 -0.1639 -0.0325  0.0421
 1100YOPC   C2B15688  17.963  13.776   7.012  0.1955 -0.0814  0.1840
 1100YOPC   D3B15689  17.589  13.824   7.191 -0.0449  0.0509 -0.1418
 1100YOPC   C4B15690  17.457  13.983   7.639 -0.1660 -0.0188  0.1967
 1101YOPC   NC315691  17.884   7.248   5.244 -0.0571 -0.0181 -0.0731
 1101YOPC   PO415692  17.827   7.680   5.327 -0.1671  0.0252  0.1674
 1101YOPC   GL115693  18.003   7.546   5.687 -0.2365 -0.0174 -0.1614
 1101YOPC   GL215694  17.754   7.587   5.904  0.3408  0.0943 -0.0956
 1101YOPC   C1A15695  18.210   7.359   6.049 -0.0842  0.1356 -0.0066
 1101YOPC   D2A15696  18.415   7.287   6.477 -0.1360  0.1119  0.0167
 1101YOPC   C3A15697  18.482   6.880   6.526  0.0830 -0.1389  0.2061
 1101YOPC   C4A15698  18.681   6.669   6.848  0.1743  0.0888 -0.1198
 1101YOPC   C1B15699  17.721   7.470   6.321 -0.3886 -0.0731 -0.0466
 1101YOPC   C2B15700  17.960   7.312   6.722 -0.3215  0.0453 -0.0056
 1101YOPC   D3B15701  18.310   7.209   6.963  0.2953  0.0260 -0.1848
 1101YOPC   C4B15702  18.682   7.033   7.132  0.1766 -0.0746 -0.2028
 1102YOPC   NC315703  17.715  17.311   5.015 -0.3062  0.0247 -0.3217
 1102YOPC   PO415704  17.826  16.852   5.007 -0.0314 -0.1690  0.0762
 1102YOPC   GL115705  17.703  16.705   5.440 -0.3119 -0.2356 -0.2995
 1102YOPC   GL215706  17.452  16.533   5.363 -0.2877 -0.0665 -0.0314
 1102YOPC   C1A15707  17.649  16.881   5.709  0.0468 -0.1957  0.1269
 1102YOPC   D2A15708  17.331  16.996   5.914  0.0859 -0.0229  0.1458
 1102YOPC   C3A15709  17.441  17.046   6.235  0.1210  0.1105  0.2365
 1102YOPC   C4A15710  17.514  16.848   6.562 -0.0666 -0.1683 -0.2239
 1102YOPC   C1B15711  17.351  16.436   5.762 -0.3049  0.0982  0.3647
 1102YOPC   C2B15712  17.073  16.151   5.938 -0.1172  0.0519  0.3078
 1102YOPC   D3B15713  17.175  15.727   6.013 -0.1989  0.1653  0.0180
 1102YOPC   C4B15714  16.878  15.405   5.960  0.1068 -0.0686 -0.3041
 1103YOPC   NC315715   3.156   6.759   5.570 -0.0382 -0.0028  0.1928
 1103YOPC   PO415716   2.883   7.108   5.671 -0.1845  0.0372  0.1316
 1103YOPC   GL115717   2.573   7.037   6.036 -0.4576  0.0739 -0.1056
 1103YOPC   GL215718   2.618   7.372   5.997 -0.0490  0.6123  0.1159
 1103YOPC   C1A15719   2.580   6.773   6.403  0.0538 -0.2563 -0.1175
 1103YOPC   D2A15720   2.285   6.597   6.696  0.0170  0.4088  0.0028
 1103YOPC   C3A15721   2.476   6.680   7.042  0.1526  0.0335 -0.0968
 1103YOPC   C4A15722   2.336   6.382   7.345  0.0676 -0.2949 -0.2937
 1103YOPC   C1B15723   2.236   7.386   6.154 -0.0070 -0.4000 -0.1802
 1103YOPC   C2B15724   1.850   7.567   6.176  0.0919  0.0368 -0.3022
 1103YOPC   D3B15725   1.695   7.853   6.475  0.0891 -0.2450 -0.2731
 1103YOPC   C4B15726   1.322   7.976   6.534  0.0500  0.0394  0.0727
 1104YOPC   NC315727   2.511   9.187   5.166  0.0806 -0.1184 -0.0685
 1104YOPC   PO415728   2.266   8.793   5.191 -0.0267 -0.1756 -0.0991
 1104YOPC   GL115729   2.092   8.767   5.619  0.0154  0.0083  0.0490
 1104YOPC   GL215730   1.646   8.724   5.623  0.1475  0.0073  0.1424
 1104YOPC   C1A15731   1.971   8.790   5.984 -0.0085 -0.1064  0.0023
 1104YOPC   D2A15732   1.919   8.675   6.277 -0.1232  0.0992  0.1526
 1104YOPC   C3A15733   2.135   8.382   6.483  0.1452 -0.1206  0.0622
 1104YOPC   C4A15734   2.450   8.254   6.451 -0.2853  0.2696  0.2226
 1104YOPC   C1B15735   1.530   8.919   5.823  0.0244 -0.3325  0.0896
 1104YOPC   C2B15736   1.551   9.128   6.213  0.0043 -0.0810  0.2659
 1104YOPC   D3B15737   1.907   9.218   6.460  0.5531 -0.0056  0.1550
 1104YOPC   C4B15738   2.026   9.333   6.833 -0.0325 -0.2424 -0.0240
 1105YOPC   NC315739  18.208  17.156   4.940 -0.2954 -0.1743 -0.0276
 1105YOPC   PO415740  18.096  17.645   5.008  0.2524 -0.0815  0.1852
 1105YOPC   GL115741  18.066  17.507   5.369  0.2434 -0.0197  0.1362
 1105YOPC   GL215742  18.063  17.142   5.416 -0.0530  0.1951  0.0480
 1105YOPC   C1A15743  18.285  17.565   5.839 -0.1263  0.1112 -0.0607
 1105YOPC   D2A15744  18.459  17.395   6.073 -0.0780 -0.2668 -0.2293
 1105YOPC   C3A15745  18.360  17.136   6.376  0.4577 -0.2365 -0.0494
 1105YOPC   C4A15746  18.358  17.160   6.773  0.2057  0.0602 -0.0791
 1105YOPC   C1B15747  18.008  17.184   5.737 -0.0122  0.0294 -0.4731
 1105YOPC   C2B15748  17.651  17.534   5.797  0.0027  0.2288 -0.0684
 1105YOPC   D3B15749  17.725  17.944   5.675  0.1885 -0.1642  0.0040
 1105YOPC   C4B15750  17.959  18.327   5.593 -0.2577  0.0520  0.1270
 1106YOPC   NC315751  17.314   0.388   4.417 -0.1006  0.1393 -0.1509
 1106YOPC   PO415752  17.130  -0.102   4.442  0.0978  0.1320 -0.2794
 1106YOPC   GL115753  17.047  -0.166   4.788 -0.0834 -0.1135 -0.3017
 1106YOPC   GL215754  17.108  -0.393   4.965  0.1246  0.6291 -0.1124
 1106YOPC   C1A15755  17.009  -0.034   5.287 -0.0883 -0.0410  0.1203
 1106YOPC   D2A15756  16.832   0.043   5.655  0.3571 -0.2088  0.0159
 1106YOPC   C3A15757  17.158   0.160   5.954  0.0304  0.2594  0.1273
 1106YOPC   C4A15758  17.167   0.005   6.397 -0.1604  0.2080  0.0184
 1106YOPC   C1B15759  17.434  -0.352   5.315 -0.2702  0.2918 -0.0612
 1106YOPC   C2B15760  17.663  -0.550   5.612  0.0045 -0.1575 -0.0244
 1106YOPC   D3B15761  17.488  -0.869   5.736 -0.0039  0.1075 -0.0701
 1106YOPC   C4B15762  17.217  -0.855   6.141 -0.5553  0.1152  0.1842
 1107YOPC   NC315763   7.290   3.009   5.422 -0.2159 -0.1314 -0.2514
 1107YOPC   PO415764   7.069   2.884   5.619  0.0800 -0.1601 -0.0480
 1107YOPC   GL115765   7.406   2.932   5.944  0.2920 -0.1375 -0.1233
 1107YOPC   GL215766   7.598   2.957   5.842 -0.0726  0.1155 -0.1428
 1107YOPC   C1A15767   7.425   2.851   6.373  0.1710 -0.2170 -0.2659
 1107YOPC   D2A15768   7.250   3.150   6.675  0.2044 -0.1516  0.2330
 1107YOPC   C3A15769   7.128   3.572   6.668 -0.0417  0.0734 -0.3100
 1107YOPC   C4A15770   7.136   3.946   6.415 -0.2597 -0.3669 -0.0993
 1107YOPC   C1B15771   7.868   2.928   6.175 -0.1629  0.2344  0.2925
 1107YOPC   C2B15772   7.907   2.826   6.624  0.1094  0.1435 -0.1225
 1107YOPC   D3B15773   7.622   2.860   6.928 -0.1336 -0.1596 -0.0097
 1107YOPC   C4B15774   7.718   3.273   7.189 -0.1969  0.2491  0.4918
 1108YOPC   NC315775  13.293   4.428   5.645 -0.1979  0.0758  0.0198
 1108YOPC   PO415776  13.285   4.981   5.799  0.0456  0.1177 -0.0563
 1108YOPC   GL115777  13.489   4.955   6.180  0.0091  0.1973  0.0835
 1108YOPC   GL215778  13.865   5.010   6.230 -0.1689  0.2820  0.0069
 1108YOPC   C1A15779  13.491   4.791   6.551  0.2938  0.1873 -0.0769
 1108YOPC   D2A15780  13.548   4.855   6.937 -0.0973  0.0090  0.0144
 1108YOPC   C3A15781  13.645   4.747   7.315 -0.0928  0.0274 -0.2437
 1108YOPC   C4A15782  13.533   4.667   7.703 -0.3480  0.1013 -0.0257
 1108YOPC   C1B15783  14.053   5.178   6.471 -0.0192  0.1061  0.1637
 1108YOPC   C2B15784  14.071   5.247   6.879  0.1572  0.1935 -0.0233
 1108YOPC   D3B15785  14.360   5.227   7.185 -0.0564  0.1720  0.0026
 1108YOPC   C4B15786  14.119   5.320   7.580 -0.2038 -0.0561 -0.2974
 1109YOPC   NC315787  17.268   3.343   5.321 -0.2073  0.1602 -0.3565
 1109YOPC   PO415788  17.561   3.582   5.367 -0.0831 -0.1575  0.0270
 1109YOPC   GL115789  17.600   3.437   5.768  0.1832 -0.1677 -0.1981
 1109YOPC   GL215790  17.729   3.081   5.863  0.1882  0.2321  0.1390
 1109YOPC   C1A15791  17.325   3.144   6.031 -0.1969 -0.2294  0.0353
 1109YOPC   D2A15792  17.364   3.112   6.535  0.0866  0.0297  0.1616
 1109YOPC   C3A15793  17.122   3.298   6.944 -0.1635 -0.0168 -0.1993
 1109YOPC   C4A15794  17.184   3.405   7.376 -0.0509  0.1460  0.0652
 1109YOPC   C1B15795  17.486   2.719   6.176  0.1958  0.1782  0.0392
 1109YOPC   C2B15796  17.271   2.532   6.399 -0.1340 -0.1835 -0.2033
 1109YOPC   D3B15797  17.484   2.143   6.607 -0.0226  0.1079  0.4101
 1109YOPC   C4B15798  17.922   1.958   6.491 -0.1589  0.1536 -0.1062
 1110YOPC   NC315799  19.173   6.062   5.178  0.0195 -0.3278  0.1308
 1110YOPC   PO415800  18.981   6.327   5.575 -0.1796  0.1953 -0.2039
 1110YOPC   GL115801  19.100   6.094   6.009  0.0401  0.2649  0.1339
 1110YOPC   GL215802  19.290   6.311   6.067  0.0895  0.1986 -0.3023
 1110YOPC   C1A15803  19.028   6.094   6.474  0.0513  0.2895 -0.1086
 1110YOPC   D2A15804  18.791   5.980   6.825 -0.1179 -0.2940 -0.0328
 1110YOPC   C3A15805  18.891   6.059   7.188 -0.0809 -0.0405 -0.0770
 1110YOPC   C4A15806  18.838   6.455   7.320 -0.2840 -0.1358  0.2038
 1110YOPC   C1B15807  19.489   6.306   6.482  0.0188  0.3498  0.2804
 1110YOPC   C2B15808  19.314   6.258   6.931 -0.1476 -0.3841 -0.0784
 1110YOPC   D3B15809  19.511   6.232   7.296  0.1131  0.1853 -0.0962
 1110YOPC   C4B15810  19.743   6.448   7.632 -0.2049 -0.0860 -0.1660
 1111YOPC   NC315811   0.066  12.590   4.874  0.0467  0.0546 -0.0519
 1111YOPC   PO415812   0.083  12.779   5.274  0.1126  0.1704 -0.0503
 1111YOPC   GL115813   0.266  12.877   5.605  0.0641  0.0313 -0.1171
 1111YOPC   GL215814   0.494  13.143   5.699 -0.0858 -0.1734  0.0835
 1111YOPC   C1A15815   0.259  12.718   5.995 -0.0140 -0.5173 -0.0386
 1111YOPC   D2A15816   0.077  12.459   6.283  0.2397 -0.1576 -0.2290
 1111YOPC   C3A15817  -0.068  12.102   6.614 -0.0367 -0.4488  0.1235
 1111YOPC   C4A15818  -0.157  11.759   6.901 -0.1450  0.1284 -0.0731
 1111YOPC   C1B15819   0.371  13.275   6.080 -0.1648  0.1347  0.1396
 1111YOPC   C2B15820   0.388  13.177   6.557  0.0863  0.2417  0.2737
 1111YOPC   D3B15821   0.589  12.826   6.714 -0.0085  0.0750  0.0208
 1111YOPC   C4B15822   0.592  12.628   7.106  0.0521 -0.3557  0.1784
 1112YOPC   NC315823  10.132  14.205   5.045 -0.3124  0.0080 -0.0047
 1112YOPC   PO415824  10.014  13.840   5.278  0.0370 -0.2579  0.1349
 1112YOPC   GL115825   9.957  14.122   5.632 -0.2452 -0.0498  0.2589
 1112YOPC   GL215826   9.909  14.407   5.494  0.5305 -0.1685  0.1171
 1112YOPC   C1A15827  10.170  14.269   5.967  0.2125  0.0427 -0.3895
 1112YOPC   D2A15828  10.345  13.986   6.302  0.0642 -0.0635 -0.0445
 1112YOPC   C3A15829  10.753  14.112   6.458 -0.0736 -0.2465  0.0820
 1112YOPC   C4A15830  10.990  13.985   6.777  0.3491 -0.2677  0.0772
 1112YOPC   C1B15831   9.740  14.497   5.827  0.4521  0.1839 -0.2499
 1112YOPC   C2B15832   9.861  14.455   6.257  0.3322 -0.0984 -0.1694
 1112YOPC   D3B15833   9.495  14.328   6.556  0.2175  0.3737  0.2186
 1112YOPC   C4B15834   9.229  14.116   6.870  0.4531  0.0128  0.1712
 1113YOPC   NC315835   3.173   5.793   5.599 -0.0074 -0.2614 -0.2066
 1113YOPC   PO415836   3.518   6.097   5.640 -0.2587 -0.0129  0.0788
 1113YOPC   GL115837   3.605   5.955   5.967  0.0612  0.1761 -0.2845
 1113YOPC   GL215838   3.327   5.809   6.054  0.0579  0.3256 -0.1184
 1113YOPC   C1A15839   3.861   5.877   6.327  0.1690  0.0889 -0.1893
 1113YOPC   D2A15840   4.096   6.047   6.509  0.3993  0.1277 -0.1610
 1113YOPC   C3A15841   4.210   6.064   6.848 -0.1165 -0.0610 -0.2418
 1113YOPC   C4A15842   4.515   6.020   7.296 -0.2436  0.0057  0.4016
 1113YOPC   C1B15843   3.185   5.992   6.458  0.2423  0.0447 -0.1745
 1113YOPC   C2B15844   3.290   5.866   6.892  0.0603  0.1505 -0.3111
 1113YOPC   D3B15845   3.064   5.921   7.124  0.3371  0.0757 -0.2390
 1113YOPC   C4B15846   2.782   6.159   7.203  0.0550 -0.0365  0.2069
 1114YOPC   NC315847  19.131   2.193   5.112 -0.1877 -0.0491 -0.0843
 1114YOPC   PO415848  19.585   2.072   5.252  0.3630 -0.1018  0.0154
 1114YOPC   GL115849  19.532   2.022   5.528  0.0406 -0.0852 -0.1181
 1114YOPC   GL215850  19.204   2.107   5.577  0.0563 -0.4494 -0.0466
 1114YOPC   C1A15851  19.372   1.946   5.996 -0.1144 -0.2001 -0.0848
 1114YOPC   D2A15852  19.322   2.361   6.063  0.0135  0.2464  0.2138
 1114YOPC   C3A15853  19.471   2.471   6.494  0.0710  0.1324  0.1055
 1114YOPC   C4A15854  19.469   2.637   6.868  0.0838 -0.1797 -0.3321
 1114YOPC   C1B15855  18.892   1.849   5.783 -0.0259  0.2799  0.5589
 1114YOPC   C2B15856  18.529   1.888   6.129  0.0411 -0.0966 -0.0174
 1114YOPC   D3B15857  18.249   1.618   6.286 -0.0011 -0.0557  0.0568
 1114YOPC   C4B15858  17.874   1.567   6.179 -0.0232  0.4804  0.0748
 1115ERGO   ROH15859   3.359   2.171   6.101 -0.0840 -0.0470  0.0586
 1115ERGO    R115860   3.321   2.120   6.377  0.0234 -0.0230  0.0788
 1115ERGO    R215861   3.528   2.046   6.544  0.0756 -0.0943 -0.0117
 1115ERGO    R315862   3.442   2.258   6.691  0.2205 -0.0552  0.0175
 1115ERGO    R415863   3.706   2.195   6.800  0.2821 -0.0849 -0.1585
 1115ERGO    R515864   3.520   2.213   6.912  0.3668 -0.0319 -0.0309
 1115ERGO    C115865   3.729   2.480   7.087  0.5384 -0.0428 -0.2166
 1115ERGO    C215866   3.790   2.570   7.356 -0.1972  0.2418  0.0413
 1116ERGO   ROH15867   9.064   2.037   8.983  0.1778 -0.3020  0.2232
 1116ERGO    R115868   9.058   2.038   8.700  0.1258 -0.1811  0.2242
 1116ERGO    R215869   9.287   2.054   8.547  0.1002 -0.1485  0.1887
 1116ERGO    R315870   9.187   1.829   8.432  0.0470 -0.0863  0.1114
 1116ERGO    R415871   9.324   1.968   8.214 -0.0284  0.0150  0.1306
 1116ERGO    R515872   9.118   1.898   8.214 -0.0309  0.0258  0.1717
 1116ERGO    C115873   9.252   1.707   7.913 -0.1531  0.1686  0.0242
 1116ERGO    C215874   9.217   1.617   7.565 -0.1477 -0.2229 -0.0707
 1117ERGO   ROH15875   7.684   2.451   6.426 -0.0597  0.1884 -0.1246
 1117ERGO    R115876   7.522   2.294   6.597  0.0846  0.0053 -0.1527
 1117ERGO    R215877   7.493   2.348   6.866  0.0518 -0.0839 -0.1345
 1117ERGO    R315878   7.228   2.346   6.804  0.0494 -0.2965 -0.1241
 1117ERGO    R415879   7.237   2.313   7.096  0.0736  0.0808 -0.0835
 1117ERGO    R515880   7.134   2.184   6.954  0.1341 -0.1537  0.0849
 1117ERGO    C115881   6.840   2.290   7.172  0.0841 -0.0229 -0.0442
 1117ERGO    C215882   6.660   2.363   7.470  0.0837 -0.2554 -0.2957
 1118ERGO   ROH15883  15.104  16.370   5.323  0.1296  0.0639  0.0221
 1118ERGO    R115884  14.879  16.295   5.477  0.1635  0.1962  0.1400
 1118ERGO    R215885  14.754  16.469   5.652  0.1220  0.4014 -0.0826
 1118ERGO    R315886  14.533  16.403   5.509  0.1293  0.1328  0.0108
 1118ERGO    R415887  14.431  16.466   5.776  0.1567  0.2398  0.0057
 1118ERGO    R515888  14.395  16.284   5.663  0.2627  0.1260  0.1336
 1118ERGO    C115889  14.036  16.403   5.713  0.1837 -0.1065  0.1448
 1118ERGO    C215890  13.803  16.474   5.850 -0.2391  0.1316  0.1418
 1119ERGO   ROH15891   6.546  13.197   6.094 -0.1714 -0.0016  0.0570
 1119ERGO    R115892   6.657  13.407   6.249 -0.1072  0.1629 -0.2028
 1119ERGO    R215893   6.624  13.673   6.184 -0.6258  0.1277 -0.1612
 1119ERGO    R315894   6.530  13.691   6.438 -0.0914 -0.0031  0.0573
 1119ERGO    R415895   6.575  13.969   6.355 -0.8487  0.0711 -0.1252
 1119ERGO    R515896   6.654  13.872   6.534 -0.2402  0.2748 -0.2710
 1119ERGO    C115897   6.459  14.158   6.694 -0.4768 -0.0846  0.1010
 1119ERGO    C215898   6.382  14.364   6.615  0.2188 -0.1517 -0.2272
 1120ERGO   ROH15899  11.418  14.952   5.614  0.1823 -0.0128 -0.0097
 1120ERGO    R115900  11.342  14.844   5.865  0.0481  0.1915  0.0408
 1120ERGO    R215901  11.492  14.651   5.995 -0.1895  0.0583  0.1225
 1120ERGO    R315902  11.483  14.829   6.200  0.0364  0.1641  0.0446
 1120ERGO    R415903  11.614  14.592   6.313 -0.1153  0.1067  0.1035
 1120ERGO    R515904  11.439  14.694   6.393 -0.0013  0.2895  0.1249
 1120ERGO    C115905  11.676  14.725   6.691  0.1399  0.2342  0.0193
 1120ERGO    C215906  11.920  14.698   6.943  0.0935  0.3196  0.2557
 1121ERGO   ROH15907   9.182  13.140   6.192  0.0410 -0.0090 -0.0540
 1121ERGO    R115908   9.277  13.237   6.440 -0.0492  0.0413 -0.0381
 1121ERGO    R215909   9.241  13.101   6.677 -0.0968  0.0669 -0.0283
 1121ERGO    R315910   9.511  13.126   6.696 -0.1067  0.1147  0.0461
 1121ERGO    R415911   9.428  13.006   6.951 -0.1424  0.0143 -0.0155
 1121ERGO    R515912   9.549  13.186   6.925 -0.1728  0.0456  0.0742
 1121ERGO    C115913   9.791  12.974   7.129 -0.1782  0.0285  0.0618
 1121ERGO    C215914   9.971  12.576   7.221  0.0462 -0.0290  0.2609
 1122ERGO   ROH15915  14.158   2.044   5.562  0.0106  0.1429  0.0575
 1122ERGO    R115916  14.161   2.052   5.845 -0.0738  0.0019  0.0631
 1122ERGO    R215917  14.172   1.823   6.001  0.0374 -0.0707 -0.0501
 1122ERGO    R315918  14.388   1.948   6.110 -0.0759  0.0215  0.0722
 1122ERGO    R415919  14.334   1.724   6.290 -0.0352 -0.0411  0.0015
 1122ERGO    R515920  14.353   1.933   6.346 -0.1709 -0.0439  0.0536
 1122ERGO    C115921  14.631   1.784   6.560 -0.1839  0.0628  0.1464
 1122ERGO    C215922  14.944   1.809   6.823 -0.3683 -0.1020 -0.1001
 1123ERGO   ROH15923  13.229   0.418   5.543 -0.0343 -0.1917  0.0417
 1123ERGO    R115924  13.216   0.235   5.759  0.0044 -0.0795  0.1408
 1123ERGO    R215925  13.408   0.226   5.957  0.0444  0.0203  0.1106
 1123ERGO    R315926  13.194   0.255   6.122  0.0763  0.1121  0.1350
 1123ERGO    R415927  13.428   0.307   6.292  0.1185 -0.0632  0.1267
 1123ERGO    R515928  13.268   0.164   6.331  0.0380  0.0246  0.1088
 1123ERGO    C115929  13.238   0.383   6.642  0.1917 -0.0255  0.1590
 1123ERGO    C215930  13.059   0.377   6.964  0.3000 -0.0166  0.0221
 1124ERGO   ROH15931   7.349   6.835   6.902  0.0378  0.0335  0.1508
 1124ERGO    R115932   7.526   7.033   7.000 -0.0184  0.1704 -0.0147
 1124ERGO    R215933   7.467   7.303   6.994 -0.2564  0.1277  0.0869
 1124ERGO    R315934   7.520   7.288   7.260  0.0448  0.1256  0.0294
 1124ERGO    R415935   7.504   7.575   7.204 -0.1851  0.1189  0.0846
 1124ERGO    R515936   7.668   7.471   7.302 -0.0174  0.2045 -0.1084
 1124ERGO    C115937   7.575   7.719   7.576  0.1392  0.1118  0.0292
 1124ERGO    C215938   7.796   8.023   7.689  0.0241 -0.3001 -0.0021
 1125ERGO   ROH15939   5.848  16.244   7.328 -0.0880 -0.1745 -0.0419
 1125ERGO    R115940   5.850  15.994   7.197  0.0507 -0.1562 -0.0758
 1125ERGO    R215941   5.669  15.928   6.998  0.0149 -0.2702 -0.0062
 1125ERGO    R315942   5.894  15.875   6.856 -0.0031 -0.0759 -0.1112
 1125ERGO    R415943   5.704  15.669   6.773  0.0186 -0.0243 -0.2957
 1125ERGO    R515944   5.906  15.636   6.849  0.0403 -0.0695 -0.3707
 1125ERGO    C115945   5.936  15.467   6.508  0.0038  0.3012 -0.5630
 1125ERGO    C215946   5.867  15.252   6.348  0.2803  0.2469  0.1806
 1126ERGO   ROH15947   4.610  15.796   5.718 -0.0061 -0.0082  0.0463
 1126ERGO    R115948   4.523  15.784   5.987 -0.0339 -0.0487  0.0353
 1126ERGO    R215949   4.580  15.982   6.171  0.0241 -0.1186  0.0934
 1126ERGO    R315950   4.310  15.982   6.205  0.0202 -0.0284  0.0694
 1126ERGO    R415951   4.411  16.175   6.402  0.0517  0.0355 -0.0124
 1126ERGO    R515952   4.281  16.004   6.442  0.0022  0.0900  0.0559
 1126ERGO    C115953   4.059  16.287   6.570  0.0642  0.2098 -0.0965
 1126ERGO    C215954   3.862  16.581   6.685 -0.0253  0.1117 -0.1461
 1127ERGO   ROH15955  10.673  16.387   5.925  0.2177 -0.0218 -0.1427
 1127ERGO    R115956  10.894  16.408   6.101  0.0805 -0.0627  0.0370
 1127ERGO    R215957  10.944  16.635   6.250  0.0378 -0.0482  0.0258
 1127ERGO    R315958  10.944  16.460   6.458 -0.1963 -0.0004  0.0698
 1127ERGO    R415959  11.068  16.703   6.566 -0.1010 -0.0497  0.0818
 1127ERGO    R515960  11.151  16.501   6.571 -0.2317 -0.1056  0.1793
 1127ERGO    C115961  11.139  16.578   6.944 -0.4016 -0.0059  0.1558
 1127ERGO    C215962  11.133  16.578   7.223 -0.0414  0.0013  0.1021
 1128ERGO   ROH15963  10.486   9.092   8.258  0.0754 -0.0370  0.3100
 1128ERGO    R115964  10.638   8.933   8.080 -0.0078  0.0368  0.1719
 1128ERGO    R215965  10.769   8.702   8.160  0.1111  0.0598  0.0362
 1128ERGO    R315966  10.628   8.591   7.957 -0.0004  0.0560  0.1146
 1128ERGO    R415967  10.866   8.423   7.981 -0.0960 -0.0904  0.1540
 1128ERGO    R515968  10.794   8.519   7.800 -0.0678 -0.1257  0.1179
 1128ERGO    C115969  10.790   8.156   7.686 -0.3212 -0.1817  0.2963
 1128ERGO    C215970  10.719   7.862   7.380 -0.0451  0.2420 -0.0425
 1129ERGO   ROH15971   1.400   6.738   9.490 -0.0899  0.0232  0.0803
 1129ERGO    R115972   1.206   6.725   9.285 -0.0927  0.1124  0.0772
 1129ERGO    R215973   1.121   6.949   9.146  0.0315  0.1484  0.0579
 1129ERGO    R315974   1.193   6.802   8.929 -0.0432  0.0923  0.0707
 1129ERGO    R415975   1.126   7.067   8.822 -0.0258  0.0816  0.0324
 1129ERGO    R515976   1.044   6.875   8.756 -0.0722  0.0812  0.0906
 1129ERGO    C115977   1.196   6.998   8.428 -0.1293 -0.0099  0.0297
 1129ERGO    C215978   1.365   7.076   8.194 -0.3611 -0.1454  0.2299
 1130ERGO   ROH15979   1.665   0.599   5.924 -0.0201  0.0077 -0.1790
 1130ERGO    R115980   1.651   0.803   6.120 -0.2213 -0.0778 -0.1022
 1130ERGO    R215981   1.866   0.966   6.182 -0.2650 -0.1370  0.2275
 1130ERGO    R315982   1.688   1.165   6.129 -0.1729 -0.0867  0.1034
 1130ERGO    R415983   1.892   1.290   6.300 -0.0734 -0.0500 -0.0431
 1130ERGO    R515984   1.676   1.289   6.333 -0.0659  0.0888  0.0046
 1130ERGO    C115985   1.740   1.665   6.319  0.1246  0.0479 -0.3171
 1130ERGO    C215986   1.824   1.999   6.168 -0.1086  0.1365 -0.2873
 1131ERGO   ROH15987  11.843   3.801   5.661 -0.0422  0.0116  0.0870
 1131ERGO    R115988  11.831   3.708   5.928  0.0652 -0.0096  0.0862
 1131ERGO    R215989  12.053   3.694   6.091  0.1054  0.1448  0.0568
 1131ERGO    R315990  11.900   3.843   6.259  0.0181  0.0303  0.0776
 1131ERGO    R415991  12.158   3.821   6.395  0.0639  0.2845  0.0124
 1131ERGO    R515992  11.963   3.771   6.478  0.1363  0.1228  0.0691
 1131ERGO    C115993  12.074   4.035   6.729 -0.0424  0.2584  0.0061
 1131ERGO    C215994  12.307   4.270   6.787  0.2888 -0.1778  0.1731
 1132ERGO   ROH15995   4.520  10.621   6.030 -0.1040  0.4054 -0.0411
 1132ERGO    R115996   4.369  10.662   6.265 -0.0527  0.2207  0.0242
 1132ERGO    R215997   4.330  10.464   6.454  0.1013  0.1159 -0.0627
 1132ERGO    R315998   4.430  10.652   6.624  0.0562  0.0818  0.0046
 1132ERGO    R415999   4.250  10.490   6.789 -0.1986  0.1947 -0.1367
 1132ERGO    R516000   4.246  10.707   6.766 -0.0537  0.2027 -0.1708
 1132ERGO    C116001   4.296  10.681   7.144 -0.4154  0.2085 -0.1166
 1132ERGO    C216002   4.266  10.608   7.478  0.1063 -0.1262  0.1604
 1133ERGO   ROH16003  19.009   3.224   5.854 -0.0840  0.1664  0.0399
 1133ERGO    R116004  19.140   3.268   6.101 -0.0971  0.1722  0.0454
 1133ERGO    R216005  19.285   3.497   6.153 -0.1632  0.2055  0.0741
 1133ERGO    R316006  19.121   3.512   6.370 -0.1665  0.1324  0.0774
 1133ERGO    R416007  19.290   3.751   6.388 -0.2253  0.1746  0.1100
 1133ERGO    R516008  19.261   3.602   6.544 -0.1866  0.1433  0.0896
 1133ERGO    C116009  19.140   3.913   6.728 -0.2647  0.0879  0.1341
 1133ERGO    C216010  19.165   4.176   7.021  0.1642  0.1052 -0.0857
 1134ERGO   ROH16011   8.155  16.891   5.719 -0.1509 -0.0171  0.1986
 1134ERGO    R116012   8.280  17.003   5.947 -0.2205  0.0216  0.2156
 1134ERGO    R216013   8.303  17.275   5.985 -0.1690  0.0190  0.1416
 1134ERGO    R316014   8.183  17.220   6.222 -0.2761  0.1312  0.1120
 1134ERGO    R416015   8.350  17.455   6.276  0.0729 -0.1180  0.1919
 1134ERGO    R516016   8.351  17.267   6.386 -0.2151 -0.1568  0.1421
 1134ERGO    C116017   8.264  17.509   6.668  0.1133 -0.0926  0.1934
 1134ERGO    C216018   8.176  17.657   7.039 -0.0455  0.2125  0.3100
 1135ERGO   ROH16019  18.574   6.316   5.991 -0.1657  0.0336 -0.1253
 1135ERGO    R116020  18.517   6.394   6.257 -0.0305  0.0062 -0.0870
 1135ERGO    R216021  18.279   6.329   6.384 -0.0421  0.1453 -0.0346
 1135ERGO    R316022  18.445   6.227   6.573 -0.0592 -0.0262 -0.1107
 1135ERGO    R416023  18.190   6.264   6.711 -0.0037  0.0780 -0.0375
 1135ERGO    R516024  18.384   6.340   6.774  0.0578 -0.0632 -0.0539
 1135ERGO    C116025  18.294   6.130   7.079  0.0026 -0.1221 -0.1106
 1135ERGO    C216026  18.250   5.932   7.242 -0.1532  0.0781 -0.0973
 1136ERGO   ROH16027  10.861  17.950   5.704  0.1351  0.1966 -0.0417
 1136ERGO    R116028  10.827  17.963   5.985  0.1408  0.0258 -0.0324
 1136ERGO    R216029  10.923  18.172   6.137  0.1461 -0.0668  0.0941
 1136ERGO    R316030  10.665  18.186   6.222  0.1476 -0.1164  0.1077
 1136ERGO    R416031  10.819  18.325   6.429  0.0995  0.1484 -0.0327
 1136ERGO    R516032  10.679  18.161   6.460  0.1838  0.1065  0.1307
 1136ERGO    C116033  10.517  18.428   6.679  0.0738  0.2273 -0.0937
 1136ERGO    C216034  10.163  18.450   6.842 -0.0816  0.1246  0.0577
 1137ERGO   ROH16035   3.962   3.786   6.220 -0.1707  0.0219 -0.2991
 1137ERGO    R116036   4.133   3.963   6.359 -0.0302  0.0714 -0.5336
 1137ERGO    R216037   4.146   4.233   6.302 -0.4551  0.1388 -0.3213
 1137ERGO    R316038   4.096   4.259   6.568  0.1368 -0.1608 -0.1627
 1137ERGO    R416039   4.227   4.510   6.492 -0.5849  0.1969 -0.3474
 1137ERGO    R516040   4.287   4.376   6.653  0.1155  0.1999 -0.5646
 1137ERGO    C116041   4.228   4.696   6.853 -0.1047 -0.0506 -0.2137
 1137ERGO    C216042   4.310   4.935   7.095  0.2980  0.0694 -0.0847
 1138ERGO   ROH16043  12.349   9.990   9.254  0.0836 -0.1575  0.0649
 1138ERGO    R116044  12.218  10.122   9.041  0.0831 -0.0662  0.1223
 1138ERGO    R216045  12.333  10.152   8.791  0.0001 -0.1385  0.0804
 1138ERGO    R316046  12.103  10.034   8.707 -0.1152  0.0186  0.1651
 1138ERGO    R416047  12.180  10.212   8.487  0.1080 -0.2608 -0.0000
 1138ERGO    R516048  11.987  10.207   8.589  0.0822  0.0372 -0.0144
 1138ERGO    C116049  11.876  10.136   8.231  0.0625 -0.1844  0.0327
 1138ERGO    C216050  11.852  10.230   7.845  0.3134 -0.0512  0.0426
 1139ERGO   ROH16051  11.281   0.510   9.427  0.0711  0.2096  0.0765
 1139ERGO    R116052  11.400   0.417   9.187  0.1364  0.1512  0.1309
 1139ERGO    R216053  11.259   0.279   8.995  0.2166  0.0023  0.1782
 1139ERGO    R316054  11.355   0.473   8.831  0.1502 -0.0315  0.0992
 1139ERGO    R416055  11.276   0.256   8.650  0.2807 -0.1627  0.1917
 1139ERGO    R516056  11.471   0.354   8.658  0.2348 -0.0647  0.1763
 1139ERGO    C116057  11.376   0.425   8.296  0.2556 -0.2906  0.1256
 1139ERGO    C216058  11.378   0.502   8.010  0.2166 -0.0564  0.0691
 1140ERGO   ROH16059  18.039   5.029   5.988  0.1895 -0.0539 -0.0298
 1140ERGO    R116060  18.219   4.933   6.184  0.1643 -0.0102  0.0148
 1140ERGO    R216061  18.168   4.951   6.455  0.1195  0.0307  0.0038
 1140ERGO    R316062  18.214   4.683   6.449  0.1381  0.0325  0.0546
 1140ERGO    R416063  18.190   4.749   6.734 -0.1164  0.0417  0.0321
 1140ERGO    R516064  18.355   4.643   6.639 -0.0260  0.0460  0.1815
 1140ERGO    C116065  18.245   4.380   6.892 -0.2362  0.0498  0.0963
 1140ERGO    C216066  18.290   4.135   7.161  0.0101 -0.3441 -0.0740
 1141ERGO   ROH16067   2.689  16.021   5.629 -0.2013  0.2720 -0.0460
 1141ERGO    R116068   2.784  15.878   5.854 -0.0388  0.0741 -0.2347
 1141ERGO    R216069   2.724  15.953   6.113  0.4175  0.0459 -0.1126
 1141ERGO    R316070   2.636  15.696   6.133  0.1474  0.1370 -0.0931
 1141ERGO    R416071   2.628  15.800   6.408  0.6864  0.0366 -0.0275
 1141ERGO    R516072   2.729  15.618   6.340  0.3762 -0.0564 -0.2624
 1141ERGO    C116073   2.490  15.470   6.598  0.5894  0.1167  0.0403
 1141ERGO    C216074   2.272  15.192   6.647  0.0844  0.1528  0.1118
 1142ERGO   ROH16075   5.734  10.654   6.122 -0.2507  0.0056 -0.0324
 1142ERGO    R116076   5.621  10.735   6.369 -0.1122 -0.0309  0.0443
 1142ERGO    R216077   5.711  10.639   6.612  0.0947  0.0128 -0.0136
 1142ERGO    R316078   5.736  10.904   6.669  0.0301  0.0248 -0.0402
 1142ERGO    R416079   5.669  10.779   6.925  0.2042  0.0110  0.0022
 1142ERGO    R516080   5.565  10.946   6.832  0.0964 -0.0294  0.0452
 1142ERGO    C116081   5.667  11.108   7.162  0.2073  0.0210 -0.0135
 1142ERGO    C216082   5.738  11.172   7.519  0.1797 -0.2190 -0.2015
 1143ERGO   ROH16083  16.474  18.405   5.329  0.2028  0.0703 -0.0304
 1143ERGO    R116084  16.623  18.325   5.556  0.1090  0.0238  0.0164
 1143ERGO    R216085  16.648  18.060   5.632  0.0852  0.0039 -0.0310
 1143ERGO    R316086  16.914  18.116   5.620  0.0871  0.0179  0.0907
 1143ERGO    R416087  16.881  17.964   5.869  0.0257 -0.1966 -0.0528
 1143ERGO    R516088  16.976  18.159   5.847  0.0280 -0.1788  0.1431
 1143ERGO    C116089  17.266  17.960   5.995 -0.0070 -0.2998  0.0487
 1143ERGO    C216090  17.281  17.970   6.409  0.0711 -0.0657  0.3369
 1144ERGO   ROH16091  15.572  14.403   5.525 -0.1359  0.1702  0.1429
 1144ERGO    R116092  15.710  14.252   5.722 -0.2730  0.0429  0.1435
 1144ERGO    R216093  15.974  14.302   5.790 -0.1797 -0.2893  0.0435
 1144ERGO    R316094  15.871  14.320   6.041 -0.0782 -0.0742  0.0721
 1144ERGO    R416095  16.155  14.267   6.082 -0.1094 -0.3205 -0.0038
 1144ERGO    R516096  15.989  14.155   6.166 -0.1878 -0.1276  0.1074
 1144ERGO    C116097  16.164  14.263   6.488  0.0267 -0.1370 -0.0045
 1144ERGO    C216098  16.365  14.221   6.739 -0.0341 -0.0575  0.1725
 1145ERGO   ROH16099   6.029   5.724   6.358  0.1124  0.0167 -0.0446
 1145ERGO    R116100   5.976   5.753   6.634  0.0804  0.1872 -0.0692
 1145ERGO    R216101   6.016   5.549   6.816 -0.0813  0.2560  0.0340
 1145ERGO    R316102   6.167   5.735   6.944  0.0106  0.2227 -0.0210
 1145ERGO    R416103   6.107   5.535   7.149  0.1210  0.1693 -0.0219
 1145ERGO    R516104   6.071   5.750   7.163  0.1392  0.1771  0.0461
 1145ERGO    C116105   6.301   5.702   7.463  0.3252  0.0876 -0.1060
 1145ERGO    C216106   6.386   5.721   7.730 -0.2620 -0.3543 -0.0020
 1146ERGO   ROH16107  15.278   8.649   5.707 -0.1716 -0.1470 -0.0158
 1146ERGO    R116108  15.245   8.526   5.960 -0.3075  0.2128  0.1458
 1146ERGO    R216109  15.429   8.349   6.064 -0.6809 -0.1407  0.1924
 1146ERGO    R316110  15.425   8.519   6.276 -0.0940  0.1072  0.0294
 1146ERGO    R416111  15.547   8.275   6.381 -0.6890 -0.1744  0.1895
 1146ERGO    R516112  15.376   8.380   6.464 -0.3818  0.3994  0.1977
 1146ERGO    C116113  15.612   8.392   6.763 -0.1427  0.0386  0.0349
 1146ERGO    C216114  15.871   8.564   7.007  0.3962 -0.0743 -0.0594
 1147ERGO   ROH16115  16.580  12.462   5.464  0.1198  0.0576 -0.0137
 1147ERGO    R116116  16.546  12.646   5.676  0.1067 -0.0472  0.0762
 1147ERGO    R216117  16.318  12.800   5.705  0.1888  0.0897  0.0197
 1147ERGO    R316118  16.315  12.690   5.954 -0.0456 -0.0615 -0.0474
 1147ERGO    R416119  16.187  12.952   5.987  0.2323  0.0624  0.0545
 1147ERGO    R516120  16.356  12.875   6.101  0.0955 -0.1970  0.0851
 1147ERGO    C116121  16.108  12.938   6.384  0.0376 -0.0956  0.0119
 1147ERGO    C216122  15.946  12.909   6.619 -0.3962 -0.1030 -0.2677
 1148ERGO   ROH16123   7.262  11.232   5.782 -0.3084 -0.0992  0.0228
 1148ERGO    R116124   7.277  11.258   6.064 -0.1624 -0.0439  0.0118
 1148ERGO    R216125   7.058  11.325   6.218 -0.1007 -0.0790  0.1212
 1148ERGO    R316126   7.123  11.098   6.352  0.0396 -0.0372  0.1239
 1148ERGO    R416127   6.977  11.260   6.548  0.0250 -0.0889  0.1501
 1148ERGO    R516128   7.174  11.172   6.574  0.0699  0.0031  0.1013
 1148ERGO    C116129   6.991  11.008   6.865  0.2300 -0.0554  0.1695
 1148ERGO    C216130   6.956  10.953   7.225 -0.2140 -0.3147 -0.1454
 1149ERGO   ROH16131   2.543   5.013   5.811 -0.0549  0.0519 -0.1013
 1149ERGO    R116132   2.734   5.033   6.019 -0.0181 -0.0242 -0.1273
 1149ERGO    R216133   2.664   5.097   6.279  0.0523  0.0846 -0.1345
 1149ERGO    R316134   2.797   4.866   6.336 -0.0935  0.0096 -0.0942
 1149ERGO    R416135   2.719   4.975   6.598  0.0788  0.1699 -0.1062
 1149ERGO    R516136   2.920   4.917   6.536  0.0160 -0.0005 -0.1580
 1149ERGO    C116137   2.874   4.688   6.838 -0.0427  0.1492 -0.0519
 1149ERGO    C216138   2.780   4.602   7.210 -0.0786 -0.0646  0.2603
 1150ERGO   ROH16139  10.640   5.781   6.593  0.1844  0.2612  0.0694
 1150ERGO    R116140  10.515   5.796   6.847 -0.0431  0.0730 -0.0277
 1150ERGO    R216141  10.594   5.975   7.041 -0.0054 -0.2786  0.2923
 1150ERGO    R316142  10.332   6.046   7.037  0.0803  0.0478  0.1267
 1150ERGO    R416143  10.420   6.104   7.311 -0.0778 -0.3073  0.2597
 1150ERGO    R516144  10.249   5.982   7.253 -0.1840 -0.0484  0.0015
 1150ERGO    C116145  10.073   6.246   7.464 -0.0393 -0.0175  0.0852
 1150ERGO    C216146   9.809   6.445   7.652  0.1151 -0.0153  0.0881
 1151ERGO   ROH16147   7.162   0.076   5.914  0.2008  0.4478  0.0383
 1151ERGO    R116148   7.184   0.137   6.190  0.1175  0.3266  0.0717
 1151ERGO    R216149   6.967   0.219   6.341  0.0444  0.1258  0.0741
 1151ERGO    R316150   7.041   0.011   6.500  0.1379  0.0924 -0.0108
 1151ERGO    R416151   6.957   0.221   6.687 -0.0045 -0.0303  0.0744
 1151ERGO    R516152   7.147   0.114   6.688  0.0576  0.0709  0.0502
 1151ERGO    C116153   7.020   0.026   7.037  0.0548 -0.1526 -0.0052
 1151ERGO    C216154   7.070   0.143   7.366  0.0244 -0.0031 -0.3421
 1152ERGO   ROH16155   0.666   0.050   8.921  0.2510  0.3424 -0.0679
 1152ERGO    R116156   0.865   0.053   8.720  0.1701  0.1825 -0.1507
 1152ERGO    R216157   0.889  -0.148   8.531  0.0231  0.0912 -0.0673
 1152ERGO    R316158   0.873   0.060   8.356  0.0280  0.0155 -0.1593
 1152ERGO    R416159   0.939  -0.173   8.190  0.0445 -0.0648 -0.0538
 1152ERGO    R516160   1.047   0.016   8.197  0.0421 -0.0552 -0.1301
 1152ERGO    C116161   0.953   0.006   7.827  0.0616 -0.2268 -0.1322
 1152ERGO    C216162   0.939  -0.012   7.449 -0.4070  0.0415  0.0021
 1153ERGO   ROH16163   8.463  10.392   6.221 -0.0481  0.1578 -0.0362
 1153ERGO    R116164   8.304  10.514   6.421 -0.0648  0.1349 -0.0360
 1153ERGO    R216165   8.405  10.701   6.597 -0.0729  0.0947  0.0103
 1153ERGO    R316166   8.199  10.853   6.504 -0.0487  0.1287  0.0101
 1153ERGO    R416167   8.288  10.990   6.748 -0.0925  0.0591  0.0645
 1153ERGO    R516168   8.085  10.925   6.702 -0.0859  0.0799  0.0067
 1153ERGO    C116169   8.027  11.299   6.749 -0.0810  0.0704  0.0958
 1153ERGO    C216170   7.952  11.576   7.024 -0.1745  0.1105 -0.1196
 1154ERGO   ROH16171  16.782   8.754   5.660  0.0870  0.1085  0.0222
 1154ERGO    R116172  16.778   8.946   5.867  0.0875  0.0862  0.0431
 1154ERGO    R216173  16.588   8.946   6.068  0.0520  0.0983  0.0113
 1154ERGO    R316174  16.806   8.944   6.230  0.0255  0.0391  0.0473
 1154ERGO    R416175  16.626   9.139   6.352  0.0089 -0.0093  0.0908
 1154ERGO    R516176  16.833   9.172   6.297  0.0159  0.0123  0.1381
 1154ERGO    C116177  16.853   9.249   6.670 -0.0411 -0.1276  0.1710
 1154ERGO    C216178  17.074   9.310   6.893 -0.3055  0.1507  0.0499
 1155ERGO   ROH16179  14.297   9.837   9.254  0.2901 -0.0542  0.1700
 1155ERGO    R116180  14.401   9.891   8.996  0.1544 -0.0017  0.1254
 1155ERGO    R216181  14.464   9.690   8.815  0.1177  0.0334  0.0762
 1155ERGO    R316182  14.299   9.831   8.652  0.0056  0.0099  0.1667
 1155ERGO    R416183  14.460   9.668   8.471 -0.1034 -0.0036  0.0793
 1155ERGO    R516184  14.433   9.884   8.461 -0.1178 -0.0047  0.0732
 1155ERGO    C116185  14.303   9.788   8.116 -0.3375 -0.0473  0.1661
 1155ERGO    C216186  14.303   9.753   7.803 -0.3977  0.2760 -0.6626
 1156ERGO   ROH16187   5.924   8.440   7.848 -0.1929  0.1318 -0.0944
 1156ERGO    R116188   5.853   8.643   8.031 -0.1457  0.0869 -0.0255
 1156ERGO    R216189   5.691   8.597   8.249 -0.0688  0.0276  0.0207
 1156ERGO    R316190   5.898   8.706   8.387 -0.0294  0.0121 -0.0264
 1156ERGO    R416191   5.658   8.796   8.530  0.0096  0.0406  0.0207
 1156ERGO    R516192   5.818   8.923   8.452  0.0057  0.0219 -0.0171
 1156ERGO    C116193   5.833   9.015   8.822  0.0922  0.0336 -0.0236
 1156ERGO    C216194   5.837   9.108   9.112  0.2130 -0.0548  0.0140
 1157ERGO   ROH16195   8.748  16.592   9.342  0.0966 -0.1453  0.0147
 1157ERGO    R116196   8.661  16.661   9.082  0.0532 -0.1574  0.0263
 1157ERGO    R216197   8.836  16.716   8.875  0.0182 -0.0898  0.0163
 1157ERGO    R316198   8.693  16.524   8.746  0.0684 -0.1264  0.0146
 1157ERGO    R416199   8.835  16.667   8.533 -0.0579 -0.0079  0.0043
 1157ERGO    R516200   8.620  16.630   8.544 -0.0401 -0.1100  0.0598
 1157ERGO    C116201   8.700  16.458   8.213 -0.0551  0.0050 -0.0042
 1157ERGO    C216202   8.690  16.626   7.927  0.0778  0.1075  0.3411
 1158ERGO   ROH16203  10.261  14.763   5.586 -0.1411  0.1872 -0.1178
 1158ERGO    R116204  10.218  14.911   5.823  0.0661  0.0992 -0.0243
 1158ERGO    R216205   9.997  14.872   5.985  0.0524  0.2561 -0.0198
 1158ERGO    R316206  10.184  14.838   6.178  0.0406 -0.0660 -0.0567
 1158ERGO    R416207   9.955  14.955   6.318  0.2268  0.3006 -0.0078
 1158ERGO    R516208  10.160  15.029   6.320  0.3635 -0.0229 -0.0376
 1158ERGO    C116209  10.107  14.971   6.693  0.3173  0.0241 -0.0356
 1158ERGO    C216210  10.244  14.770   7.021  0.2812 -0.1942 -0.0126
 1159ERGO   ROH16211   6.863   6.932   6.605  0.0311  0.1617  0.0550
 1159ERGO    R116212   6.819   7.074   6.845  0.0128  0.1235  0.0759
 1159ERGO    R216213   7.016   7.111   7.036  0.0127  0.1259  0.0844
 1159ERGO    R316214   6.953   7.373   7.004 -0.0244  0.1188  0.1125
 1159ERGO    R416215   7.081   7.359   7.267 -0.1061  0.1026  0.1420
 1159ERGO    R516216   6.886   7.445   7.222 -0.1027  0.0730  0.0993
 1159ERGO    C116217   7.059   7.751   7.371 -0.2100  0.0825  0.2017
 1159ERGO    C216218   7.248   8.050   7.548  0.0021 -0.3156  0.0801
 1160ERGO   ROH16219   4.765   7.590   6.197 -0.1541  0.1883 -0.0784
 1160ERGO    R116220   4.766   7.336   6.323 -0.0822  0.1235 -0.2084
 1160ERGO    R216221   4.762   7.306   6.598  0.0066 -0.0178 -0.2232
 1160ERGO    R316222   4.546   7.150   6.545  0.0110 -0.0204 -0.2348
 1160ERGO    R416223   4.700   7.000   6.746 -0.0624  0.0399 -0.1316
 1160ERGO    R516224   4.632   6.926   6.552 -0.0072 -0.0250 -0.1270
 1160ERGO    C116225   4.461   6.675   6.783 -0.0983  0.0711 -0.0890
 1160ERGO    C216226   4.469   6.480   7.070  0.1970 -0.2041 -0.0097
 1161ERGO   ROH16227   5.790   8.451   6.626 -0.0137  0.2780 -0.2003
 1161ERGO    R116228   5.684   8.528   6.877  0.0162  0.0995 -0.1306
 1161ERGO    R216229   5.778   8.425   7.116  0.1851  0.0781 -0.2012
 1161ERGO    R316230   5.810   8.688   7.178  0.0040  0.0815 -0.1173
 1161ERGO    R416231   5.724   8.563   7.428  0.0787 -0.0488 -0.1629
 1161ERGO    R516232   5.633   8.735   7.332 -0.0324 -0.0825 -0.1112
 1161ERGO    C116233   5.724   8.889   7.669 -0.1532 -0.1194 -0.0619
 1161ERGO    C216234   5.931   9.086   7.922  0.0672  0.2178 -0.0434
 1162ERGO   ROH16235   5.289   4.431   9.775  0.0508 -0.3379  0.0175
 1162ERGO    R116236   5.503   4.512   9.608 -0.0636 -0.0606  0.0022
 1162ERGO    R216237   5.587   4.365   9.391  0.1843 -0.0132  0.0676
 1162ERGO    R316238   5.547   4.598   9.257 -0.1744 -0.1208 -0.0282
 1162ERGO    R416239   5.743   4.450   9.094  0.1693  0.1559  0.1068
 1162ERGO    R516240   5.764   4.654   9.171 -0.2237  0.2318  0.0506
 1162ERGO    C116241   5.797   4.720   8.797 -0.1762  0.1534  0.0398
 1162ERGO    C216242   5.916   4.613   8.437  0.2921  0.2443  0.3148
 1163ERGO   ROH16243  17.638  12.937   8.778 -0.1805 -0.4761  0.0249
 1163ERGO    R116244  17.413  13.084   8.690 -0.0600 -0.2549  0.0797
 1163ERGO    R216245  17.407  13.216   8.447  0.0325 -0.2008  0.1125
 1163ERGO    R316246  17.181  13.069   8.409 -0.1093  0.0135  0.1013
 1163ERGO    R416247  17.193  13.249   8.178  0.2894 -0.2434 -0.1016
 1163ERGO    R516248  17.025  13.224   8.315  0.1427  0.1014 -0.1983
 1163ERGO    C116249  16.857  13.131   7.985  0.3062 -0.0672 -0.2368
 1163ERGO    C216250  16.868  13.112   7.607 -0.0489 -0.3928  0.1233
 1164ERGO   ROH16251  14.682   6.293   6.138  0.0377 -0.1079 -0.1588
 1164ERGO    R116252  14.630   6.362   6.408  0.0077 -0.1508 -0.1526
 1164ERGO    R216253  14.691   6.609   6.512  0.0752 -0.1903 -0.0875
 1164ERGO    R316254  14.429   6.609   6.584  0.0543 -0.1185 -0.1427
 1164ERGO    R416255  14.547   6.834   6.732  0.0935 -0.1495 -0.1178
 1164ERGO    R516256  14.431   6.669   6.817  0.0254 -0.1211 -0.1393
 1164ERGO    C116257  14.217   6.965   6.927  0.0846 -0.0584 -0.1873
 1164ERGO    C216258  13.828   7.229   7.070 -0.2214 -0.1010  0.0921
 1165ERGO   ROH16259   1.506   4.856   5.889  0.1037 -0.0223 -0.0408
 1165ERGO    R116260   1.412   4.972   6.129 -0.0894 -0.0083 -0.1214
 1165ERGO    R216261   1.579   5.028   6.343 -0.2963 -0.2146  0.1001
 1165ERGO    R316262   1.473   5.278   6.317 -0.0485 -0.1132  0.0384
 1165ERGO    R416263   1.527   5.248   6.604 -0.3163 -0.2003  0.0842
 1165ERGO    R516264   1.337   5.305   6.513 -0.1910 -0.0147 -0.0713
 1165ERGO    C116265   1.398   5.610   6.733 -0.0952 -0.0967  0.0171
 1165ERGO    C216266   1.469   5.637   7.040 -0.1489 -0.1747  0.3001
 1166ERGO   ROH16267   6.605  18.649   5.718 -0.0817  0.0267  0.0209
 1166ERGO    R116268   6.685  18.668   5.989 -0.0135  0.0723 -0.0021
 1166ERGO    R216269   6.682  18.452   6.161 -0.0639  0.1227  0.0620
 1166ERGO    R316270   6.942  18.521   6.200 -0.0273  0.0276 -0.0168
 1166ERGO    R416271   6.884  18.323   6.410 -0.1043  0.2154  0.1432
 1166ERGO    R516272   6.967  18.523   6.439 -0.0047  0.1992 -0.0195
 1166ERGO    C116273   7.246  18.313   6.592 -0.0935  0.1800  0.1165
 1166ERGO    C216274   7.307  17.998   6.787  0.2815  0.2109 -0.4049
 1167ERGO   ROH16275   0.217  16.901   8.409  0.2186  0.0660 -0.0469
 1167ERGO    R116276   0.241  17.130   8.244  0.2447  0.0444 -0.0723
 1167ERGO    R216277   0.401  17.135   8.019  0.1011 -0.0603 -0.1770
 1167ERGO    R316278   0.172  17.214   7.897  0.0663  0.0700 -0.0323
 1167ERGO    R416279   0.381  17.250   7.694 -0.0617 -0.2252 -0.2273
 1167ERGO    R516280   0.238  17.401   7.762  0.1216 -0.0607 -0.1909
 1167ERGO    C116281   0.154  17.392   7.390 -0.1892 -0.1990 -0.1208
 1167ERGO    C216282   0.123  17.416   7.093 -0.3515  0.5748  0.2552
 1168ERGO   ROH16283  13.428  19.228   5.477  0.0396  0.1144  0.1288
 1168ERGO    R116284  13.304  19.083   5.686  0.0874  0.0072  0.0823
 1168ERGO    R216285  13.432  19.027   5.925  0.0219  0.1816  0.1549
 1168ERGO    R316286  13.211  19.145   6.032 -0.1671 -0.0466  0.0269
 1168ERGO    R416287  13.322  18.984   6.250  0.1180  0.3725  0.2150
 1168ERGO    R516288  13.118  18.977   6.175  0.1137 -0.0452  0.2261
 1168ERGO    C116289  13.051  19.068   6.539 -0.0032  0.2693  0.1298
 1168ERGO    C216290  13.094  19.231   6.857  0.0170 -0.2701 -0.1087
 1169ERGO   ROH16291  18.622  15.766   5.579 -0.0910  0.2011 -0.1482
 1169ERGO    R116292  18.621  15.900   5.829 -0.0175  0.0892 -0.0860
 1169ERGO    R216293  18.554  16.167   5.854  0.2235  0.1463  0.0220
 1169ERGO    R316294  18.375  16.072   6.035  0.0957  0.2226 -0.0627
 1169ERGO    R416295  18.387  16.360   6.087  0.2696  0.1963  0.0131
 1169ERGO    R516296  18.417  16.201   6.233  0.1112  0.1430 -0.0173
 1169ERGO    C116297  18.123  16.383   6.393  0.1766  0.2970 -0.0715
 1169ERGO    C216298  17.791  16.417   6.611 -0.2505 -0.2460  0.2431
 1170ERGO   ROH16299  17.335   7.562   9.201  0.2008  0.1321  0.1463
 1170ERGO    R116300  17.266   7.716   8.973 -0.0068  0.0941  0.1811
 1170ERGO    R216301  17.363   7.659   8.720  0.1026  0.3024  0.1724
 1170ERGO    R316302  17.099   7.657   8.655  0.1059 -0.0714  0.1525
 1170ERGO    R416303  17.238   7.680   8.398  0.0886  0.1942  0.1705
 1170ERGO    R516304  17.081   7.810   8.473 -0.1113 -0.0540  0.1890
 1170ERGO    C116305  16.918   7.689   8.150  0.0834 -0.2197  0.1506
 1170ERGO    C216306  16.803   7.699   7.812 -0.0847 -0.2239  0.1907
 1171ERGO   ROH16307  13.881  12.965   5.746 -0.1502  0.1890 -0.0326
 1171ERGO    R116308  13.693  13.139   5.867 -0.2499  0.1145 -0.0785
 1171ERGO    R216309  13.420  13.104   5.839 -0.2380 -0.1510  0.0716
 1171ERGO    R316310  13.424  13.109   6.111 -0.1113  0.0571  0.0679
 1171ERGO    R416311  13.160  13.213   6.038 -0.1797 -0.0905  0.1142
 1171ERGO    R516312  13.306  13.309   6.169 -0.1521  0.0591 -0.0276
 1171ERGO    C116313  13.012  13.280   6.410 -0.0269  0.1400  0.1355
 1171ERGO    C216314  12.529  13.350   6.581 -0.1605  0.0161 -0.3045
 1172ERGO   ROH16315   7.832  12.305   6.078 -0.1787  0.3142 -0.1556
 1172ERGO    R116316   7.899  12.316   6.353 -0.0577  0.2358 -0.1811
 1172ERGO    R216317   7.892  12.550   6.499 -0.1172  0.1733 -0.0810
 1172ERGO    R316318   7.730  12.405   6.662  0.0346  0.0177 -0.0654
 1172ERGO    R416319   7.879  12.581   6.843 -0.1382  0.1826 -0.0825
 1172ERGO    R516320   7.863  12.364   6.857  0.0833  0.1655 -0.0671
 1172ERGO    C116321   7.720  12.463   7.197 -0.0080  0.0418 -0.0688
 1172ERGO    C216322   7.447  12.352   7.374  0.0391 -0.0247  0.2739
 1173ERGO   ROH16323  12.608  10.993   5.722 -0.1057 -0.1057  0.2226
 1173ERGO    R116324  12.722  10.897   5.963  0.0960  0.0164  0.1772
 1173ERGO    R216325  12.969  10.980   6.054 -0.0703  0.4905  0.2111
 1173ERGO    R316326  12.830  11.039   6.280 -0.1976  0.0995  0.2445
 1173ERGO    R416327  13.065  10.891   6.374  0.0832  0.4607  0.1583
 1173ERGO    R516328  12.856  10.846   6.418  0.1515  0.0492  0.1241
 1173ERGO    C116329  12.990  10.895   6.772  0.0531  0.0764  0.1591
 1173ERGO    C216330  13.136  11.193   6.979  0.1771  0.1186  0.0612
 1174ERGO   ROH16331   0.668  18.551   5.275  0.1323 -0.1752  0.0015
 1174ERGO    R116332   0.791  18.536   5.530  0.0375 -0.0514  0.0557
 1174ERGO    R216333   0.782  18.743   5.712 -0.1560 -0.0183  0.0091
 1174ERGO    R316334   0.683  18.551   5.877 -0.1130 -0.0403  0.0095
 1174ERGO    R416335   0.778  18.762   6.057 -0.2155  0.0140  0.0067
 1174ERGO    R516336   0.832  18.551   6.064 -0.1399  0.0318  0.0332
 1174ERGO    C116337   0.683  18.592   6.413 -0.2098  0.0123  0.0056
 1174ERGO    C216338   0.667  18.542   6.837 -0.0411  0.1591  0.1512
 1175ERGO   ROH16339  14.382  17.425   5.257 -0.0055 -0.1597 -0.0318
 1175ERGO    R116340  14.331  17.341   5.523  0.0761 -0.0306  0.0258
 1175ERGO    R216341  14.407  17.489   5.743 -0.0683  0.1939 -0.0728
 1175ERGO    R316342  14.144  17.466   5.809 -0.0476 -0.0180 -0.0597
 1175ERGO    R416343  14.267  17.595   6.041 -0.1450  0.1224 -0.0831
 1175ERGO    R516344  14.145  17.414   6.043  0.0062  0.0177 -0.0514
 1175ERGO    C116345  13.939  17.635   6.276 -0.1702 -0.1184 -0.0768
 1175ERGO    C216346  13.708  17.662   6.516  0.2450  0.0075 -0.0259
 1176ERGO   ROH16347   2.973   8.548   6.066 -0.0406 -0.0405  0.1254
 1176ERGO    R116348   2.864   8.485   6.320  0.0912 -0.0181  0.1866
 1176ERGO    R216349   2.949   8.608   6.552  0.0283  0.1911  0.0916
 1176ERGO    R316350   2.684   8.664   6.581 -0.0248 -0.0649  0.1430
 1176ERGO    R416351   2.794   8.679   6.853  0.1435  0.5574  0.0709
 1176ERGO    R516352   2.624   8.559   6.788  0.2318  0.2278  0.3845
 1176ERGO    C116353   2.455   8.773   7.056  0.1607  0.5303  0.1071
 1176ERGO    C216354   2.293   8.998   7.284 -0.0444  0.0862  0.0552
 1177ERGO   ROH16355  15.743   7.426   5.922 -0.0581  0.0172 -0.0480
 1177ERGO    R116356  15.602   7.405   6.167 -0.2046  0.2923 -0.1047
 1177ERGO    R216357  15.720   7.315   6.399 -0.5525 -0.3023 -0.1415
 1177ERGO    R316358  15.627   7.549   6.500  0.2016 -0.0430  0.0195
 1177ERGO    R416359  15.649   7.372   6.732 -0.4348 -0.3294 -0.1109
 1177ERGO    R516360  15.472   7.483   6.670 -0.0717  0.3260 -0.0705
 1177ERGO    C116361  15.520   7.626   7.021  0.3416 -0.1018  0.0580
 1177ERGO    C216362  15.600   7.736   7.284 -0.2440 -0.1015 -0.2647
 1178ERGO   ROH16363  10.291   8.854   6.414 -0.2105  0.0305 -0.1227
 1178ERGO    R116364  10.351   9.008   6.644 -0.1095 -0.0294 -0.1084
 1178ERGO    R216365  10.248   9.261   6.684  0.0221  0.0180 -0.0650
 1178ERGO    R316366  10.165   9.154   6.920 -0.0083  0.0289 -0.0705
 1178ERGO    R416367  10.280   9.415   6.993  0.1126 -0.0308 -0.0493
 1178ERGO    R516368  10.332   9.221   7.078  0.0327 -0.0638 -0.0748
 1178ERGO    C116369  10.220   9.404   7.393  0.1368 -0.0490 -0.0454
 1178ERGO    C216370  10.299   9.708   7.579  0.0574 -0.0217  0.3316
 1179ERGO   ROH16371  10.591  17.237   5.798  0.1763 -0.1677 -0.0071
 1179ERGO    R116372  10.672  17.413   6.005  0.2101 -0.2448  0.0449
 1179ERGO    R216373  10.512  17.619   6.097  0.2872 -0.1855  0.0417
 1179ERGO    R316374  10.556  17.501   6.338  0.1712 -0.2491  0.0329
 1179ERGO    R416375  10.505  17.783   6.400  0.6276 -0.1598  0.0399
 1179ERGO    R516376  10.678  17.665   6.463  0.4656 -0.4308 -0.0048
 1179ERGO    C116377  10.542  17.769   6.804  0.7169 -0.2044  0.0306
 1179ERGO    C216378  10.394  17.900   7.067 -0.1037  0.0359  0.3575
 1180ERGO   ROH16379  10.630  12.453   6.204 -0.0349  0.1456  0.0319
 1180ERGO    R116380  10.773  12.474   6.447  0.2492  0.0320 -0.1214
 1180ERGO    R216381  10.987  12.645   6.479 -0.0120  0.3721 -0.1606
 1180ERGO    R316382  10.843  12.735   6.691  0.0966 -0.2001  0.1795
 1180ERGO    R416383  11.122  12.809   6.751  0.0336  0.5397 -0.2822
 1180ERGO    R516384  10.986  12.696   6.880  0.5706  0.0396 -0.1067
 1180ERGO    C116385  11.066  12.990   7.109  0.1620  0.1004 -0.0338
 1180ERGO    C216386  11.292  13.121   7.338 -0.0040  0.2279 -0.1399
 1181ERGO   ROH16387  10.616  16.596   9.091 -0.0173  0.1556 -0.1196
 1181ERGO    R116388  10.460  16.612   8.856 -0.0752  0.1336 -0.0836
 1181ERGO    R216389  10.398  16.852   8.733 -0.0540  0.1192 -0.1274
 1181ERGO    R316390  10.506  16.731   8.515 -0.1358  0.0414 -0.1242
 1181ERGO    R416391  10.327  16.935   8.405 -0.2489 -0.0613 -0.1319
 1181ERGO    R516392  10.327  16.723   8.357 -0.2170 -0.0852 -0.0270
 1181ERGO    C116393  10.387  16.869   8.010 -0.4393 -0.2393 -0.1317
 1181ERGO    C216394  10.612  16.873   7.678 -0.0656 -0.2007  0.3640
 1182ERGO   ROH16395   8.053   5.180   6.627 -0.3398  0.1240 -0.0630
 1182ERGO    R116396   7.990   5.010   6.844 -0.0118 -0.0438 -0.0930
 1182ERGO    R216397   8.183   4.887   6.999  0.2350  0.3373 -0.0848
 1182ERGO    R316398   8.049   5.005   7.203 -0.0447  0.0355 -0.0865
 1182ERGO    R416399   8.227   4.811   7.333  0.2961  0.3316 -0.0948
 1182ERGO    R516400   8.011   4.827   7.360  0.2504 -0.0825 -0.1430
 1182ERGO    C116401   8.127   4.878   7.720  0.0691  0.0449 -0.1021
 1182ERGO    C216402   8.325   5.027   8.004  0.2276 -0.3291 -0.1874
 1183ERGO   ROH16403   7.647  13.705   6.828 -0.0207 -0.2252  0.0591
 1183ERGO    R116404   7.560  13.510   7.014  0.0836 -0.0875  0.2565
 1183ERGO    R216405   7.523  13.565   7.282 -0.1573  0.2245  0.1655
 1183ERGO    R316406   7.275  13.465   7.236 -0.0145 -0.1239  0.1247
 1183ERGO    R416407   7.265  13.565   7.511 -0.2714  0.1007  0.0382
 1183ERGO    R516408   7.212  13.365   7.444  0.0093 -0.0266  0.1794
 1183ERGO    C116409   6.881  13.471   7.601 -0.2038 -0.2984 -0.0742
 1183ERGO    C216410   6.737  13.722   7.449 -0.1345  0.5120  0.1853
 1184ERGO   ROH16411   1.437   8.229   5.908 -0.1499 -0.3027 -0.0163
 1184ERGO    R116412   1.480   8.324   6.172 -0.1240 -0.1906 -0.0590
 1184ERGO    R216413   1.437   8.588   6.244 -0.3037 -0.1949 -0.1218
 1184ERGO    R316414   1.278   8.476   6.434 -0.1490 -0.2699 -0.0330
 1184ERGO    R416415   1.346   8.740   6.540 -0.0185 -0.3407  0.0443
 1184ERGO    R516416   1.373   8.549   6.641  0.0459 -0.3943 -0.0785
 1184ERGO    C116417   1.144   8.724   6.891  0.2928 -0.4960  0.2244
 1184ERGO    C216418   0.991   8.719   7.123 -0.1568 -0.0111 -0.4336
 1185ERGO   ROH16419  13.560   5.401   5.893  0.0716 -0.2367 -0.0142
 1185ERGO    R116420  13.628   5.485   6.155  0.0008 -0.0524 -0.0526
 1185ERGO    R216421  13.437   5.535   6.348 -0.0437 -0.1552 -0.0653
 1185ERGO    R316422  13.584   5.357   6.492  0.1417  0.0511  0.0048
 1185ERGO    R416423  13.433   5.509   6.693 -0.1581 -0.1531 -0.0667
 1185ERGO    R516424  13.649   5.479   6.688 -0.1127  0.1468  0.0304
 1185ERGO    C116425  13.567   5.327   7.029 -0.0505  0.0418 -0.0017
 1185ERGO    C216426  13.688   5.405   7.305  0.1230  0.0065 -0.0593
 1186ERGO   ROH16427   5.882  11.861   6.473 -0.2109  0.2836  0.0980
 1186ERGO    R116428   6.110  11.879   6.639 -0.1479  0.2823  0.0116
 1186ERGO    R216429   6.095  11.951   6.905 -0.0634  0.1386  0.0532
 1186ERGO    R316430   6.230  11.718   6.942  0.0424  0.1701 -0.1194
 1186ERGO    R416431   6.319  11.892   7.161 -0.2967 -0.0522  0.2183
 1186ERGO    R516432   6.446  11.787   7.019 -0.0760  0.2155  0.2019
 1186ERGO    C116433   6.577  11.639   7.345 -0.3332 -0.1338  0.1524
 1186ERGO    C216434   6.730  11.357   7.536 -0.2565  0.1925  0.2054
 1187ERGO   ROH16435   0.961  14.275   5.656 -0.1251 -0.1037  0.0846
 1187ERGO    R116436   0.897  14.311   5.930 -0.0508 -0.0217  0.0916
 1187ERGO    R216437   0.952  14.120   6.122 -0.0228  0.0245  0.1302
 1187ERGO    R316438   1.081  14.326   6.244  0.0319  0.0440  0.0406
 1187ERGO    R416439   0.966  14.168   6.464 -0.0058  0.1661  0.1100
 1187ERGO    R516440   0.939  14.382   6.429  0.0487  0.1590  0.0194
 1187ERGO    C116441   1.094  14.390   6.778  0.0555  0.2670  0.0141
 1187ERGO    C216442   1.194  14.294   7.085 -0.0190  0.2931  0.1032
 1188ERGO   ROH16443   2.080  13.665   8.869  0.0557  0.0020 -0.1169
 1188ERGO    R116444   1.975  13.702   8.609  0.1839 -0.0409 -0.1747
 1188ERGO    R216445   2.134  13.698   8.383  0.2596 -0.3376 -0.1173
 1188ERGO    R316446   1.957  13.508   8.302  0.0899 -0.2033 -0.0697
 1188ERGO    R416447   2.082  13.604   8.054  0.0984 -0.2929 -0.1057
 1188ERGO    R516448   1.868  13.594   8.096  0.0978 -0.1299 -0.0454
 1188ERGO    C116449   1.885  13.371   7.787 -0.1547 -0.1409 -0.0543
 1188ERGO    C216450   1.809  13.320   7.401  0.2197  0.1220 -0.1038
 1189ERGO   ROH16451  16.087   4.344   5.969 -0.0619  0.0901  0.2401
 1189ERGO    R116452  15.918   4.183   6.130 -0.0343 -0.0399  0.1399
 1189ERGO    R216453  15.982   4.114   6.390 -0.0964 -0.0612  0.1478
 1189ERGO    R316454  15.738   4.220   6.444 -0.1776 -0.2113  0.0804
 1189ERGO    R416455  15.827   4.107   6.699 -0.0347  0.1079  0.1840
 1189ERGO    R516456  15.639   4.066   6.597 -0.0216 -0.1503  0.2495
 1189ERGO    C116457  15.508   4.201   6.929 -0.0752  0.0655  0.1417
 1189ERGO    C216458  15.389   4.097   7.200 -0.1033 -0.1761 -0.2253
 1190ERGO   ROH16459   0.057  14.513   8.863 -0.1696  0.1457 -0.1737
 1190ERGO    R116460   0.088  14.511   8.582 -0.2428  0.1043 -0.1826
 1190ERGO    R216461   0.296  14.379   8.456 -0.0242  0.4379 -0.1941
 1190ERGO    R316462   0.094  14.261   8.318  0.1489  0.0126 -0.0920
 1190ERGO    R416463   0.279  14.356   8.112 -0.1698  0.4421 -0.1869
 1190ERGO    R516464   0.066  14.398   8.124 -0.2610 -0.0224 -0.0625
 1190ERGO    C116465   0.080  14.231   7.781 -0.0921  0.0452 -0.0869
 1190ERGO    C216466   0.093  14.131   7.309 -0.1735  0.2749  0.0939
 1191ERGO   ROH16467  15.458  19.161   6.000  0.2633 -0.3028  0.1131
 1191ERGO    R116468  15.357  18.926   6.119  0.0027 -0.2501  0.0050
 1191ERGO    R216469  15.332  18.897   6.393 -0.0119 -0.3562 -0.0025
 1191ERGO    R316470  15.074  18.837   6.330 -0.0864 -0.0292 -0.0209
 1191ERGO    R416471  15.099  18.769   6.614 -0.1225 -0.3018 -0.0875
 1191ERGO    R516472  15.027  18.638   6.455 -0.2836 -0.0875 -0.1889
 1191ERGO    C116473  14.722  18.638   6.685 -0.2566  0.0368 -0.1544
 1191ERGO    C216474  14.495  18.651   6.910 -0.0448  0.1840 -0.0607
 1192ERGO   ROH16475  16.348  15.135   5.639 -0.2589 -0.0424 -0.0668
 1192ERGO    R116476  16.239  15.314   5.829 -0.0782  0.1372 -0.1287
 1192ERGO    R216477  16.231  15.257   6.100 -0.3538  0.1303 -0.1347
 1192ERGO    R316478  16.360  15.495   6.120  0.0487 -0.0868 -0.0392
 1192ERGO    R416479  16.292  15.424   6.396 -0.4263  0.0930 -0.0991
 1192ERGO    R516480  16.244  15.611   6.295  0.0289  0.1617 -0.2108
 1192ERGO    C116481  16.449  15.745   6.588 -0.0905 -0.1322  0.0113
 1192ERGO    C216482  16.418  15.898   6.926  0.2101 -0.1721 -0.2786
 1193ERGO   ROH16483   3.489   9.688   5.605  0.0390 -0.2216 -0.0722
 1193ERGO    R116484   3.237   9.664   5.733  0.1053 -0.4700  0.0157
 1193ERGO    R216485   3.203   9.521   5.966  0.4699  0.0083  0.3813
 1193ERGO    R316486   3.096   9.754   6.056 -0.0397  0.0141 -0.1722
 1193ERGO    R416487   2.978   9.546   6.228  0.5926  0.1416  0.4762
 1193ERGO    R516488   2.870   9.698   6.113  0.1248 -0.4101  0.1274
 1193ERGO    C116489   2.747   9.781   6.464  0.1856  0.2245  0.0118
 1193ERGO    C216490   2.637   9.980   6.731  0.0446  0.0005 -0.2084
 1194ERGO   ROH16491   0.162  12.358   5.650 -0.0818 -0.0568  0.0603
 1194ERGO    R116492   0.088  12.123   5.790  0.0421 -0.1924 -0.0980
 1194ERGO    R216493   0.274  11.945   5.891  0.1484  0.0252  0.0959
 1194ERGO    R316494   0.139  11.987   6.123 -0.2128 -0.2095 -0.0643
 1194ERGO    R416495   0.339  11.783   6.189  0.2089  0.2721  0.2198
 1194ERGO    R516496   0.124  11.769   6.223  0.1889 -0.2216 -0.0151
 1194ERGO    C116497   0.250  11.727   6.581 -0.0950  0.1956  0.1416
 1194ERGO    C216498   0.327  11.593   6.867 -0.4069  0.2715 -0.2664
 1195ERGO   ROH16499   0.277   3.325   9.094 -0.0106  0.1221  0.1299
 1195ERGO    R116500   0.365   3.516   8.904  0.1174  0.0092  0.0731
 1195ERGO    R216501   0.424   3.449   8.642 -0.0109 -0.0920  0.0633
 1195ERGO    R316502   0.247   3.648   8.586  0.1529  0.0609  0.0830
 1195ERGO    R416503   0.336   3.551   8.324 -0.0993 -0.1324  0.0754
 1195ERGO    R516504   0.339   3.757   8.395  0.1461 -0.1092 -0.0139
 1195ERGO    C116505   0.118   3.796   8.086  0.0030 -0.0123  0.1011
 1195ERGO    C216506   0.172   3.930   7.643  0.2583 -0.1305 -0.2219
 1196ERGO   ROH16507  11.951  15.651   5.722 -0.2677  0.0269  0.0974
 1196ERGO    R116508  11.960  15.558   5.989 -0.0828 -0.1353  0.0350
 1196ERGO    R216509  12.176  15.419   6.091  0.1577  0.1567 -0.0845
 1196ERGO    R316510  12.169  15.613   6.281 -0.1407  0.0184  0.0500
 1196ERGO    R416511  12.295  15.383   6.413  0.5119  0.1982 -0.2044
 1196ERGO    R516512  12.122  15.495   6.484  0.2952 -0.2454  0.0153
 1196ERGO    C116513  12.357  15.544   6.780  0.4379  0.0926 -0.1481
 1196ERGO    C216514  12.669  15.610   6.942 -0.3930 -0.0675 -0.0476
 1197ERGO   ROH16515   9.529   8.627   9.562  0.1361 -0.2129  0.1057
 1197ERGO    R116516   9.667   8.706   9.328 -0.1124  0.1084  0.0615
 1197ERGO    R216517   9.743   8.526   9.134  0.3791  0.2492  0.1175
 1197ERGO    R316518   9.607   8.694   8.969 -0.1341 -0.1846  0.0708
 1197ERGO    R416519   9.788   8.544   8.791  0.6980  0.5980  0.1695
 1197ERGO    R516520   9.770   8.762   8.806 -0.1898  0.5599  0.2815
 1197ERGO    C116521   9.685   8.712   8.437  0.4020  0.3939  0.1560
 1197ERGO    C216522   9.620   8.832   8.174 -0.2825  0.0775 -0.2299
 1198ERGO   ROH16523  17.104   0.887   8.681 -0.1250 -0.3291  0.1137
 1198ERGO    R116524  17.074   0.784   8.420 -0.0210 -0.1365  0.0241
 1198ERGO    R216525  16.841   0.813   8.274 -0.1010 -0.3625  0.1093
 1198ERGO    R316526  17.009   0.918   8.088 -0.3040  0.0725  0.1586
 1198ERGO    R416527  16.802   0.777   7.933  0.1462 -0.5769  0.1005
 1198ERGO    R516528  17.019   0.750   7.917  0.2511  0.0344  0.2066
 1198ERGO    C116529  16.937   0.854   7.559  0.0998 -0.2934  0.1416
 1198ERGO    C216530  16.995   0.673   7.298  0.0244  0.3204 -0.1729
 1199ERGO   ROH16531  15.291   1.204   5.266  0.2209 -0.1010  0.0778
 1199ERGO    R116532  15.295   1.094   5.526  0.1038 -0.3695 -0.0289
 1199ERGO    R216533  15.459   0.883   5.596  0.2024 -0.3354 -0.1268
 1199ERGO    R316534  15.540   1.052   5.792 -0.0594 -0.4715  0.1048
 1199ERGO    R416535  15.708   0.813   5.826  0.3082 -0.2540 -0.2164
 1199ERGO    R516536  15.585   0.909   5.979  0.1603 -0.6500 -0.0869
 1199ERGO    C116537  15.929   0.932   6.144  0.1240 -0.3344 -0.0513
 1199ERGO    C216538  16.278   1.014   6.043 -0.0697 -0.0960  0.1333
 1200ERGO   ROH16539  15.385  15.013   5.369 -0.0132  0.2337 -0.0395
 1200ERGO    R116540  15.412  15.025   5.651  0.0319  0.2408 -0.0443
 1200ERGO    R216541  15.308  15.233   5.801 -0.0607  0.1764 -0.0190
 1200ERGO    R316542  15.189  15.030   5.938  0.0819  0.1020 -0.0025
 1200ERGO    R416543  15.176  15.261   6.119  0.1080  0.0521  0.0641
 1200ERGO    R516544  15.258  15.064   6.165  0.1987  0.0661 -0.0316
 1200ERGO    C116545  14.987  15.088   6.433  0.3399 -0.0902  0.1281
 1200ERGO    C216546  14.839  15.260   6.723 -0.0231 -0.0464  0.0989
 1201ERGO   ROH16547   9.753   7.910   6.062  0.2264  0.0660 -0.2043
 1201ERGO    R116548   9.803   7.896   6.340 -0.0086 -0.0795 -0.1656
 1201ERGO    R216549  10.024   8.012   6.457  0.0463 -0.3752  0.0478
 1201ERGO    R316550   9.838   8.132   6.615  0.0575 -0.2002 -0.0715
 1201ERGO    R416551  10.066   8.085   6.793 -0.1451 -0.5018  0.1001
 1201ERGO    R516552   9.860   8.023   6.827 -0.2406 -0.2730 -0.0791
 1201ERGO    C116553   9.916   8.240   7.136 -0.2459 -0.4113  0.0186
 1201ERGO    C216554   9.851   8.391   7.402 -0.1983  0.2142 -0.0294
 1202ERGO   ROH16555  10.813  11.324   5.859  0.0200 -0.0651  0.0116
 1202ERGO    R116556  11.017  11.399   6.041 -0.1419  0.0412  0.1536
 1202ERGO    R216557  11.269  11.476   5.958  0.0175 -0.2629  0.3321
 1202ERGO    R316558  11.215  11.697   6.107 -0.0092  0.0012 -0.0377
 1202ERGO    R416559  11.507  11.691   6.088  0.0134 -0.1519  0.1583
 1202ERGO    R516560  11.389  11.703   6.270 -0.1121  0.1788  0.0775
 1202ERGO    C116561  11.595  12.023   6.303 -0.0139  0.1606 -0.2901
 1202ERGO    C216562  11.806  12.225   6.404  0.0607 -0.0031  0.1399
 1203ERGO   ROH16563   3.255  17.863   6.051 -0.1496  0.2627 -0.1282
 1203ERGO    R116564   3.322  17.808   6.321 -0.0818  0.1269 -0.1725
 1203ERGO    R216565   3.457  17.989   6.480 -0.1383  0.0880 -0.0861
 1203ERGO    R316566   3.246  17.951   6.647 -0.0922 -0.1083 -0.0685
 1203ERGO    R416567   3.438  18.107   6.805 -0.1673 -0.0191 -0.0483
 1203ERGO    R516568   3.345  17.918   6.862 -0.0331 -0.1059 -0.0910
 1203ERGO    C116569   3.228  18.140   7.150 -0.1410 -0.2653 -0.0098
 1203ERGO    C216570   3.130  18.425   7.371  0.1115 -0.1034 -0.1779
 1204ERGO   ROH16571   5.655  18.578   6.053  0.0553 -0.3692  0.0927
 1204ERGO    R116572   5.525  18.528   6.300 -0.0710 -0.2344  0.0580
 1204ERGO    R216573   5.518  18.714   6.505  0.1590 -0.2468  0.0952
 1204ERGO    R316574   5.250  18.674   6.487  0.0898  0.1372  0.0155
 1204ERGO    R416575   5.302  18.698   6.774  0.1065 -0.2977  0.0480
 1204ERGO    R516576   5.197  18.535   6.674 -0.1154 -0.0376 -0.1688
 1204ERGO    C116577   4.924  18.651   6.914  0.0110  0.0331 -0.0543
 1204ERGO    C216578   4.680  18.762   7.086 -0.3427  0.3887  0.4385
 1205ERGO   ROH16579   2.809   7.866   6.273 -0.0158 -0.0386 -0.0416
 1205ERGO    R116580   2.882   7.906   6.543 -0.1984 -0.1451  0.0259
 1205ERGO    R216581   2.902   8.157   6.657  0.0317 -0.1657  0.0526
 1205ERGO    R316582   2.729   8.053   6.839 -0.2722  0.0442 -0.1071
 1205ERGO    R416583   2.906   8.226   6.995 -0.0662 -0.3573  0.0937
 1205ERGO    R516584   2.863   8.016   7.034 -0.4651 -0.2994 -0.0387
 1205ERGO    C116585   2.747   8.168   7.364 -0.4084 -0.2719 -0.0323
 1205ERGO    C216586   2.817   8.155   7.782  0.1925  0.0743  0.1388
 1206ERGO   ROH16587  17.877   8.565   5.546  0.2393  0.2129 -0.0253
 1206ERGO    R116588  17.872   8.463   5.810  0.0583  0.2170 -0.0256
 1206ERGO    R216589  18.088   8.332   5.922 -0.0653  0.0991  0.0784
 1206ERGO    R316590  18.058   8.518   6.118 -0.0564  0.1183  0.0620
 1206ERGO    R416591  18.228   8.312   6.238 -0.1943  0.0476  0.1335
 1206ERGO    R516592  18.043   8.390   6.320 -0.1901  0.1323  0.0606
 1206ERGO    C116593  18.282   8.475   6.605 -0.2611  0.0355  0.1502
 1206ERGO    C216594  18.506   8.636   6.820 -0.1745  0.0169  0.1572
 1207ERGO   ROH16595   3.402   1.125   6.328  0.2689 -0.2077 -0.2884
 1207ERGO    R116596   3.550   1.016   6.543  0.0650 -0.0812 -0.0793
 1207ERGO    R216597   3.577   1.145   6.786 -0.2930 -0.0066 -0.0744
 1207ERGO    R316598   3.481   0.910   6.884 -0.2971 -0.0293 -0.1323
 1207ERGO    R416599   3.567   1.060   7.121 -0.0535 -0.1934 -0.1116
 1207ERGO    R516600   3.628   0.858   7.067 -0.1673 -0.1856 -0.2768
 1207ERGO    C116601   3.472   0.791   7.409  0.0820 -0.3234 -0.1876
 1207ERGO    C216602   3.409   0.859   7.720 -0.4090 -0.1863 -0.1670
 1208ERGO   ROH16603   4.712   1.801   6.384 -0.2971  0.0605  0.1019
 1208ERGO    R116604   4.586   1.890   6.622 -0.2216 -0.0751  0.1939
 1208ERGO    R216605   4.674   1.815   6.873 -0.0294 -0.0758  0.1286
 1208ERGO    R316606   4.682   2.084   6.915 -0.1816 -0.0785  0.1832
 1208ERGO    R416607   4.667   1.967   7.184 -0.1122 -0.1428  0.1598
 1208ERGO    R516608   4.535   2.120   7.101 -0.2006 -0.2002  0.1925
 1208ERGO    C116609   4.671   2.307   7.404 -0.3034 -0.1844  0.2293
 1208ERGO    C216610   4.782   2.331   7.618  0.2870 -0.1062 -0.2226
 1209ERGO   ROH16611  10.609   4.489   5.805 -0.0864  0.1091  0.0179
 1209ERGO    R116612  10.451   4.328   5.976 -0.0671 -0.0741 -0.1333
 1209ERGO    R216613  10.528   4.076   6.056  0.1715  0.0304 -0.0246
 1209ERGO    R316614  10.487   4.177   6.305 -0.2235  0.0101 -0.0768
 1209ERGO    R416615  10.574   3.901   6.351  0.1325  0.1412  0.0474
 1209ERGO    R516616  10.394   3.995   6.429 -0.0839 -0.1075 -0.1446
 1209ERGO    C116617  10.562   3.895   6.756 -0.2611  0.1867  0.0402
 1209ERGO    C216618  10.581   3.877   7.143  0.3635  0.2038 -0.1262
 1210ERGO   ROH16619   7.631  16.038   5.881 -0.0966  0.2895  0.0224
 1210ERGO    R116620   7.660  16.089   6.158 -0.0495  0.2104  0.0316
 1210ERGO    R216621   7.888  16.022   6.299 -0.0943  0.0144  0.0080
 1210ERGO    R316622   7.883  16.284   6.369  0.1010  0.0050  0.0676
 1210ERGO    R416623   7.965  16.144   6.613 -0.0566 -0.1209  0.0530
 1210ERGO    R516624   7.799  16.285   6.593  0.0560  0.0175  0.0527
 1210ERGO    C116625   8.004  16.462   6.862  0.1487 -0.2084  0.1351
 1210ERGO    C216626   8.237  16.588   7.008 -0.1557  0.0125 -0.2157
 1211ERGO   ROH16627   7.692   3.490   5.946 -0.1120 -0.0937 -0.0232
 1211ERGO    R116628   7.554   3.476   6.193 -0.0868  0.0214 -0.0022
 1211ERGO    R216629   7.650   3.333   6.409 -0.1474 -0.0168 -0.0024
 1211ERGO    R316630   7.619   3.571   6.538  0.0219  0.0174 -0.0207
 1211ERGO    R416631   7.797   3.415   6.711 -0.1797 -0.1455  0.0492
 1211ERGO    R516632   7.611   3.512   6.770 -0.1163  0.0275 -0.0206
 1211ERGO    C116633   7.853   3.685   7.008 -0.0396 -0.1884  0.0621
 1211ERGO    C216634   8.152   3.688   7.145 -0.2892  0.1998 -0.0137
 1212ERGO   ROH16635   4.074  10.078   5.500 -0.0167  0.0311  0.1107
 1212ERGO    R116636   3.871   9.947   5.648 -0.1950  0.1407 -0.0320
 1212ERGO    R216637   3.904   9.874   5.913 -0.2447 -0.2886 -0.1364
 1212ERGO    R316638   3.675  10.017   5.946 -0.0155  0.0382  0.1126
 1212ERGO    R416639   3.698   9.856   6.190 -0.2006 -0.3325 -0.1061
 1212ERGO    R516640   3.526   9.866   6.057 -0.2282  0.1209 -0.0539
 1212ERGO    C116641   3.363   9.979   6.383  0.0403 -0.0513  0.1454
 1212ERGO    C216642   3.169   9.957   6.741 -0.2385 -0.2136  0.0956
 1213ERGO   ROH16643  17.116  13.332   5.797 -0.0143  0.1182  0.0062
 1213ERGO    R116644  17.142  13.302   6.078 -0.0800  0.0127  0.0015
 1213ERGO    R216645  17.328  13.133   6.193 -0.0738  0.0078 -0.0190
 1213ERGO    R316646  17.402  13.357   6.326 -0.1559 -0.0296  0.0916
 1213ERGO    R416647  17.419  13.143   6.526  0.1266 -0.1650 -0.0665
 1213ERGO    R516648  17.309  13.330   6.545 -0.0018 -0.2556  0.1345
 1213ERGO    C116649  17.543  13.360   6.845  0.1661 -0.3007  0.0097
 1213ERGO    C216650  17.713  13.351   7.175 -0.1782  0.0914 -0.0577
 1214ERGO   ROH16651  13.344   4.462   6.172 -0.0779 -0.2957  0.0744
 1214ERGO    R116652  13.395   4.329   6.416 -0.0613 -0.1118  0.1726
 1214ERGO    R216653  13.249   4.377   6.646 -0.2190 -0.1276  0.0766
 1214ERGO    R316654  13.213   4.107   6.640  0.0490 -0.1703  0.2046
 1214ERGO    R416655  13.127   4.188   6.908 -0.1197 -0.1142  0.1345
 1214ERGO    R516656  13.273   4.034   6.860  0.0501  0.0034  0.2641
 1214ERGO    C116657  13.021   3.825   7.055  0.1899 -0.1464  0.2884
 1214ERGO    C216658  12.923   3.755   7.310 -0.1365  0.3237  0.0682
 1215ERGO   ROH16659   3.716   6.364   6.167  0.1545  0.2052  0.0706
 1215ERGO    R116660   3.749   6.361   6.448  0.1072  0.0633  0.0769
 1215ERGO    R216661   3.540   6.408   6.622  0.1472  0.3638  0.0618
 1215ERGO    R316662   3.617   6.170   6.729 -0.2670  0.1918 -0.0087
 1215ERGO    R416663   3.523   6.330   6.958  0.3815  0.4320  0.0914
 1215ERGO    R516664   3.717   6.230   6.939  0.1323 -0.0181 -0.1364
 1215ERGO    C116665   3.584   6.060   7.254  0.1290  0.3102  0.0425
 1215ERGO    C216666   3.588   5.982   7.599  0.0414 -0.1970 -0.1787
 1216ERGO   ROH16667  18.774   0.067   8.695 -0.1304  0.1953  0.1331
 1216ERGO    R116668  18.725   0.219   8.461 -0.0703  0.0884  0.0505
 1216ERGO    R216669  18.910   0.242   8.258 -0.0215 -0.0115  0.0836
 1216ERGO    R316670  18.704   0.154   8.104  0.0132 -0.0765  0.0743
 1216ERGO    R416671  18.905   0.254   7.913  0.0099 -0.0527  0.0817
 1216ERGO    R516672  18.694   0.312   7.923 -0.0051 -0.0991  0.0548
 1216ERGO    C116673  18.709   0.177   7.566  0.0610 -0.1377  0.0718
 1216ERGO    C216674  18.648   0.159   7.283  0.3203  0.1732 -0.0010
 1217ERGO   ROH16675   4.615   0.250   6.147 -0.0034 -0.0672  0.2087
 1217ERGO    R116676   4.755   0.016   6.221 -0.0277 -0.1201  0.0891
 1217ERGO    R216677   4.746  -0.089   6.477  0.0497 -0.1876  0.0631
 1217ERGO    R316678   4.669  -0.315   6.347 -0.0525 -0.1358  0.0325
 1217ERGO    R416679   4.722  -0.402   6.622 -0.0619 -0.2019  0.0151
 1217ERGO    R516680   4.808  -0.487   6.440 -0.1118 -0.2064 -0.0072
 1217ERGO    C116681   4.637  -0.796   6.584 -0.2228 -0.1616 -0.0415
 1217ERGO    C216682   4.691  -1.197   6.667 -0.0191  0.2106  0.4612
 1218ERGO   ROH16683   4.520  12.031   5.745  0.0148  0.1245 -0.0062
 1218ERGO    R116684   4.508  11.813   5.924  0.0659  0.0997 -0.0317
 1218ERGO    R216685   4.710  11.755   6.103  0.1191  0.0732 -0.0965
 1218ERGO    R316686   4.509  11.767   6.286  0.1710  0.0520 -0.0383
 1218ERGO    R416687   4.733  11.645   6.430  0.2093  0.0366 -0.1154
 1218ERGO    R516688   4.531  11.565   6.412  0.2059  0.0392 -0.0673
 1218ERGO    C116689   4.557  11.592   6.791  0.3106 -0.0048 -0.0719
 1218ERGO    C216690   4.348  11.567   7.171  0.1576  0.3833  0.0267
 1219ERGO   ROH16691  12.107   7.819   6.153  0.1924  0.1573  0.0245
 1219ERGO    R116692  12.286   7.882   6.363  0.0850  0.3409  0.0637
 1219ERGO    R216693  12.205   8.011   6.594 -0.1445  0.0611  0.1461
 1219ERGO    R316694  12.321   7.797   6.715  0.2294  0.1807  0.0123
 1219ERGO    R416695  12.345   8.015   6.910 -0.2037  0.1020  0.1711
 1219ERGO    R516696  12.506   7.890   6.834  0.0451  0.4450  0.1054
 1219ERGO    C116697  12.535   7.816   7.208  0.1128  0.2381  0.0600
 1219ERGO    C216698  12.776   7.709   7.512 -0.0967 -0.3140  0.3223
 1220ERGO   ROH16699  13.561  15.151   5.620 -0.0354  0.0240  0.0471
 1220ERGO    R116700  13.670  15.046   5.859  0.0441 -0.0588 -0.0235
 1220ERGO    R216701  13.806  15.204   6.042  0.1436 -0.1272 -0.0308
 1220ERGO    R316702  13.625  15.101   6.216  0.1925 -0.1460  0.0080
 1220ERGO    R416703  13.854  15.175   6.383  0.0609  0.2346  0.0146
 1220ERGO    R516704  13.757  14.980   6.375  0.2591  0.1323  0.1644
 1220ERGO    C116705  13.712  15.062   6.745  0.0585  0.4276  0.0775
 1220ERGO    C216706  13.689  14.869   7.039 -0.1196 -0.1108  0.4330
 1221ERGO   ROH16707   8.194   4.782   6.397  0.1132  0.2128  0.1599
 1221ERGO    R116708   8.307   4.675   6.633  0.1640  0.2177  0.1385
 1221ERGO    R216709   8.344   4.403   6.670 -0.2718  0.1720  0.3280
 1221ERGO    R316710   8.601   4.478   6.719 -0.0830 -0.2222  0.0003
 1221ERGO    R416711   8.579   4.209   6.834 -0.3975 -0.1164  0.1734
 1221ERGO    R516712   8.649   4.388   6.936  0.0150 -0.1717 -0.0045
 1221ERGO    C116713   8.956   4.166   6.975 -0.2934 -0.6544 -0.2243
 1221ERGO    C216714   9.120   3.968   7.236  0.3382 -0.0905 -0.1061
 1222ERGO   ROH16715  11.195  12.537   5.931 -0.2008 -0.1332 -0.0196
 1222ERGO    R116716  11.352  12.494   6.162 -0.2618 -0.0902  0.0286
 1222ERGO    R216717  11.607  12.596   6.189 -0.2229 -0.2066  0.0091
 1222ERGO    R316718  11.507  12.702   6.418 -0.1979 -0.0310 -0.0498
 1222ERGO    R416719  11.793  12.767   6.426 -0.1034 -0.3241  0.0028
 1222ERGO    R516720  11.679  12.664   6.581 -0.2691 -0.1704  0.0131
 1222ERGO    C116721  11.806  12.964   6.779 -0.0106 -0.2275 -0.0562
 1222ERGO    C216722  12.079  13.059   6.966  0.0198  0.2817  0.3772
 1223ERGO   ROH16723   4.986   1.138   9.681 -0.0942  0.1672  0.0121
 1223ERGO    R116724   5.098   1.277   9.462 -0.1327  0.1745 -0.0031
 1223ERGO    R216725   5.310   1.178   9.316 -0.0882  0.2309  0.0263
 1223ERGO    R316726   5.143   1.217   9.106 -0.0883  0.1360  0.0081
 1223ERGO    R416727   5.405   1.170   8.983 -0.0643  0.1629  0.0348
 1223ERGO    R516728   5.273   1.340   8.947 -0.1046  0.1256 -0.0172
 1223ERGO    C116729   5.302   1.202   8.592 -0.0505  0.0342  0.0225
 1223ERGO    C216730   5.412   0.988   8.221 -0.4114 -0.0795 -0.2373
 1224ERGO   ROH16731   8.228  14.517   6.174  0.0230  0.0236  0.0488
 1224ERGO    R116732   8.249  14.753   6.330  0.0027  0.0051  0.0797
 1224ERGO    R216733   8.079  14.806   6.541  0.0960 -0.1105  0.1859
 1224ERGO    R316734   8.311  14.834   6.679  0.1618 -0.0294  0.0600
 1224ERGO    R416735   8.102  14.916   6.868  0.2287 -0.1449  0.1882
 1224ERGO    R516736   8.279  15.031   6.811  0.1489 -0.0607  0.1045
 1224ERGO    C116737   8.334  15.006   7.188  0.3679 -0.0885  0.0714
 1224ERGO    C216738   8.239  14.863   7.520 -0.1438  0.2548  0.2625
 1225ERGO   ROH16739   0.473  17.569   5.520  0.1441 -0.1473  0.0338
 1225ERGO    R116740   0.437  17.536   5.799  0.2696 -0.2812  0.0349
 1225ERGO    R216741   0.193  17.473   5.911  0.2080  0.1364  0.1505
 1225ERGO    R316742   0.333  17.269   6.022 -0.1281 -0.2442 -0.0976
 1225ERGO    R416743   0.115  17.321   6.212  0.2243  0.2256  0.2005
 1225ERGO    R516744   0.328  17.315   6.258  0.2822 -0.2994 -0.0707
 1225ERGO    C116745   0.201  17.041   6.491 -0.0817 -0.0800 -0.0034
 1225ERGO    C216746  -0.081  16.774   6.725  0.2234 -0.2341 -0.0947
 1226ERGO   ROH16747  17.539   9.296   5.597 -0.1461 -0.1355 -0.0280
 1226ERGO    R116748  17.639   9.445   5.816 -0.0795 -0.0723 -0.1019
 1226ERGO    R216749  17.621   9.720   5.830 -0.1777 -0.0790 -0.1255
 1226ERGO    R316750  17.503   9.668   6.069 -0.0234 -0.0961 -0.0503
 1226ERGO    R416751  17.623   9.933   6.102 -0.3082  0.0573 -0.2286
 1226ERGO    R516752  17.653   9.761   6.231 -0.0605  0.1527 -0.1540
 1226ERGO    C116753  17.513  10.009   6.484 -0.2395  0.1205 -0.2179
 1226ERGO    C216754  17.355  10.304   6.659 -0.2530 -0.0284  0.0006
 1227ERGO   ROH16755  15.772   2.243   6.119 -0.0721  0.0830 -0.0401
 1227ERGO    R116756  15.617   2.258   6.356 -0.1131  0.0663 -0.0652
 1227ERGO    R216757  15.730   2.290   6.606 -0.1477 -0.0764 -0.0290
 1227ERGO    R316758  15.561   2.502   6.620 -0.0540 -0.0041  0.0124
 1227ERGO    R416759  15.622   2.436   6.899 -0.1938 -0.1753  0.0033
 1227ERGO    R516760  15.423   2.455   6.811 -0.1503 -0.0374 -0.0652
 1227ERGO    C116761  15.399   2.721   7.084 -0.1327 -0.1651  0.0609
 1227ERGO    C216762  15.239   2.948   7.291  0.1336  0.2760  0.2705
 1228ERGO   ROH16763   6.010   7.220   6.677  0.0622  0.1353 -0.0715
 1228ERGO    R116764   5.846   7.098   6.873  0.0548 -0.0102 -0.1679
 1228ERGO    R216765   5.795   7.215   7.118  0.1093 -0.2275 -0.0541
 1228ERGO    R316766   5.535   7.177   7.045  0.0907 -0.0993 -0.0584
 1228ERGO    R416767   5.529   7.199   7.338  0.1051 -0.1216 -0.0501
 1228ERGO    R516768   5.445   7.037   7.217  0.0277 -0.0749 -0.0672
 1228ERGO    C116769   5.130   7.154   7.398  0.0853  0.0605 -0.0520
 1228ERGO    C216770   4.905   7.120   7.633 -0.1521  0.0130  0.1012
 1229ERGO   ROH16771  10.385   2.521   6.069 -0.1339  0.0863 -0.1490
 1229ERGO    R116772  10.289   2.474   6.332 -0.0053 -0.0455 -0.1256
 1229ERGO    R216773  10.385   2.270   6.491  0.3337  0.1014 -0.1435
 1229ERGO    R316774  10.429   2.471   6.668  0.0778  0.1728 -0.1539
 1229ERGO    R416775  10.359   2.240   6.834  0.4744  0.0399 -0.1365
 1229ERGO    R516776  10.265   2.437   6.839  0.1676 -0.0911 -0.1069
 1229ERGO    C116777  10.386   2.412   7.200  0.3161  0.0711 -0.1421
 1229ERGO    C216778  10.552   2.299   7.447 -0.0392  0.1568  0.0476
 1230ERGO   ROH16779   8.526   4.471   6.272  0.0988  0.0373 -0.0787
 1230ERGO    R116780   8.703   4.264   6.347  0.0707 -0.0225 -0.1738
 1230ERGO    R216781   8.968   4.259   6.268  0.1367  0.1087  0.0256
 1230ERGO    R316782   9.014   4.237   6.535 -0.0717 -0.1854  0.0411
 1230ERGO    R416783   9.188   4.035   6.413  0.1343  0.0523 -0.0580
 1230ERGO    R516784   9.041   4.002   6.572  0.0213 -0.2152 -0.2151
 1230ERGO    C116785   9.358   3.883   6.749 -0.0627 -0.2566 -0.0920
 1230ERGO    C216786   9.584   3.707   7.082 -0.0152  0.0399  0.0198
 1231ERGO   ROH16787  18.638  13.355   5.837  0.0941  0.0756 -0.1551
 1231ERGO    R116788  18.785  13.528   6.007  0.1196  0.1232 -0.2235
 1231ERGO    R216789  18.710  13.790   6.053 -0.0279  0.0584 -0.0898
 1231ERGO    R316790  18.723  13.713   6.314  0.2401 -0.0142 -0.1087
 1231ERGO    R416791  18.811  13.994   6.313 -0.1176  0.1232 -0.1072
 1231ERGO    R516792  18.919  13.824   6.398  0.1696  0.2194 -0.2172
 1231ERGO    C116793  18.882  14.041   6.709  0.0817  0.0927 -0.1350
 1231ERGO    C216794  18.997  14.103   6.883 -0.0185  0.1253 -0.0388
 1232ERGO   ROH16795   0.652  10.103   6.735  0.1274 -0.3114 -0.0904
 1232ERGO    R116796   0.564  10.023   6.478  0.1131 -0.0783 -0.1590
 1232ERGO    R216797   0.297  10.010   6.408  0.1169 -0.0241 -0.1481
 1232ERGO    R316798   0.376  10.171   6.204  0.0880  0.1640 -0.0169
 1232ERGO    R416799   0.095  10.115   6.148  0.0715  0.1896 -0.0314
 1232ERGO    R516800   0.262  10.085   6.012  0.0660  0.3173 -0.0824
 1232ERGO    C116801   0.051  10.327   5.805  0.0180  0.4907  0.1597
 1232ERGO    C216802   0.028  10.654   5.503  0.0260 -0.0387  0.4441
 1233ERGO   ROH16803   8.207   8.264   6.373 -0.0239 -0.0042 -0.0204
 1233ERGO    R116804   8.157   8.174   6.637  0.1101 -0.0727 -0.0181
 1233ERGO    R216805   8.361   8.118   6.816  0.1980  0.2244 -0.0227
 1233ERGO    R316806   8.226   8.294   6.973 -0.0555  0.0349 -0.0207
 1233ERGO    R416807   8.356   8.112   7.161  0.1291  0.1544 -0.0244
 1233ERGO    R516808   8.145   8.162   7.155  0.0638 -0.1020 -0.0626
 1233ERGO    C116809   8.227   8.273   7.510 -0.1491 -0.0643 -0.0234
 1233ERGO    C216810   8.346   8.122   7.728  0.0363  0.1937 -0.0289
 1234ERGO   ROH16811  16.715  15.549   8.478  0.0663  0.1540 -0.1853
 1234ERGO    R116812  16.643  15.424   8.234  0.0790  0.0299 -0.1260
 1234ERGO    R216813  16.746  15.502   7.991 -0.0205  0.0039 -0.1778
 1234ERGO    R316814  16.814  15.239   7.971  0.1207  0.0338 -0.1017
 1234ERGO    R416815  16.850  15.347   7.700 -0.1383 -0.0689 -0.1814
 1234ERGO    R516816  16.730  15.173   7.756  0.0038 -0.1155 -0.0126
 1234ERGO    C116817  16.974  15.010   7.512 -0.0743 -0.0832 -0.1120
 1234ERGO    C216818  17.251  15.149   7.336 -0.0421  0.1084 -0.0091
 1235ERGO   ROH16819  14.314  19.276   8.833 -0.0813 -0.0407  0.0282
 1235ERGO    R116820  14.471  19.214   8.606 -0.0911 -0.1862  0.0601
 1235ERGO    R216821  14.375  19.063   8.395 -0.2005 -0.0673  0.0216
 1235ERGO    R316822  14.456  19.277   8.248  0.0602 -0.1355  0.0624
 1235ERGO    R416823  14.350  19.088   8.051 -0.0703 -0.0124  0.0157
 1235ERGO    R516824  14.547  19.181   8.048  0.0253 -0.2099  0.0833
 1235ERGO    C116825  14.411  19.303   7.713  0.2504 -0.0445  0.0506
 1235ERGO    C216826  14.352  19.362   7.486 -0.1305 -0.1529 -0.0924
 1236ERGO   ROH16827   7.206   4.466   6.385  0.3888  0.0190 -0.1074
 1236ERGO    R116828   7.335   4.488   6.637  0.3268 -0.1803 -0.0550
 1236ERGO    R216829   7.224   4.626   6.849  0.4598  0.0113 -0.0978
 1236ERGO    R316830   7.262   4.391   6.980  0.0262 -0.0557 -0.0831
 1236ERGO    R416831   7.254   4.592   7.192  0.2918 -0.0517 -0.0902
 1236ERGO    R516832   7.410   4.445   7.159  0.0561 -0.3109 -0.0356
 1236ERGO    C116833   7.306   4.351   7.514 -0.2131 -0.1512 -0.0719
 1236ERGO    C216834   7.229   3.983   7.735  0.0948 -0.3912 -0.1468
 1237ERGO   ROH16835   8.930  11.981   6.026 -0.0583 -0.1783  0.1364
 1237ERGO    R116836   9.006  12.044   6.291  0.0383  0.0043  0.0669
 1237ERGO    R216837   8.956  12.290   6.406  0.0034  0.0546 -0.0556
 1237ERGO    R316838   8.838  12.140   6.599  0.1417  0.1254  0.0869
 1237ERGO    R416839   8.928  12.382   6.738  0.1755  0.2130 -0.0828
 1237ERGO    R516840   8.972  12.176   6.794  0.2467  0.2479 -0.0062
 1237ERGO    C116841   8.800  12.293   7.113  0.4053  0.3717  0.0352
 1237ERGO    C216842   8.758  12.233   7.465 -0.0379 -0.1084 -0.1964
 1238ERGO   ROH16843   4.644   6.039   6.559 -0.1012 -0.0242  0.1259
 1238ERGO    R116844   4.683   5.900   6.802  0.1091 -0.2743 -0.0464
 1238ERGO    R216845   4.871   5.699   6.831  0.4940  0.0436 -0.2724
 1238ERGO    R316846   4.955   5.852   7.039  0.1512 -0.0612 -0.0500
 1238ERGO    R416847   5.022   5.579   7.117  0.4856 -0.0599 -0.3102
 1238ERGO    R516848   4.906   5.721   7.233  0.2107 -0.3455 -0.2208
 1238ERGO    C116849   5.189   5.652   7.479  0.1589 -0.2186 -0.1235
 1238ERGO    C216850   5.383   5.763   7.818 -0.1193 -0.1539  0.0699
 1239ERGO   ROH16851  17.250   7.562   6.001 -0.0510  0.0310  0.0527
 1239ERGO    R116852  17.110   7.688   6.213 -0.2785 -0.0038 -0.0739
 1239ERGO    R216853  16.862   7.601   6.298 -0.1502 -0.3415 -0.0174
 1239ERGO    R316854  16.985   7.591   6.541 -0.1430  0.0837  0.0026
 1239ERGO    R416855  16.698   7.584   6.602 -0.1304 -0.3423 -0.0070
 1239ERGO    R516856  16.845   7.723   6.684 -0.3684 -0.0211 -0.1229
 1239ERGO    C116857  16.719   7.565   7.007 -0.1123  0.0566  0.0179
 1239ERGO    C216858  16.848   7.440   7.305 -0.0135  0.5396  0.3584
 1240ERGO   ROH16859   7.929   9.485   6.096 -0.1747 -0.0676 -0.0231
 1240ERGO    R116860   7.833   9.508   6.361  0.0007 -0.0398  0.0401
 1240ERGO    R216861   7.999   9.490   6.582  0.1620  0.0651 -0.0668
 1240ERGO    R316862   7.888   9.731   6.643  0.1249  0.0431 -0.0495
 1240ERGO    R416863   8.060   9.667   6.872  0.1278  0.0556 -0.0541
 1240ERGO    R516864   7.849   9.720   6.879  0.1227  0.0223 -0.0531
 1240ERGO    C116865   7.993   9.996   7.099  0.0731  0.0293 -0.0305
 1240ERGO    C216866   7.934  10.274   7.277  0.2115  0.3296 -0.3441
 1241ERGO   ROH16867  14.845  11.574   5.783  0.1234  0.0885  0.2064
 1241ERGO    R116868  14.637  11.460   5.937  0.0310  0.1197  0.1062
 1241ERGO    R216869  14.671  11.386   6.201 -0.0620 -0.0297  0.0774
 1241ERGO    R316870  14.454  11.545   6.240  0.0131  0.0647  0.1111
 1241ERGO    R416871  14.506  11.425   6.503 -0.0930 -0.0808  0.0672
 1241ERGO    R516872  14.317  11.423   6.394 -0.0763  0.0650  0.0329
 1241ERGO    C116873  14.207  11.598   6.715 -0.0406 -0.0219  0.0929
 1241ERGO    C216874  14.246  11.591   7.044  0.1842  0.0785 -0.3590
 1242ERGO   ROH16875  11.823  15.080   5.749 -0.0320 -0.0064 -0.0236
 1242ERGO    R116876  11.892  15.075   6.024 -0.0818 -0.0271 -0.0107
 1242ERGO    R216877  11.925  14.839   6.165 -0.0882 -0.0420 -0.0244
 1242ERGO    R316878  12.167  14.947   6.225 -0.1081 -0.0254  0.0232
 1242ERGO    R416879  12.138  14.721   6.410  0.0083 -0.1944 -0.1798
 1242ERGO    R516880  12.183  14.928   6.464 -0.0440 -0.2353 -0.0015
 1242ERGO    C116881  12.489  14.753   6.609  0.0459 -0.2674 -0.2256
 1242ERGO    C216882  12.406  14.614   6.904  0.1059  0.0645  0.3741
 1243ERGO   ROH16883   2.522   3.635   9.861  0.1158  0.0880 -0.0363
 1243ERGO    R116884   2.394   3.703   9.618  0.0663 -0.0065 -0.0379
 1243ERGO    R216885   2.432   3.946   9.492  0.0026 -0.0375 -0.1181
 1243ERGO    R316886   2.498   3.790   9.280 -0.0029 -0.0866 -0.0806
 1243ERGO    R416887   2.478   4.061   9.170 -0.0740 -0.1208 -0.1575
 1243ERGO    R516888   2.375   3.884   9.097 -0.0511 -0.1627 -0.0870
 1243ERGO    C116889   2.567   3.981   8.783 -0.1237 -0.2154 -0.1452
 1243ERGO    C216890   2.561   4.074   8.509  0.0191 -0.2451 -0.2457
 1244ERGO   ROH16891   9.410  10.936   6.164 -0.2179 -0.3276  0.2202
 1244ERGO    R116892   9.492  11.098   6.381 -0.2805 -0.0226  0.0219
 1244ERGO    R216893   9.323  11.276   6.507 -0.4296 -0.1282 -0.0294
 1244ERGO    R316894   9.398  11.141   6.730 -0.1035  0.1678  0.0487
 1244ERGO    R416895   9.150  11.277   6.806 -0.5009 -0.4484 -0.0659
 1244ERGO    R516896   9.341  11.287   6.910 -0.5332  0.1114 -0.0302
 1244ERGO    C116897   9.120  11.151   7.190 -0.2364 -0.3568 -0.0137
 1244ERGO    C216898   9.062  10.984   7.479 -0.2666 -0.2081  0.5011
 1245ERGO   ROH16899  15.377   5.088   6.114  0.0386  0.1997  0.0526
 1245ERGO    R116900  15.404   5.054   6.394  0.1008  0.1508  0.0416
 1245ERGO    R216901  15.636   5.117   6.530  0.0971  0.2304  0.0191
 1245ERGO    R316902  15.468   5.267   6.682  0.0488  0.1197  0.0751
 1245ERGO    R416903  15.721   5.266   6.831 -0.0019  0.0245  0.1506
 1245ERGO    R516904  15.524   5.210   6.908 -0.0206 -0.0342  0.0520
 1245ERGO    C116905  15.612   5.494   7.148 -0.1049 -0.1993  0.2797
 1245ERGO    C216906  15.539   5.666   7.448 -0.3504 -0.1575 -0.0260
 1246ERGO   ROH16907  12.729   1.108   9.240 -0.1645 -0.1130 -0.0008
 1246ERGO    R116908  12.678   1.222   8.986 -0.1784  0.0839  0.0874
 1246ERGO    R216909  12.604   1.070   8.767  0.0516  0.2188 -0.0933
 1246ERGO    R316910  12.395   1.242   8.759 -0.1146  0.0239  0.0040
 1246ERGO    R416911  12.487   1.226   8.482 -0.1090  0.2624 -0.0039
 1246ERGO    R516912  12.459   1.407   8.598 -0.2803  0.1723  0.0911
 1246ERGO    C116913  12.222   1.478   8.308 -0.3585  0.1048  0.1396
 1246ERGO    C216914  12.026   1.409   8.090  0.1870 -0.1432  0.0636
 1247ERGO   ROH16915   1.413   0.205   5.915 -0.2521 -0.0403  0.4031
 1247ERGO    R116916   1.656   0.202   6.061 -0.1890  0.1203  0.3033
 1247ERGO    R216917   1.676   0.298   6.319 -0.1734  0.0380  0.3299
 1247ERGO    R316918   1.777   0.051   6.369  0.0729  0.1075  0.1980
 1247ERGO    R416919   1.879   0.218   6.587 -0.2810  0.0558  0.4179
 1247ERGO    R516920   1.997   0.092   6.454 -0.0327  0.2964  0.3963
 1247ERGO    C116921   2.092  -0.061   6.790 -0.1126  0.1314  0.3453
 1247ERGO    C216922   2.004  -0.323   7.106 -0.1415 -0.2980  0.0356
 1248ERGO   ROH16923  18.723  15.399   9.043 -0.2318 -0.0653  0.1097
 1248ERGO    R116924  18.819  15.410   8.778 -0.1184  0.0017  0.1529
 1248ERGO    R216925  18.785  15.202   8.599  0.0316  0.0128  0.1111
 1248ERGO    R316926  18.675  15.396   8.443  0.0333 -0.0053  0.0872
 1248ERGO    R416927  18.709  15.167   8.263  0.0164 -0.0339  0.1193
 1248ERGO    R516928  18.783  15.370   8.231  0.0236 -0.0412  0.0865
 1248ERGO    C116929  18.562  15.329   7.922  0.0091 -0.0781  0.1016
 1248ERGO    C216930  18.239  15.299   7.755  0.1358 -0.0058  0.0822
 1249ERGO   ROH16931   7.538  15.436   9.562 -0.0243 -0.0252  0.0698
 1249ERGO    R116932   7.692  15.495   9.333 -0.1284  0.1161  0.0356
 1249ERGO    R216933   7.798  15.299   9.170  0.0188  0.2126  0.0176
 1249ERGO    R316934   7.667  15.435   8.974 -0.1495  0.0888  0.0405
 1249ERGO    R416935   7.742  15.181   8.850  0.4313  0.3023 -0.0939
 1249ERGO    R516936   7.785  15.380   8.774  0.0805  0.4523  0.0640
 1249ERGO    C116937   7.586  15.240   8.480  0.5134  0.2382 -0.1373
 1249ERGO    C216938   7.517  15.135   8.175 -0.0941 -0.1039  0.3577
 1250ERGO   ROH16939   9.033   0.620   6.118  0.1378  0.0286 -0.0884
 1250ERGO    R116940   9.113   0.679   6.383  0.0599  0.0460 -0.0693
 1250ERGO    R216941   8.932   0.714   6.589  0.0007  0.0571 -0.1270
 1250ERGO    R316942   9.081   0.522   6.709 -0.0324  0.0672 -0.0670
 1250ERGO    R416943   8.928   0.644   6.927 -0.1831  0.0112 -0.1366
 1250ERGO    R516944   9.144   0.618   6.919 -0.1709  0.0521 -0.0156
 1250ERGO    C116945   9.067   0.423   7.237 -0.3214 -0.0060 -0.0858
 1250ERGO    C216946   9.292   0.428   7.470  0.0948  0.2216  0.5082
 1251ERGO   ROH16947   3.024   6.945   6.196  0.2001 -0.0245  0.0840
 1251ERGO    R116948   3.032   6.860   6.466 -0.0277 -0.1042  0.0683
 1251ERGO    R216949   3.126   7.020   6.670  0.1059 -0.2836  0.1483
 1251ERGO    R316950   2.885   6.966   6.782 -0.0149  0.0165  0.0348
 1251ERGO    R416951   3.032   7.114   6.989  0.1435 -0.2970  0.1622
 1251ERGO    R516952   2.935   6.919   7.012 -0.1551 -0.1721  0.0317
 1251ERGO    C116953   2.750   7.117   7.280  0.0521 -0.0231  0.0638
 1251ERGO    C216954   2.713   7.179   7.559 -0.2050  0.0196  0.0334
 1252ERGO   ROH16955  10.942  10.000   9.494  0.0767  0.0277 -0.1374
 1252ERGO    R116956  10.848   9.801   9.316  0.0707 -0.0409 -0.0587
 1252ERGO    R216957  10.579   9.755   9.272  0.0655 -0.0806 -0.0078
 1252ERGO    R316958  10.649   9.790   9.012  0.0308 -0.1578 -0.0278
 1252ERGO    R416959  10.404   9.630   9.002  0.0749 -0.2240  0.0516
 1252ERGO    R516960  10.594   9.583   8.907  0.0761 -0.2086  0.0518
 1252ERGO    C116961  10.367   9.591   8.600  0.0477 -0.3799  0.0675
 1252ERGO    C216962  10.194   9.596   8.403 -0.2982 -0.1891  0.1195
 1253ERGO   ROH16963  11.693   6.964   7.845 -0.1313  0.0794 -0.1942
 1253ERGO    R116964  11.549   6.785   7.680 -0.2261  0.0201 -0.0468
 1253ERGO    R216965  11.671   6.621   7.495 -0.3409  0.0233 -0.1218
 1253ERGO    R316966  11.537   6.425   7.628 -0.1867  0.0083  0.0174
 1253ERGO    R416967  11.614   6.303   7.372 -0.2111 -0.0647  0.0387
 1253ERGO    R516968  11.413   6.312   7.457 -0.1892 -0.1362  0.1091
 1253ERGO    C116969  11.454   5.934   7.425  0.0093 -0.1300  0.2628
 1253ERGO    C216970  11.839   5.839   7.353 -0.0095  0.1907  0.0568
 1254ERGO   ROH16971  11.746   5.415   9.340 -0.1394 -0.0397 -0.1014
 1254ERGO    R116972  11.643   5.278   9.116 -0.1481  0.0296 -0.1397
 1254ERGO    R216973  11.735   5.322   8.859 -0.0345 -0.0191 -0.1061
 1254ERGO    R316974  11.772   5.052   8.861 -0.2002 -0.0437 -0.1024
 1254ERGO    R416975  11.726   5.119   8.579  0.0844  0.0209 -0.1393
 1254ERGO    R516976  11.619   4.970   8.696 -0.1109  0.0705 -0.2470
 1254ERGO    C116977  11.757   4.749   8.417 -0.0020  0.0210 -0.1554
 1254ERGO    C216978  11.842   4.653   8.060 -0.1860  0.1476 -0.0776
 1255ERGO   ROH16979  11.826  15.141   9.167 -0.0307  0.2354 -0.0195
 1255ERGO    R116980  11.787  15.275   8.920  0.1558  0.3303  0.0013
 1255ERGO    R216981  11.996  15.385   8.777  0.3084  0.0913  0.0361
 1255ERGO    R316982  11.896  15.231   8.576  0.1246  0.2522  0.0010
 1255ERGO    R416983  12.091  15.409   8.445  0.2345  0.1468  0.0185
 1255ERGO    R516984  11.881  15.381   8.389  0.1936  0.3407  0.0653
 1255ERGO    C116985  12.052  15.279   8.063  0.0189  0.3301 -0.0247
 1255ERGO    C216986  12.188  15.226   7.744 -0.1457 -0.1870 -0.3602
 1256ERGO   ROH16987  15.924   3.246   8.954 -0.2316  0.0219 -0.1474
 1256ERGO    R116988  15.849   3.266   8.682 -0.1416  0.1468 -0.1634
 1256ERGO    R216989  15.728   3.491   8.577 -0.0165  0.2320 -0.1224
 1256ERGO    R316990  15.934   3.480   8.399  0.0313  0.2095 -0.0662
 1256ERGO    R416991  15.703   3.568   8.241  0.0535  0.1283 -0.1518
 1256ERGO    R516992  15.833   3.398   8.198  0.0920  0.1329 -0.0679
 1256ERGO    C116993  15.881   3.601   7.878  0.1391  0.0467 -0.1162
 1256ERGO    C216994  15.992   3.871   7.609 -0.1285  0.0743 -0.2429
 1257ERGO   ROH16995   0.686   9.389   5.977 -0.0032 -0.1569  0.0456
 1257ERGO    R116996   0.560   9.498   6.206 -0.1544  0.1387 -0.1715
 1257ERGO    R216997   0.290   9.557   6.213 -0.2448 -0.2252 -0.3008
 1257ERGO    R316998   0.294   9.399   6.434 -0.0126  0.2210  0.0320
 1257ERGO    R416999   0.028   9.520   6.436 -0.2379 -0.2426 -0.2959
 1257ERGO    R517000   0.173   9.522   6.599 -0.2762  0.3469 -0.2486
 1257ERGO    C117001  -0.120   9.350   6.773 -0.0160  0.1663  0.0194
 1257ERGO    C217002  -0.409   9.373   7.037 -0.0320  0.2717  0.0996
 1258ERGO   ROH17003   9.842   6.707   6.161  0.2818 -0.3601  0.0500
 1258ERGO    R117004   9.922   6.900   6.353  0.1175 -0.2333 -0.0080
 1258ERGO    R217005   9.917   6.850   6.625  0.1797 -0.1635  0.0008
 1258ERGO    R317006  10.177   6.926   6.611  0.1118  0.0764 -0.0276
 1258ERGO    R417007  10.117   6.919   6.898  0.2523 -0.3986  0.0100
 1258ERGO    R517008  10.202   7.086   6.787  0.0576 -0.1547  0.2037
 1258ERGO    C117009  10.478   7.030   7.044  0.2309 -0.3103 -0.0114
 1258ERGO    C217010  10.802   6.915   7.201  0.0300  0.0463  0.1007
 1259ERGO   ROH17011   7.135   5.012   7.234 -0.0128 -0.0713 -0.1277
 1259ERGO    R117012   7.083   5.218   7.422 -0.0943 -0.0956 -0.1227
 1259ERGO    R217013   7.255   5.276   7.630 -0.1354 -0.0607 -0.0960
 1259ERGO    R317014   7.244   5.527   7.526 -0.1912 -0.0570 -0.0860
 1259ERGO    R417015   7.402   5.555   7.772  0.0369 -0.0825 -0.2280
 1259ERGO    R517016   7.225   5.669   7.718  0.0037 -0.0542 -0.0664
 1259ERGO    C117017   7.477   5.953   7.757  0.0848 -0.0916 -0.2954
 1259ERGO    C217018   7.609   6.172   7.989  0.0083  0.1158 -0.0304
 1260ERGO   ROH17019   3.349   0.202   6.041 -0.4079 -0.0504  0.0697
 1260ERGO    R117020   3.460   0.018   6.226 -0.2492 -0.0551 -0.0277
 1260ERGO    R217021   3.482   0.073   6.496 -0.0540 -0.0775 -0.0370
 1260ERGO    R317022   3.345  -0.160   6.522 -0.0098 -0.0942  0.0428
 1260ERGO    R417023   3.326  -0.034   6.785  0.0939 -0.0828  0.0418
 1260ERGO    R517024   3.397  -0.235   6.743  0.1017 -0.0735  0.0230
 1260ERGO    C117025   3.107  -0.315   6.978  0.2216 -0.1014  0.1627
 1260ERGO    C217026   2.815  -0.573   7.113 -0.1375  0.1536 -0.1369
 1261ERGO   ROH17027  13.601  16.153   9.179 -0.0951 -0.0304  0.0415
 1261ERGO    R117028  13.479  16.147   8.923  0.0256 -0.0377 -0.0145
 1261ERGO    R217029  13.613  16.221   8.693  0.1390 -0.0755  0.0493
 1261ERGO    R317030  13.535  15.975   8.608  0.1486 -0.0696  0.0219
 1261ERGO    R417031  13.505  16.148   8.373  0.1212 -0.0262  0.0425
 1261ERGO    R517032  13.352  16.019   8.460  0.1311 -0.0519  0.0396
 1261ERGO    C117033  13.368  15.875   8.107  0.1199  0.0082  0.0128
 1261ERGO    C217034  13.583  15.686   7.743  0.2918  0.0665  0.2970
 1262ERGO   ROH17035   9.900   1.207   5.956 -0.2542 -0.1934  0.0404
 1262ERGO    R117036   9.971   1.152   6.225 -0.1286 -0.2549 -0.0039
 1262ERGO    R217037   9.867   1.294   6.438  0.1540 -0.1393  0.0660
 1262ERGO    R317038   9.799   1.046   6.527 -0.0368 -0.0705  0.1138
 1262ERGO    R417039   9.794   1.215   6.767  0.2065 -0.0480  0.0994
 1262ERGO    R517040   9.905   1.029   6.741  0.0275 -0.1489  0.0736
 1262ERGO    C117041   9.688   0.936   7.041  0.0581  0.0697  0.1637
 1262ERGO    C217042   9.531   0.747   7.192  0.1777  0.1027  0.1030
 1263ERGO   ROH17043   9.419   9.529   6.301 -0.0731  0.3793 -0.0545
 1263ERGO    R117044   9.446   9.577   6.579 -0.1424  0.1287 -0.0017
 1263ERGO    R217045   9.510   9.825   6.681  0.0492 -0.0111  0.2277
 1263ERGO    R317046   9.284   9.788   6.827 -0.0485  0.0801  0.1017
 1263ERGO    R417047   9.490   9.854   7.025 -0.0955 -0.1523  0.2324
 1263ERGO    R517048   9.359   9.680   7.027 -0.2195 -0.0634  0.0911
 1263ERGO    C117049   9.266   9.836   7.362 -0.2714 -0.1488  0.1167
 1263ERGO    C217050   9.310  10.094   7.609 -0.1771  0.2041 -0.2308
 1264ERGO   ROH17051  15.125  12.921   5.736  0.1162  0.2538  0.1180
 1264ERGO    R117052  15.087  12.799   5.988 -0.2236  0.2154  0.0531
 1264ERGO    R217053  15.298  12.716   6.146 -0.4417 -0.2452  0.1161
 1264ERGO    R317054  15.178  12.872   6.333 -0.2364 -0.0931  0.1241
 1264ERGO    R417055  15.405  12.750   6.473 -0.3090 -0.2785  0.0773
 1264ERGO    R517056  15.196  12.747   6.536 -0.2929 -0.0690  0.1432
 1264ERGO    C117057  15.354  12.917   6.839 -0.0392 -0.1551  0.0623
 1264ERGO    C217058  15.660  12.921   7.056  0.4204 -0.2149  0.2080
 1265ERGO   ROH17059   3.513   2.541   6.299  0.1460  0.0192 -0.1465
 1265ERGO    R117060   3.679   2.582   6.524  0.1160  0.0069 -0.1211
 1265ERGO    R217061   3.867   2.785   6.535  0.1052  0.0197 -0.0771
 1265ERGO    R317062   3.736   2.849   6.765  0.0685 -0.0126 -0.0897
 1265ERGO    R417063   3.993   2.988   6.785  0.0594 -0.0177 -0.0238
 1265ERGO    R517064   3.908   2.853   6.932  0.0360 -0.0360 -0.0600
 1265ERGO    C117065   3.945   3.167   7.145 -0.0017 -0.0699 -0.0045
 1265ERGO    C217066   3.909   3.569   7.209 -0.0720 -0.2548 -0.1703
 1266ERGO   ROH17067   2.386   2.183   5.823 -0.1613 -0.0213 -0.1480
 1266ERGO    R117068   2.190   2.338   5.957 -0.0556  0.0762 -0.1039
 1266ERGO    R217069   2.156   2.329   6.231 -0.1590 -0.0924 -0.1190
 1266ERGO    R317070   2.188   2.599   6.211  0.1183 -0.1054  0.0877
 1266ERGO    R417071   2.120   2.552   6.492 -0.1717 -0.2315 -0.0015
 1266ERGO    R517072   2.019   2.689   6.355  0.0783 -0.0413  0.0002
 1266ERGO    C117073   2.128   2.935   6.626  0.0812 -0.3248  0.2611
 1266ERGO    C217074   1.946   3.155   6.840  0.0183  0.1863 -0.2002
 1267ERGO   ROH17075   0.743   2.828   6.025  0.1625  0.0879 -0.0578
 1267ERGO    R117076   0.812   2.636   6.221  0.0212 -0.1868 -0.2701
 1267ERGO    R217077   0.771   2.679   6.491  0.4490 -0.2694 -0.1872
 1267ERGO    R317078   0.636   2.443   6.475 -0.0639  0.0079 -0.1779
 1267ERGO    R417079   0.657   2.497   6.763  0.4946 -0.2504 -0.1545
 1267ERGO    R517080   0.718   2.315   6.660 -0.0306 -0.3083 -0.4019
 1267ERGO    C117081   0.465   2.171   6.905  0.0397  0.0210 -0.1268
 1267ERGO    C217082   0.460   2.054   7.245  0.2779  0.2879  0.0840
 1268ERGO   ROH17083   6.507   2.520   6.282 -0.0279  0.1264  0.0766
 1268ERGO    R117084   6.460   2.321   6.477 -0.0406  0.1039  0.0524
 1268ERGO    R217085   6.659   2.155   6.571 -0.0785 -0.0211 -0.0721
 1268ERGO    R317086   6.578   2.247   6.814  0.0747 -0.0305 -0.0182
 1268ERGO    R417087   6.651   1.965   6.860 -0.3907 -0.1807 -0.1824
 1268ERGO    R517088   6.461   2.061   6.911 -0.2328  0.1043 -0.1274
 1268ERGO    C117089   6.570   1.941   7.256 -0.4286 -0.2824 -0.1961
 1268ERGO    C217090   6.743   1.596   7.455 -0.0116  0.0371 -0.0570
 1269ERGO   ROH17091  13.477  10.152   5.811  0.0960 -0.0726 -0.0952
 1269ERGO    R117092  13.644  10.259   6.013 -0.0683  0.0533 -0.0220
 1269ERGO    R217093  13.549  10.330   6.262 -0.2227 -0.0535 -0.0456
 1269ERGO    R317094  13.745  10.164   6.349 -0.1092  0.1057  0.0046
 1269ERGO    R417095  13.623  10.268   6.594 -0.1267  0.1542 -0.0273
 1269ERGO    R517096  13.835  10.272   6.542 -0.1395  0.2538 -0.0649
 1269ERGO    C117097  13.851  10.075   6.868  0.0356  0.4246  0.0306
 1269ERGO    C217098  13.646   9.884   7.112 -0.1950 -0.3879 -0.0375
 1270ERGO   ROH17099   4.901  17.538   5.887 -0.0283 -0.1178 -0.1311
 1270ERGO    R117100   4.757  17.553   6.130 -0.0525 -0.0398 -0.1487
 1270ERGO    R217101   4.572  17.361   6.206  0.0371 -0.0915 -0.0403
 1270ERGO    R317102   4.724  17.350   6.430  0.0338  0.1273 -0.0262
 1270ERGO    R417103   4.476  17.217   6.505  0.2216 -0.2278 -0.0464
 1270ERGO    R517104   4.570  17.381   6.610 -0.0244 -0.0934 -0.0398
 1270ERGO    C117105   4.564  17.122   6.890  0.3260 -0.1016 -0.0367
 1270ERGO    C217106   4.512  16.822   7.084  0.1355 -0.1385  0.1440
 1271ERGO   ROH17107  17.473   5.473   5.753  0.2227 -0.0768 -0.0578
 1271ERGO    R117108  17.636   5.355   5.953  0.2840 -0.0489 -0.0908
 1271ERGO    R217109  17.869   5.474   6.044  0.1288  0.1405  0.0746
 1271ERGO    R317110  17.750   5.445   6.286  0.0739 -0.1682  0.0144
 1271ERGO    R417111  18.038   5.438   6.343  0.0664  0.3202  0.1325
 1271ERGO    R517112  17.891   5.289   6.403  0.3021  0.0310  0.0097
 1271ERGO    C117113  18.025   5.390   6.745 -0.0219  0.1350  0.1097
 1271ERGO    C217114  18.227   5.471   7.041  0.0583  0.3580  0.0478
 1272ERGO   ROH17115  11.835  17.718   5.676 -0.2039  0.1629 -0.1610
 1272ERGO    R117116  11.801  17.862   5.917 -0.1590  0.2465 -0.2048
 1272ERGO    R217117  11.979  17.842   6.129 -0.3525 -0.0206 -0.0650
 1272ERGO    R317118  11.988  18.112   6.104  0.1078 -0.0311 -0.0903
 1272ERGO    R417119  11.966  18.066   6.392 -0.1915  0.0293 -0.0979
 1272ERGO    R517120  11.837  18.193   6.271  0.1044  0.2312 -0.2137
 1272ERGO    C117121  11.967  18.450   6.521  0.3342  0.0484 -0.1407
 1272ERGO    C217122  12.087  18.673   6.805  0.0624  0.1385  0.0152
 1273ERGO   ROH17123   0.199   0.687   5.657  0.1239 -0.0556 -0.0452
 1273ERGO    R117124   0.311   0.665   5.916 -0.0188 -0.0506  0.0190
 1273ERGO    R217125   0.584   0.668   5.961 -0.0363 -0.1275  0.1640
 1273ERGO    R317126   0.520   0.870   6.132 -0.0692 -0.0806  0.0949
 1273ERGO    R417127   0.792   0.794   6.207 -0.0899 -0.0550  0.1712
 1273ERGO    R517128   0.620   0.807   6.340 -0.1125 -0.0179  0.1312
 1273ERGO    C117129   0.853   1.056   6.510 -0.1519  0.0313  0.1105
 1273ERGO    C217130   0.930   1.165   6.969 -0.2885 -0.0648 -0.1140
 1274ERGO   ROH17131  10.978   1.958   9.425 -0.0346  0.0528  0.1375
 1274ERGO    R117132  10.993   1.969   9.143 -0.0550 -0.0143  0.1325
 1274ERGO    R217133  10.871   1.781   8.980 -0.1189 -0.0247  0.1795
 1274ERGO    R317134  10.758   2.000   8.866 -0.0725 -0.0177  0.1499
 1274ERGO    R417135  10.797   1.813   8.644  0.0078  0.0122  0.1555
 1274ERGO    R517136  10.867   2.020   8.654  0.0026  0.0032  0.1965
 1274ERGO    C117137  10.648   2.038   8.342  0.1251  0.0402  0.1138
 1274ERGO    C217138  10.565   2.095   7.911  0.0153 -0.3099 -0.3084
 1275ERGO   ROH17139   8.869   8.431   6.246 -0.1943  0.0529 -0.1390
 1275ERGO    R117140   8.934   8.420   6.521 -0.3451  0.1965 -0.0966
 1275ERGO    R217141   8.758   8.328   6.712 -0.3050 -0.1010 -0.2018
 1275ERGO    R317142   8.964   8.162   6.777 -0.0425  0.2669 -0.0557
 1275ERGO    R417143   8.774   8.137   7.000 -0.3030 -0.2780 -0.3173
 1275ERGO    R517144   8.987   8.186   7.014 -0.4080  0.1493 -0.0013
 1275ERGO    C117145   8.977   7.870   7.228 -0.0555 -0.0357 -0.2474
 1275ERGO    C217146   8.636   7.743   7.425  0.1070 -0.0241  0.3525
 1276ERGO   ROH17147   9.824   4.906   6.280  0.1494  0.0934 -0.0294
 1276ERGO    R117148   9.789   5.025   6.535  0.0283 -0.0705  0.0324
 1276ERGO    R217149   9.608   4.930   6.720 -0.0076 -0.2363 -0.0867
 1276ERGO    R317150   9.826   4.923   6.882 -0.0607 -0.2704 -0.0151
 1276ERGO    R417151   9.610   4.811   7.045 -0.0866 -0.4314 -0.1555
 1276ERGO    R517152   9.741   4.977   7.099 -0.1517 -0.4249 -0.0107
 1276ERGO    C117153   9.816   4.737   7.386 -0.1825 -0.5770 -0.1283
 1276ERGO    C217154   9.865   4.512   7.694 -0.0801 -0.1961 -0.2621
 1277ERGO   ROH17155   9.966   0.141   5.580 -0.0441 -0.0401 -0.1096
 1277ERGO    R117156   9.868   0.114   5.845  0.0693 -0.1057 -0.0734
 1277ERGO    R217157   9.913  -0.112   5.998  0.2279 -0.1002 -0.1084
 1277ERGO    R317158  10.011   0.068   6.176  0.2184 -0.0713 -0.1325
 1277ERGO    R417159   9.886  -0.139   6.341  0.1828 -0.0261 -0.1060
 1277ERGO    R517160   9.847   0.075   6.350  0.1978 -0.0225 -0.1549
 1277ERGO    C117161   9.963   0.014   6.709  0.1473  0.0442 -0.1272
 1277ERGO    C217162   9.949  -0.049   6.929  0.0682 -0.0887  0.0455
 1278ERGO   ROH17163  18.908   7.264   5.936  0.3186  0.1917 -0.0290
 1278ERGO    R117164  18.823   7.287   6.205  0.2388  0.2594 -0.0575
 1278ERGO    R217165  18.891   7.102   6.399 -0.0369  0.1556 -0.0390
 1278ERGO    R317166  18.982   7.322   6.531  0.1610  0.0496  0.0009
 1278ERGO    R417167  18.909   7.134   6.743 -0.2712  0.2030 -0.0303
 1278ERGO    R517168  18.841   7.340   6.723  0.0348  0.2872 -0.1210
 1278ERGO    C117169  19.006   7.359   7.066 -0.2220  0.1310  0.0122
 1278ERGO    C217170  19.164   7.283   7.375  0.1678 -0.1231  0.0644
 1279ERGO   ROH17171   6.298   1.440   6.104  0.0948 -0.0123 -0.0822
 1279ERGO    R117172   6.153   1.316   6.313  0.0988  0.1387  0.0128
 1279ERGO    R217173   5.897   1.215   6.278  0.1147  0.0602  0.0740
 1279ERGO    R317174   6.008   0.988   6.376  0.1549  0.1643  0.2753
 1279ERGO    R417175   5.726   0.970   6.450  0.0580 -0.0637 -0.1550
 1279ERGO    R517176   5.896   0.952   6.585 -0.1325  0.0969  0.1093
 1279ERGO    C117177   5.730   0.614   6.643  0.0626 -0.0381 -0.0994
 1279ERGO    C217178   5.579   0.320   6.532  0.0346 -0.1116 -0.1458
 1280ERGO   ROH17179  10.855   1.526   5.826  0.2051 -0.0315 -0.2571
 1280ERGO    R117180  10.829   1.438   6.094  0.1196  0.0570 -0.2363
 1280ERGO    R217181  10.863   1.174   6.168 -0.1005  0.0472 -0.1686
 1280ERGO    R317182  11.043   1.280   6.342 -0.0214 -0.0566 -0.1853
 1280ERGO    R417183  10.951   1.033   6.471 -0.0098 -0.1013 -0.2618
 1280ERGO    R517184  10.952   1.233   6.558  0.0503 -0.1396 -0.1719
 1280ERGO    C117185  11.171   1.051   6.811  0.1173 -0.2852 -0.3318
 1280ERGO    C217186  11.371   0.737   7.078 -0.1450  0.0572 -0.2459
 1281ERGO   ROH17187   5.801   3.216   6.166 -0.0903 -0.1017 -0.1733
 1281ERGO    R117188   5.810   3.140   6.438 -0.0532 -0.1666 -0.1921
 1281ERGO    R217189   5.779   3.322   6.644  0.2536 -0.1667 -0.1387
 1281ERGO    R317190   5.584   3.150   6.723  0.0856  0.0445 -0.0878
 1281ERGO    R417191   5.715   3.235   6.972  0.4779 -0.3700 -0.1454
 1281ERGO    R517192   5.682   3.030   6.906  0.1083 -0.2658 -0.2996
 1281ERGO    C117193   5.494   3.024   7.238  0.4509 -0.2901 -0.1016
 1281ERGO    C217194   5.291   3.099   7.529 -0.2636 -0.3671  0.3274
 1282ERGO   ROH17195  12.000   6.954   5.842  0.0935  0.2829  0.0349
 1282ERGO    R117196  11.997   6.813   6.087 -0.2195  0.1378 -0.0480
 1282ERGO    R217197  12.165   6.877   6.297 -0.0615 -0.3650 -0.0134
 1282ERGO    R317198  11.932   6.892   6.436 -0.0326  0.0827  0.0015
 1282ERGO    R417199  12.141   6.929   6.638  0.0686 -0.3802 -0.0009
 1282ERGO    R517200  11.979   6.783   6.644 -0.2364 -0.0605 -0.0216
 1282ERGO    C117201  11.908   6.973   6.967  0.1713  0.0313  0.0205
 1282ERGO    C217202  11.854   7.013   7.263 -0.0749  0.0268 -0.2160
 1283ERGO   ROH17203  11.876   8.783   9.316  0.0930  0.1107  0.0221
 1283ERGO    R117204  11.819   8.674   9.061  0.0006  0.1155  0.0400
 1283ERGO    R217205  11.580   8.717   8.930  0.0183  0.2571  0.0531
 1283ERGO    R317206  11.743   8.802   8.729  0.0591  0.1251  0.0301
 1283ERGO    R417207  11.535   8.644   8.595 -0.0384  0.2182  0.0695
 1283ERGO    R517208  11.750   8.616   8.577 -0.0540  0.0905  0.0656
 1283ERGO    C117209  11.661   8.680   8.212 -0.0331  0.0715  0.0573
 1283ERGO    C217210  11.502   8.584   7.899  0.1435  0.2976  0.3933
 1284ERGO   ROH17211   3.844   5.415   6.144 -0.2233 -0.1160 -0.0551
 1284ERGO    R117212   3.730   5.432   6.403 -0.0366 -0.0841  0.0273
 1284ERGO    R217213   3.471   5.516   6.447  0.0387  0.0744  0.2201
 1284ERGO    R317214   3.451   5.280   6.580 -0.0132  0.0628  0.1902
 1284ERGO    R417215   3.220   5.434   6.670 -0.0763  0.0196  0.0714
 1284ERGO    R517216   3.369   5.340   6.796 -0.1431  0.0283  0.1463
 1284ERGO    C117217   3.055   5.165   6.925 -0.1920 -0.0230 -0.0432
 1284ERGO    C217218   2.887   5.095   7.121  0.0723 -0.2672 -0.2221
 1285ERGO   ROH17219   3.482  13.015   6.000  0.0106 -0.1466  0.1069
 1285ERGO    R117220   3.688  13.178   6.107  0.0552 -0.1666  0.0504
 1285ERGO    R217221   3.638  13.379   6.290  0.1256 -0.1679  0.0654
 1285ERGO    R317222   3.825  13.248   6.436  0.1588 -0.1819  0.0121
 1285ERGO    R417223   3.771  13.493   6.588  0.1250 -0.2276  0.0893
 1285ERGO    R517224   3.966  13.422   6.522  0.1360 -0.1779  0.0514
 1285ERGO    C117225   4.024  13.437   6.899  0.1558 -0.2756  0.0531
 1285ERGO    C217226   4.235  13.489   7.168 -0.3847 -0.0013  0.1834
 1286ERGO   ROH17227   1.346  14.424   5.928  0.1564 -0.1009  0.1082
 1286ERGO    R117228   1.312  14.705   5.941  0.2196 -0.0910  0.0537
 1286ERGO    R217229   1.076  14.822   6.023  0.1946 -0.0225 -0.1209
 1286ERGO    R317230   1.238  14.950   6.199  0.1065 -0.0420 -0.0230
 1286ERGO    R417231   0.992  15.108   6.198  0.1444  0.0249 -0.2207
 1286ERGO    R517232   1.193  15.183   6.164  0.1919 -0.0333 -0.0898
 1286ERGO    C117233   1.095  15.395   6.465  0.0324  0.0341 -0.1869
 1286ERGO    C217234   1.069  15.549   6.786  0.2332  0.3228  0.4010
 1287ERGO   ROH17235   5.106   7.545   6.525  0.0656  0.1491 -0.2268
 1287ERGO    R117236   4.985   7.777   6.633  0.1636  0.1952 -0.2146
 1287ERGO    R217237   4.742   7.769   6.765  0.1148  0.3056 -0.2990
 1287ERGO    R317238   4.882   7.891   6.963  0.1188  0.1790 -0.2226
 1287ERGO    R417239   4.601   7.931   7.036  0.1193 -0.1277 -0.0278
 1287ERGO    R517240   4.753   8.086   7.016 -0.0111  0.0187  0.0777
 1287ERGO    C117241   4.651   8.140   7.380  0.1256 -0.4989  0.2017
 1287ERGO    C217242   4.553   8.274   7.680  0.2774  0.1648  0.0281
 1288ERGO   ROH17243   2.613  13.202   5.885 -0.0888  0.1178 -0.1264
 1288ERGO    R117244   2.612  13.273   6.159 -0.0856  0.0265 -0.1025
 1288ERGO    R217245   2.381  13.274   6.311 -0.0926  0.0339 -0.1158
 1288ERGO    R317246   2.526  13.112   6.474 -0.1435 -0.0570 -0.1599
 1288ERGO    R417247   2.293  13.189   6.634  0.0737  0.3016  0.0037
 1288ERGO    R517248   2.502  13.210   6.691  0.1530  0.0853 -0.1842
 1288ERGO    C117249   2.378  12.987   6.975  0.1226  0.3720  0.0319
 1288ERGO    C217250   2.109  12.873   7.155 -0.0235  0.1167 -0.2014
 1289ERGO   ROH17251  13.286   2.067   6.088 -0.0462 -0.0150 -0.1150
 1289ERGO    R117252  13.163   1.907   6.287  0.0158 -0.0046 -0.0697
 1289ERGO    R217253  13.276   1.671   6.380  0.1192  0.0839  0.0163
 1289ERGO    R317254  13.246   1.791   6.622  0.0443  0.1478 -0.0224
 1289ERGO    R417255  13.245   1.506   6.681 -0.0282  0.1576  0.0443
 1289ERGO    R517256  13.094   1.650   6.741 -0.0295  0.2000 -0.0486
 1289ERGO    C117257  13.199   1.522   7.084 -0.1842  0.2605  0.0243
 1289ERGO    C217258  13.048   1.365   7.498  0.0448 -0.0380 -0.0894
 1290ERGO   ROH17259   5.273  15.902   6.082  0.2119 -0.1779  0.1097
 1290ERGO    R117260   5.011  15.874   6.187  0.2168 -0.2498  0.1053
 1290ERGO    R217261   4.947  15.684   6.378  0.3216 -0.1062  0.2928
 1290ERGO    R317262   4.853  15.899   6.514  0.1627 -0.0266  0.0622
 1290ERGO    R417263   4.769  15.668   6.673  0.0695  0.0754  0.1534
 1290ERGO    R517264   4.641  15.828   6.599  0.1038 -0.0015 -0.0687
 1290ERGO    C117265   4.577  15.861   6.973 -0.2264  0.2559 -0.1444
 1290ERGO    C217266   4.501  15.786   7.306  0.0248  0.0454 -0.1110
 1291ERGO   ROH17267   9.040   6.474   6.776  0.0301 -0.0082  0.0231
 1291ERGO    R117268   9.003   6.642   7.001  0.0449  0.0465 -0.0147
 1291ERGO    R217269   8.800   6.604   7.184  0.0358  0.1186 -0.0067
 1291ERGO    R317270   9.004   6.603   7.363  0.0263  0.1306 -0.0082
 1291ERGO    R417271   8.781   6.732   7.504  0.0768  0.2569 -0.0599
 1291ERGO    R517272   8.982   6.812   7.478  0.0932  0.1786 -0.0922
 1291ERGO    C117273   8.961   6.806   7.859  0.0918  0.3487 -0.0923
 1291ERGO    C217274   9.095   6.795   8.145 -0.1728 -0.0750 -0.0415
 1292ERGO   ROH17275  10.241   6.437   9.784 -0.0287  0.0829  0.0345
 1292ERGO    R117276  10.157   6.398   9.517  0.0304  0.1367  0.0075
 1292ERGO    R217277  10.144   6.604   9.334  0.1121  0.1677  0.0347
 1292ERGO    R317278  10.302   6.440   9.185  0.1215  0.1606  0.0497
 1292ERGO    R417279  10.134   6.580   8.989  0.0766  0.0957  0.0406
 1292ERGO    R517280  10.158   6.364   9.009  0.1122  0.1019  0.0816
 1292ERGO    C117281  10.276   6.412   8.649  0.0649  0.0470  0.0581
 1292ERGO    C217282  10.373   6.269   8.347 -0.0758  0.2604 -0.1306
 1293ERGO   ROH17283  13.988   0.952   6.735  0.0783  0.3676  0.0881
 1293ERGO    R117284  13.990   0.777   6.957  0.0669  0.1170 -0.1024
 1293ERGO    R217285  14.153   0.818   7.177  0.1224 -0.1741 -0.0756
 1293ERGO    R317286  13.918   0.801   7.313  0.1378 -0.2503 -0.0613
 1293ERGO    R417287  14.124   0.794   7.521  0.1331 -0.0414 -0.0663
 1293ERGO    R517288  13.963   0.650   7.493  0.2211 -0.1410  0.0024
 1293ERGO    C117289  13.887   0.765   7.848  0.1538 -0.0358 -0.0473
 1293ERGO    C217290  13.950   0.880   8.103  0.0126  0.1311 -0.0054
 1294ERGO   ROH17291  16.296   5.741   6.136 -0.0220 -0.2052 -0.0261
 1294ERGO    R117292  16.291   5.684   6.413  0.0989 -0.1636 -0.0140
 1294ERGO    R217293  16.512   5.714   6.575  0.1111  0.0840 -0.0683
 1294ERGO    R317294  16.344   5.869   6.722 -0.0108 -0.0552 -0.0597
 1294ERGO    R417295  16.521   5.743   6.920 -0.0024 -0.0318 -0.0553
 1294ERGO    R517296  16.303   5.740   6.920 -0.0006 -0.1455 -0.1169
 1294ERGO    C117297  16.368   5.906   7.258 -0.1829 -0.2300 -0.0397
 1294ERGO    C217298  16.512   5.985   7.653 -0.0479  0.0379  0.1078
 1295ERGO   ROH17299  17.595  14.746   5.682  0.1449 -0.2659 -0.1015
 1295ERGO    R117300  17.482  14.512   5.793  0.0158 -0.1805 -0.0464
 1295ERGO    R217301  17.550  14.418   6.044  0.0125 -0.1880 -0.0386
 1295ERGO    R317302  17.281  14.428   6.086  0.0188 -0.0006  0.0085
 1295ERGO    R417303  17.388  14.289   6.321 -0.0587 -0.2744 -0.1209
 1295ERGO    R517304  17.230  14.218   6.189 -0.1403 -0.0419 -0.1539
 1295ERGO    C117305  17.042  14.224   6.521 -0.0943 -0.1489 -0.1246
 1295ERGO    C217306  16.890  14.399   6.745  0.0707 -0.0918 -0.0555
 1296ERGO   ROH17307  13.653   6.451   6.223 -0.0387 -0.0049  0.0696
 1296ERGO    R117308  13.405   6.466   6.357 -0.0849  0.0588 -0.0205
 1296ERGO    R217309  13.364   6.357   6.607 -0.2248  0.0054 -0.0604
 1296ERGO    R317310  13.280   6.608   6.668 -0.1416  0.0253 -0.0298
 1296ERGO    R417311  13.142   6.434   6.860 -0.1909  0.0626 -0.0483
 1296ERGO    R517312  13.049   6.581   6.727 -0.1447  0.1026 -0.0250
 1296ERGO    C117313  12.934   6.715   7.065 -0.0929  0.1144 -0.0125
 1296ERGO    C217314  12.981   6.810   7.387  0.0292  0.0266  0.1177
 1297ERGO   ROH17315  14.211   7.074   6.220  0.0056  0.0861  0.0080
 1297ERGO    R117316  14.043   7.282   6.314  0.0515  0.0978  0.0678
 1297ERGO    R217317  13.897   7.261   6.547 -0.0282  0.0263  0.0183
 1297ERGO    R317318  14.023   7.493   6.609  0.0425 -0.0539  0.1753
 1297ERGO    R417319  13.749   7.530   6.705 -0.0188  0.0819 -0.0689
 1297ERGO    R517320  13.858   7.663   6.571  0.1742  0.0446  0.0570
 1297ERGO    C117321  13.781   7.905   6.855  0.0532  0.0390  0.0278
 1297ERGO    C217322  13.627   7.795   7.225  0.0743 -0.0659 -0.1211
 1298ERGO   ROH17323   1.835   4.658   8.965  0.2473  0.0192  0.0780
 1298ERGO    R117324   1.836   4.544   8.706  0.2059 -0.1124  0.1347
 1298ERGO    R217325   1.797   4.694   8.477 -0.1632 -0.2763  0.0823
 1298ERGO    R317326   2.032   4.581   8.402 -0.0640 -0.0035 -0.0293
 1298ERGO    R417327   1.959   4.757   8.179 -0.2752  0.0546  0.0865
 1298ERGO    R517328   2.007   4.545   8.167 -0.0694  0.1081 -0.0455
 1298ERGO    C117329   2.274   4.687   7.934 -0.2473  0.5033 -0.0158
 1298ERGO    C217330   2.419   4.473   7.662 -0.4460 -0.0212 -0.0158
 1299ERGO   ROH17331  18.370  11.763   8.733  0.0475 -0.1374  0.1974
 1299ERGO    R117332  18.380  11.616   8.492  0.0555 -0.0059  0.1170
 1299ERGO    R217333  18.423  11.735   8.247  0.0331  0.1313  0.1811
 1299ERGO    R317334  18.625  11.555   8.230  0.0525  0.1617  0.0730
 1299ERGO    R417335  18.497  11.548   7.966 -0.0830  0.1536  0.1345
 1299ERGO    R517336  18.535  11.377   8.096  0.0085  0.1530  0.1111
 1299ERGO    C117337  18.731  11.270   7.786 -0.1324  0.1953  0.0059
 1299ERGO    C217338  18.737  11.191   7.550  0.2661 -0.0405 -0.3187
 1300ERGO   ROH17339  14.768  12.624   5.738 -0.1515 -0.0161 -0.0066
 1300ERGO    R117340  14.708  12.504   5.988 -0.1146 -0.0157  0.0031
 1300ERGO    R217341  14.904  12.399   6.153 -0.0870  0.0006 -0.0153
 1300ERGO    R317342  14.791  12.565   6.337 -0.0782 -0.0022 -0.0083
 1300ERGO    R417343  14.904  12.345   6.494 -0.1489 -0.0476 -0.0235
 1300ERGO    R517344  14.698  12.417   6.501 -0.1334 -0.0049 -0.0432
 1300ERGO    C117345  14.798  12.469   6.865 -0.1767 -0.0784 -0.0217
 1300ERGO    C217346  14.969  12.673   7.040 -0.1875  0.1001 -0.0231
 1301ERGO   ROH17347   0.475   4.547   6.124 -0.0329  0.0214  0.0372
 1301ERGO    R117348   0.670   4.513   6.326  0.0674  0.0067 -0.0623
 1301ERGO    R217349   0.604   4.447   6.587  0.1756  0.2600  0.0286
 1301ERGO    R317350   0.779   4.243   6.545 -0.0242  0.0757  0.0709
 1301ERGO    R417351   0.771   4.276   6.837  0.0875  0.2199  0.0612
 1301ERGO    R517352   0.949   4.276   6.711  0.0550 -0.0038  0.0084
 1301ERGO    C117353   1.031   3.985   6.944 -0.1515  0.0235  0.1198
 1301ERGO    C217354   1.184   3.860   7.184 -0.1260  0.0867  0.2589
 1302ERGO   ROH17355  17.724   0.748   7.351  0.0184  0.0215 -0.1318
 1302ERGO    R117356  17.738   0.873   7.605 -0.0296 -0.1099 -0.0615
 1302ERGO    R217357  17.828   0.741   7.830  0.0876 -0.1824 -0.1394
 1302ERGO    R317358  17.999   0.951   7.846 -0.0464 -0.0803 -0.0562
 1302ERGO    R417359  17.996   0.838   8.116 -0.0894 -0.0824 -0.0693
 1302ERGO    R517360  17.958   1.046   8.062 -0.1904 -0.1100 -0.0758
 1302ERGO    C117361  18.255   1.092   8.298 -0.3184  0.0716  0.0495
 1302ERGO    C217362  18.263   1.041   8.654  0.0824 -0.0364 -0.1457
 1303ERGO   ROH17363  15.273   3.585   6.337 -0.0457 -0.0099  0.0262
 1303ERGO    R117364  15.293   3.333   6.463  0.0669 -0.1026 -0.1710
 1303ERGO    R217365  15.486   3.147   6.395  0.3399  0.1523 -0.1179
 1303ERGO    R317366  15.542   3.155   6.661  0.0270 -0.0169 -0.0426
 1303ERGO    R417367  15.701   2.931   6.559  0.1129  0.0185  0.0080
 1303ERGO    R517368  15.560   2.925   6.725 -0.0875 -0.0601 -0.1589
 1303ERGO    C117369  15.878   2.813   6.903 -0.3130 -0.2183  0.1520
 1303ERGO    C217370  16.163   2.908   7.088  0.0015 -0.4311 -0.0888
 1304ERGO   ROH17371   6.835  14.581   9.341 -0.0574 -0.0007  0.0897
 1304ERGO    R117372   6.741  14.546   9.077 -0.0295 -0.0221  0.0809
 1304ERGO    R217373   6.912  14.520   8.861 -0.0034  0.0740  0.0795
 1304ERGO    R317374   6.770  14.292   8.817  0.1042  0.0117  0.0650
 1304ERGO    R417375   6.843  14.388   8.549 -0.1992  0.2141  0.0633
 1304ERGO    R517376   6.642  14.339   8.620 -0.1004  0.0443  0.2097
 1304ERGO    C117377   6.670  14.097   8.326 -0.2121  0.2370  0.0401
 1304ERGO    C217378   6.765  13.914   8.006  0.1224  0.1469  0.3417
 1305W        W17379  13.458   2.882  10.391 -0.1127  0.0394 -0.2263
 1306W        W17380  15.588   0.274   4.215  0.0744 -0.0558  0.0186
 1307W        W17381  12.456  11.188   4.616 -0.2835  0.2910 -0.4027
 1308W        W17382  10.544   0.905   4.424 -0.0510 -0.1328 -0.0192
 1309W        W17383   8.517   5.100   2.327 -0.0164  0.2632 -0.0252
 1310W        W17384  18.417   3.607  14.601 -0.0485  0.4017 -0.0863
 1311W        W17385  15.372   2.024   0.579  0.0859  0.0646  0.0839
 1312W        W17386  16.170   7.814   1.274 -0.1302 -0.0780 -0.0060
 1313W        W17387   7.042   9.660   0.538  0.1152 -0.4009  0.1325
 1314W        W17388  16.068   1.068  10.256 -0.0190  0.2173 -0.2251
 1315W        W17389  10.933   0.848   4.793  0.0173 -0.1858  0.1204
 1316W        W17390   3.467   3.654   4.256 -0.0352  0.0339 -0.1441
 1317W        W17391   3.341   2.834  12.229 -0.0709  0.1236  0.0909
 1318W        W17392   6.938   9.037   0.996  0.0779 -0.0451 -0.0378
 1319W        W17393   1.952   3.712   3.134 -0.1148  0.0576 -0.1682
 1320W        W17394   8.965   2.535  13.098  0.0362  0.0365  0.1859
 1321W        W17395   8.999   6.866  11.952  0.0456 -0.0163  0.1954
 1322W        W17396  12.293  13.579   3.533  0.4613  0.1224  0.3491
 1323W        W17397   5.519  17.604   2.351  0.2361 -0.0787 -0.0650
 1324W        W17398  13.302  11.069   4.588  0.1792  0.0659 -0.2241
 1325W        W17399  19.119  12.318   4.486  0.0923  0.0680  0.3016
 1326W        W17400   5.528  12.263  11.919 -0.1094  0.2216  0.0709
 1327W        W17401  10.564  15.699  14.764  0.0426 -0.0835 -0.0524
 1328W        W17402   1.439  12.139  13.188 -0.1013  0.1264 -0.2331
 1329W        W17403  15.231  15.503   1.778 -0.3225 -0.1593 -0.1937
 1330W        W17404  11.464   2.402   4.831 -0.0222  0.2288  0.1622
 1331W        W17405   5.613  14.101   4.321 -0.1297 -0.1676  0.2762
 1332W        W17406  15.434  14.164  12.985  0.1645 -0.1218 -0.1201
 1333W        W17407  19.295   4.486   2.346 -0.1964 -0.0231  0.0483
 1334W        W17408   9.257   4.793  11.133  0.0374 -0.3236  0.1591
 1335W        W17409  15.780   5.801   5.151 -0.5405 -0.1405  0.0085
 1336W        W17410  10.042  11.684  10.673 -0.2731  0.2251 -0.1319
 1337W        W17411  12.080   8.073  14.815 -0.0377  0.0298 -0.0390
 1338W        W17412   3.002  10.094  13.305  0.1884  0.0361 -0.3071
 1339W        W17413  11.984  12.548   1.798 -0.0104  0.0597 -0.1192
 1340W        W17414   7.525  14.045  13.725 -0.1616 -0.1089 -0.4313
 1341W        W17415   3.452   4.880  13.372  0.2388 -0.1605  0.3105
 1342W        W17416   0.072   7.500   2.643  0.0262 -0.0736  0.3807
 1343W        W17417   4.349   1.098  10.665  0.0252  0.2019  0.3057
 1344W        W17418  11.174  10.321  13.782  0.0841  0.1552 -0.0335
 1345W        W17419   9.558   7.932  11.151 -0.2554 -0.0222  0.0407
 1346W        W17420  18.256  17.206   2.208  0.2586  0.0364 -0.1142
 1347W        W17421   1.139  12.453  10.816 -0.1544 -0.1034  0.1691
 1348W        W17422   8.813   3.163   3.556 -0.2773 -0.2480  0.1223
 1349W        W17423  12.086  18.400   3.285  0.3301  0.3759  0.0883
 1350W        W17424   3.421   1.972   2.452  0.0033 -0.1158  0.0004
 1351W        W17425   0.083  13.030  12.123 -0.3510  0.1385  0.4044
 1352W        W17426  15.422  12.020  10.743  0.4233 -0.2364  0.0044
 1353W        W17427  17.081   9.693   0.405  0.0339 -0.0071 -0.1123
 1354W        W17428   3.237   7.318   4.782 -0.0500 -0.0409  0.1542
 1355W        W17429   5.354   1.486  14.830  0.1240  0.1494 -0.0246
 1356W        W17430  10.257   0.366   0.058 -0.1223  0.1685  0.1050
 1357W        W17431  15.136  15.198   3.017  0.1876 -0.1894  0.1347
 1358W        W17432  14.784  17.791  13.717  0.1087  0.1322  0.0667
 1359W        W17433   1.461   8.527   3.924  0.1540  0.1470  0.2176
 1360W        W17434   0.617   7.002  14.986 -0.0099  0.3704  0.0926
 1361W        W17435  19.077   6.926   3.433 -0.2175 -0.2014 -0.0550
 1362W        W17436  15.455  14.906  10.094 -0.0059  0.2828  0.2695
 1363W        W17437   9.322   7.540   1.359  0.2170  0.0999  0.4961
 1364W        W17438   8.646  18.037  14.154 -0.2341 -0.1219 -0.0531
 1365W        W17439   3.969   7.668  13.872  0.0951 -0.1374 -0.0021
 1366W        W17440  11.854  12.441  10.822  0.1193 -0.1628  0.0881
 1367W        W17441   5.065  16.778   1.240  0.3512 -0.1243 -0.2684
 1368W        W17442   0.143  15.221  12.587  0.0840 -0.1226  0.5137
 1369W        W17443   3.040   1.757   2.204  0.0284  0.1147  0.2983
 1370W        W17444   3.631  16.306   4.105  0.0556  0.1328 -0.1252
 1371W        W17445   3.900  18.924  12.473 -0.0148  0.0169 -0.0084
 1372W        W17446   5.972  17.119   2.907  0.1388 -0.2039  0.0976
 1373W        W17447   5.778   0.600   6.116  0.1351  0.0562  0.0459
 1374W        W17448  17.454  18.239  10.040  0.0128 -0.0019  0.4749
 1375W        W17449   8.434  17.605   3.518 -0.1524 -0.1091  0.1567
 1376W        W17450   4.405   1.106   1.761  0.1656 -0.0677 -0.2374
 1377W        W17451  14.706   5.345  13.709 -0.3159 -0.0911 -0.1234
 1378W        W17452   7.510   7.938   0.235  0.2433 -0.1174  0.1114
 1379W        W17453  15.603   5.220   4.864  0.0298 -0.1735 -0.2563
 1380W        W17454   8.446   7.095   0.376  0.2861 -0.1160  0.0352
 1381W        W17455   8.619  13.855   4.547 -0.1536  0.2270  0.1501
 1382W        W17456  15.684  18.387   3.755  0.0354 -0.1176  0.1521
 1383W        W17457  18.386  17.711   0.431  0.0531  0.0459  0.0052
 1384W        W17458   8.770  16.932   0.340 -0.1274 -0.2823 -0.1227
 1385W        W17459   8.881  10.382  12.409  0.0140  0.1159  0.0024
 1386W        W17460  16.081  17.908  13.461  0.4015 -0.1196  0.1644
 1387W        W17461   7.517  19.078  11.622 -0.0857  0.1429  0.0414
 1388W        W17462   7.155  11.061   1.000  0.0107 -0.0488  0.1308
 1389W        W17463   9.693  11.716   3.885  0.0047  0.0173  0.1846
 1390W        W17464  10.811  15.729  14.279 -0.0250 -0.0604 -0.0523
 1391W        W17465  18.449  11.149   3.267 -0.1549  0.5459 -0.1805
 1392W        W17466   1.157  11.978  13.631  0.0107  0.0056 -0.0708
 1393W        W17467   0.401  17.202   1.606 -0.0121 -0.3347 -0.0881
 1394W        W17468  14.902   9.792  13.055 -0.0484  0.1932  0.0807
 1395W        W17469   8.822  11.041  12.879  0.0121 -0.2615 -0.1454
 1396W        W17470  16.198  16.455   4.467  0.2802 -0.1233 -0.2405
 1397W        W17471   7.198  16.484   1.075  0.2113  0.1147  0.0153
 1398W        W17472   6.351  10.156  13.167 -0.4026  0.0170 -0.1544
 1399W        W17473   5.437   5.747  13.363 -0.4580  0.1084 -0.1135
 1400W        W17474   1.251   1.702   0.863 -0.1838  0.1917  0.0878
 1401W        W17475  17.073  15.680   3.331  0.0977  0.0914 -0.2361
 1402W        W17476   3.240  11.168  14.471  0.2751  0.0871 -0.4953
 1403W        W17477  11.675  15.468  12.059 -0.0684 -0.0308 -0.0110
 1404W        W17478  18.776  17.675   4.352  0.1715 -0.2480 -0.3612
 1405W        W17479   6.928   4.705   3.807 -0.1332 -0.0943 -0.2827
 1406W        W17480   2.862  14.724   2.679  0.5180  0.0030  0.1324
 1407W        W17481  16.955   8.342  14.918  0.0391 -0.0266  0.0488
 1408W        W17482   7.917   0.133   0.377 -0.1216 -0.0205 -0.0680
 1409W        W17483   4.951   7.660  13.557  0.0170 -0.1220  0.1947
 1410W        W17484   5.967  11.608   4.698  0.2927 -0.1118 -0.2438
 1411W        W17485   1.377  17.340  11.245 -0.1466  0.3047  0.0393
 1412W        W17486  10.769  13.335  14.897 -0.2252  0.1387  0.0011
 1413W        W17487  15.924   1.385  13.280 -0.2093  0.1721 -0.2539
 1414W        W17488  16.240  15.197  14.879 -0.0855 -0.3204  0.2128
 1415W        W17489   7.607  10.818   1.104 -0.0156 -0.2647 -0.2608
 1416W        W17490  16.724   2.317   3.204 -0.2015 -0.0135 -0.3186
 1417W        W17491  15.834  15.146  14.432 -0.0716 -0.2754 -0.2956
 1418W        W17492  11.351   0.553   4.786 -0.1601  0.0485  0.0433
 1419W        W17493  17.672  12.113   1.871 -0.1699 -0.0671  0.6457
 1420W        W17494  10.944   1.704  10.822  0.0917  0.2043 -0.1276
 1421W        W17495   2.808   8.129   5.809  0.0628 -0.1211 -0.2630
 1422W        W17496  10.800   1.529  12.453 -0.1453 -0.0730  0.3018
 1423W        W17497  10.762   1.450   1.259 -0.0480  0.1506 -0.2125
 1424W        W17498  15.098   1.838   0.005 -0.2153  0.0987 -0.2481
 1425W        W17499  18.822   7.621  13.728  0.1840 -0.0084  0.0645
 1426W        W17500   9.355  12.320   3.382 -0.0549  0.1203  0.0166
 1427W        W17501  14.997   6.010  10.960  0.2777  0.1304  0.0473
 1428W        W17502   4.217   2.536  12.288 -0.1522 -0.0328  0.3048
 1429W        W17503  17.335   2.254   5.704 -0.0699 -0.1254  0.1019
 1430W        W17504   7.341   4.395  10.690  0.3471 -0.4867 -0.1120
 1431W        W17505   1.736  14.061   0.957  0.0657 -0.1934 -0.0983
 1432W        W17506  11.963   9.642   4.219  0.0760  0.0261 -0.1584
 1433W        W17507   6.096   7.222   4.189  0.0956  0.0405  0.0360
 1434W        W17508  16.460   2.808  10.904 -0.0230  0.2993  0.1922
 1435W        W17509  17.475  17.677  13.874 -0.2087 -0.3141 -0.0403
 1436W        W17510   4.541   8.798   1.199 -0.0205 -0.0228 -0.1563
 1437W        W17511  12.586   0.708  11.852  0.0379 -0.1891 -0.3439
 1438W        W17512   7.820  16.910  13.899 -0.2213  0.0001  0.0136
 1439W        W17513   9.261  17.593   0.532 -0.1653  0.0889  0.1314
 1440W        W17514   8.202   7.829  11.893 -0.3860  0.0046  0.1507
 1441W        W17515  12.766   1.660  12.429 -0.2356  0.0383  0.0638
 1442W        W17516   0.421  18.301  11.706 -0.1854 -0.0766  0.3527
 1443W        W17517  16.479  10.361   1.188 -0.1160 -0.1163 -0.3661
 1444W        W17518  15.056   8.494  12.124 -0.0337 -0.0825  0.1436
 1445W        W17519  19.173  19.053   4.107  0.0544 -0.1862  0.0312
 1446W        W17520   2.839   4.038   0.546 -0.1142 -0.0303  0.2818
 1447W        W17521   5.371  12.922  13.242 -0.2199  0.3405 -0.2429
 1448W        W17522   3.651  14.307  11.460 -0.1213 -0.2805 -0.1722
 1449W        W17523  11.047  17.937  11.859  0.0029 -0.1492 -0.0612
 1450W        W17524   4.113   8.524   3.337  0.3552 -0.1174  0.0986
 1451W        W17525   3.690   6.535   3.423 -0.1121  0.0772  0.1911
 1452W        W17526   1.375   9.283   1.083 -0.4064  0.0425  0.0160
 1453W        W17527   6.852   8.489   4.083 -0.0355 -0.0137  0.0566
 1454W        W17528   7.277  13.105   0.775  0.2627  0.1222 -0.2556
 1455W        W17529   4.653  16.177  11.422 -0.1641  0.3361  0.1530
 1456W        W17530  17.158  16.403   2.344 -0.0127  0.0287  0.0553
 1457W        W17531  15.121  16.547  14.264  0.1823 -0.1718 -0.1671
 1458W        W17532  13.426  15.196   3.344 -0.1493 -0.0909  0.1924
 1459W        W17533  18.558  18.730   9.513 -0.1613 -0.4361  0.1413
 1460W        W17534   9.936  10.424  10.453  0.2282 -0.2672 -0.1715
 1461W        W17535   7.725  10.250   4.400 -0.2989 -0.2668  0.0010
 1462W        W17536   5.632   7.863   1.068 -0.1777  0.1304 -0.1174
 1463W        W17537  11.590   0.173  13.384 -0.1383  0.0948 -0.0176
 1464W        W17538   5.182   3.644  14.429  0.0877  0.1393  0.1543
 1465W        W17539   1.564   2.869   4.280  0.1100 -0.1194  0.1379
 1466W        W17540  18.177   4.259  11.655 -0.0899 -0.2620 -0.1347
 1467W        W17541   4.236  15.120   1.105  0.1177  0.2071  0.0681
 1468W        W17542   0.928   3.455  15.047 -0.1578 -0.2123  0.0900
 1469W        W17543  14.175   2.195  10.784 -0.0846  0.5064 -0.1673
 1470W        W17544  13.762   8.888  14.023 -0.0247  0.2506 -0.1231
 1471W        W17545   7.856   3.607  10.559 -0.1634 -0.1806 -0.3327
 1472W        W17546   6.521   5.043   2.158 -0.5519  0.1362 -0.1107
 1473W        W17547   2.980  16.411  12.126 -0.1923 -0.0268 -0.0928
 1474W        W17548  16.179   8.704  13.032 -0.1655  0.0012 -0.0272
 1475W        W17549   8.950  13.191   2.701 -0.1004  0.0131  0.0008
 1476W        W17550   4.676  17.574   1.037 -0.0773 -0.0960 -0.2994
 1477W        W17551  18.105   7.212   3.210 -0.0688  0.1715  0.1698
 1478W        W17552   2.160   9.522   3.495  0.2963  0.1150 -0.0441
 1479W        W17553   2.390   3.251  13.775  0.1330  0.1597  0.1044
 1480W        W17554  13.956  12.350   0.651 -0.2308 -0.2743 -0.1682
 1481W        W17555   7.978   6.184  12.988 -0.2373  0.0430 -0.0507
 1482W        W17556   6.771  13.065   4.550 -0.3592 -0.0829 -0.0347
 1483W        W17557  12.219  13.799   2.345  0.2933 -0.1686  0.1165
 1484W        W17558   7.293  13.067   2.036  0.1233 -0.2345  0.0126
 1485W        W17559  16.720   7.682  11.137  0.2305  0.0183  0.2127
 1486W        W17560   6.619  12.697   1.299  0.1913  0.0604 -0.2419
 1487W        W17561   1.906   8.516  12.053  0.0212  0.1510  0.1797
 1488W        W17562  15.369  14.020   1.068 -0.0171  0.1746  0.1622
 1489W        W17563   1.869  10.261  14.222 -0.1506  0.3091  0.0696
 1490W        W17564   4.669  14.539   4.199  0.0925 -0.1008  0.2020
 1491W        W17565   9.662  19.186   0.773  0.4359 -0.0663  0.1256
 1492W        W17566  17.166  12.381  10.131 -0.0250 -0.1790  0.4448
 1493W        W17567  14.991   3.343   0.281  0.2605 -0.1985 -0.5229
 1494W        W17568   2.867   2.386  11.849  0.0380 -0.4031  0.1285
 1495W        W17569  13.733   0.756   5.033  0.0939  0.2181 -0.0703
 1496W        W17570   9.688  11.322   2.013 -0.1485  0.0409 -0.1712
 1497W        W17571   9.970   5.629   2.604 -0.0108 -0.4603 -0.3297
 1498W        W17572  16.628  12.905   1.798  0.2800  0.0086  0.0643
 1499W        W17573  15.325  13.713   2.645  0.0827 -0.1039 -0.0522
 1500W        W17574  16.040   6.279   2.194 -0.2008  0.1509 -0.2527
 1501W        W17575  18.679  13.033   5.512 -0.0819 -0.1583 -0.0983
 1502W        W17576   1.372   0.404  11.830 -0.0649  0.2964  0.0829
 1503W        W17577   4.453  10.365  14.334 -0.1653 -0.2952  0.2978
 1504W        W17578   8.905   4.685   3.093 -0.2901  0.3402  0.1650
 1505W        W17579   5.424  11.361   5.310  0.2099 -0.0709  0.2266
 1506W        W17580  12.857   4.439   0.180  0.2537 -0.1780 -0.3300
 1507W        W17581  12.949  15.048  13.653 -0.1985  0.0914  0.0621
 1508W        W17582   1.621  12.362  13.615 -0.0176 -0.1064 -0.2796
 1509W        W17583   3.383   7.380   3.700 -0.0829  0.2435 -0.0671
 1510W        W17584   6.649   9.516  12.331  0.0147 -0.1803 -0.4160
 1511W        W17585   8.106  17.707  11.092  0.2168 -0.2269  0.0102
 1512W        W17586  16.874  12.321  11.756 -0.2133  0.3557  0.1463
 1513W        W17587  17.227   4.125   0.864  0.1722 -0.2359 -0.3079
 1514W        W17588  11.002   4.022   0.110 -0.0758 -0.2697 -0.1168
 1515W        W17589  18.181   6.486   3.866  0.1539 -0.2241  0.0102
 1516W        W17590   3.786   3.509   3.202 -0.0331  0.2744  0.0654
 1517W        W17591   7.091   3.573   5.971 -0.2246 -0.3899  0.2507
 1518W        W17592  18.670   3.890   2.877 -0.2225 -0.1810 -0.1174
 1519W        W17593  11.211   1.755   0.662  0.1617 -0.0159 -0.0755
 1520W        W17594  14.220  13.256   3.181 -0.0921  0.0890 -0.0290
 1521W        W17595   8.362   8.642   2.531  0.3969  0.0615 -0.3535
 1522W        W17596   2.722   4.119  13.827  0.1583  0.2069  0.1676
 1523W        W17597   5.730   8.385  11.321  0.0338  0.2796  0.0981
 1524W        W17598  14.611   9.539   5.412 -0.4094 -0.2648 -0.0917
 1525W        W17599  15.680  13.457  14.639  0.0246  0.2386 -0.0159
 1526W        W17600   1.360  17.694  12.676 -0.3647  0.2160 -0.2261
 1527W        W17601  14.467  18.385   0.678 -0.1381 -0.2561  0.2638
 1528W        W17602   7.671  14.670  15.049  0.0948 -0.0790  0.2656
 1529W        W17603  11.191  14.178  14.280 -0.1784 -0.0539 -0.3007
 1530W        W17604   4.838   3.136  13.828  0.2976  0.2636 -0.0190
 1531W        W17605   1.554   1.423   9.669  0.1347 -0.0526 -0.3444
 1532W        W17606   1.191  17.002   0.948  0.1837  0.0576  0.3315
 1533W        W17607   5.447   3.105   4.387  0.3252  0.0703  0.1852
 1534W        W17608  17.162   4.406   4.914 -0.2203  0.0620  0.0299
 1535W        W17609   0.644   1.179  11.867  0.2086  0.3324 -0.0296
 1536W        W17610  12.908   6.590  13.705  0.1072 -0.1657 -0.1870
 1537W        W17611   0.018   1.282   0.580 -0.0520 -0.0732  0.0451
 1538W        W17612   7.305  18.320   2.681  0.1221  0.0679 -0.3532
 1539W        W17613  15.263  17.070  11.000 -0.4114  0.2596  0.0596
 1540W        W17614   9.995  13.023   9.661  0.4187 -0.0810  0.2161
 1541W        W17615   9.917  14.694  10.854 -0.0200  0.0722 -0.0163
 1542W        W17616   4.293  16.990   0.706  0.1370  0.2315 -0.2994
 1543W        W17617   6.152  14.723  10.822  0.0259 -0.1373  0.4835
 1544W        W17618  12.519   5.344  13.175  0.0493 -0.0984 -0.0645
 1545W        W17619   2.739  12.568  15.034  0.2476  0.1350  0.0034
 1546W        W17620  10.816  15.847  11.992 -0.0561  0.1191 -0.2553
 1547W        W17621  15.009   5.885  15.040  0.0732  0.4120 -0.1865
 1548W        W17622   9.643   6.124  12.254 -0.2548  0.2250 -0.0513
 1549W        W17623  11.923   9.517  10.520 -0.1003  0.1993  0.1857
 1550W        W17624  11.230  13.615  14.992  0.1158  0.0681 -0.1487
 1551W        W17625  12.605   8.841  10.581  0.1323  0.4138 -0.0668
 1552W        W17626   1.439   6.570   3.975 -0.0266 -0.0984  0.2748
 1553W        W17627  18.026   9.034  13.669 -0.2312 -0.2626  0.0755
 1554W        W17628   5.276  13.222   9.356 -0.4472 -0.1270  0.0013
 1555W        W17629   7.466   0.517  12.933  0.1180  0.0999  0.3591
 1556W        W17630   7.077  16.220  13.007  0.1631 -0.1030  0.5535
 1557W        W17631  10.430  13.988   0.296 -0.1876 -0.1998  0.3042
 1558W        W17632  11.822   6.542   2.832 -0.2984 -0.4672 -0.1284
 1559W        W17633  15.438  15.889   2.330  0.2269  0.1764 -0.1071
 1560W        W17634   4.827   9.764   0.894 -0.2349 -0.1134  0.2029
 1561W        W17635  10.211   1.883  11.983  0.2092  0.1324  0.3417
 1562W        W17636  11.763  15.657   3.010  0.0062  0.0535  0.4105
 1563W        W17637   3.099  11.685  10.562  0.0613  0.2563 -0.1021
 1564W        W17638   0.826   7.315   5.122 -0.0352 -0.3124 -0.1525
 1565W        W17639  14.358  12.515   2.187  0.1858 -0.1304  0.0641
 1566W        W17640   5.666   4.148  13.798 -0.1523 -0.1032 -0.0041
 1567W        W17641  18.628   2.752  10.356  0.0910 -0.0459  0.1551
 1568W        W17642   1.629   7.493  14.520 -0.2739  0.3637 -0.0314
 1569W        W17643  10.213  15.481   2.887 -0.3285  0.1700  0.0328
 1570W        W17644   1.388  11.486  11.441  0.0474  0.0325  0.0606
 1571W        W17645   6.490  16.985  12.938  0.1450  0.0750  0.0051
 1572W        W17646  17.024  17.662  12.627 -0.2724 -0.1277  0.1984
 1573W        W17647  19.264   9.006   2.419  0.2060 -0.1456 -0.1097
 1574W        W17648   8.876   0.237   0.693  0.0671 -0.2794  0.1468
 1575W        W17649   0.071   5.538   1.437 -0.0235  0.1551  0.0424
 1576W        W17650   2.662   9.916   2.378 -0.2146  0.2364 -0.0546
 1577W        W17651  17.720   8.186  12.923  0.0342  0.1235 -0.0794
 1578W        W17652  18.064   8.794   3.118  0.0572  0.4043  0.3530
 1579W        W17653  18.200  11.156   3.810  0.0648  0.3025  0.4888
 1580W        W17654   5.950   2.801  14.764 -0.1117 -0.1101 -0.1312
 1581W        W17655   0.600  11.775  14.283  0.2476  0.0424  0.3786
 1582W        W17656   1.998   1.401   1.735 -0.3180  0.0149  0.4003
 1583W        W17657   8.468  14.885  14.430 -0.0688 -0.2383  0.4379
 1584W        W17658  11.486   8.668   1.114  0.2814 -0.0538 -0.1716
 1585W        W17659   9.777   5.198   5.822 -0.1103 -0.1466  0.1812
 1586W        W17660  15.108   4.442  12.851 -0.1740  0.0214  0.1202
 1587W        W17661   2.133   4.955  11.167  0.2250  0.1257 -0.2117
 1588W        W17662  18.486  15.943   3.662  0.0887 -0.1977  0.2800
 1589W        W17663  10.090  10.407   1.015  0.3193  0.3484  0.0560
 1590W        W17664  10.940   1.816   3.245  0.2370 -0.1863  0.0598
 1591W        W17665  16.476   6.063   1.283  0.0932 -0.0599  0.1117
 1592W        W17666   3.859   2.886  12.263 -0.0432 -0.0617  0.1141
 1593W        W17667   0.106  12.551   0.316 -0.2367  0.2992  0.1190
 1594W        W17668  15.987   2.596   2.739  0.1423 -0.3538 -0.0048
 1595W        W17669  12.434   4.993  12.840  0.0015  0.1302  0.2082
 1596W        W17670  13.979   4.705   4.900 -0.1988 -0.2089  0.1587
 1597W        W17671  16.249  13.500   4.105 -0.0638 -0.0321  0.0298
 1598W        W17672   2.831  15.470   4.644  0.2514 -0.2066  0.2873
 1599W        W17673   6.415   9.018  11.118 -0.1698 -0.2691  0.0596
 1600W        W17674   6.365   3.405  14.102  0.0920 -0.2341  0.0112
 1601W        W17675  15.758  12.618  12.347 -0.3241 -0.2530  0.0649
 1602W        W17676   7.168  18.066  10.177  0.0101  0.1267  0.0800
 1603W        W17677   3.051  17.271   0.860  0.0595 -0.1642 -0.0109
 1604W        W17678   5.991   1.331  14.252 -0.1962  0.2200  0.2027
 1605W        W17679  14.281   8.987   0.106  0.0008 -0.0850  0.1587
 1606W        W17680  14.952   4.820  11.768  0.2364 -0.1816  0.0337
 1607W        W17681  12.916   3.188  14.727 -0.1412 -0.1111  0.1673
 1608W        W17682  18.052   9.753  12.831  0.1679 -0.0868  0.0919
 1609W        W17683  10.485  16.571   2.536 -0.1325 -0.0187  0.1835
 1610W        W17684   5.042  12.655   5.173  0.0836 -0.0040 -0.0992
 1611W        W17685  16.320   4.016   2.637 -0.0005 -0.0026 -0.0377
 1612W        W17686   4.133  13.496   4.958  0.0881  0.1779 -0.0455
 1613W        W17687  16.766  10.175  12.959  0.0793 -0.1742  0.1793
 1614W        W17688   6.906  15.330  12.395 -0.2338  0.0682 -0.1777
 1615W        W17689   5.639  14.010  10.824 -0.2267 -0.1297 -0.1189
 1616W        W17690  17.992  15.623  12.227  0.0395  0.4069  0.0110
 1617W        W17691   9.064   2.204  11.756  0.0090  0.1465  0.1576
 1618W        W17692   9.203  12.810  13.366  0.4146  0.0075 -0.0637
 1619W        W17693  12.888  15.621  14.720 -0.3062  0.3143 -0.1487
 1620W        W17694   4.599  19.220   4.990 -0.1573  0.0611  0.0221
 1621W        W17695   5.762  14.497   0.180 -0.1207 -0.2050 -0.0440
 1622W        W17696  16.241   1.363  13.736  0.3035  0.3718  0.0780
 1623W        W17697  16.258   3.356   0.473  0.0646  0.3804 -0.1593
 1624W        W17698   6.868  10.861  14.359 -0.0047  0.0786  0.1837
 1625W        W17699  17.051   6.892   0.677  0.1194  0.1106 -0.1692
 1626W        W17700  18.926  11.308   1.990  0.3706 -0.1614  0.2817
 1627W        W17701   3.667   4.283   3.458 -0.1464  0.1984  0.4076
 1628W        W17702   2.577  14.687   1.729  0.1673  0.2492  0.0876
 1629W        W17703   9.299   6.826   5.333 -0.0602  0.2058 -0.0854
 1630W        W17704  17.939   5.462   0.221 -0.3485  0.2367  0.1204
 1631W        W17705  18.363   0.980  14.591 -0.0612  0.2507 -0.1529
 1632W        W17706   4.675  18.214  11.773 -0.1103 -0.2148 -0.1979
 1633W        W17707  18.762   0.240   4.712 -0.0430 -0.0917 -0.0510
 1634W        W17708   2.731   0.036  10.313 -0.2969 -0.1407  0.2265
 1635W        W17709  13.203   2.824  13.835  0.1146 -0.2624 -0.1057
 1636W        W17710   0.950  16.243  12.176  0.1712 -0.1262  0.1545
 1637W        W17711   4.102   0.800  13.551  0.0728 -0.2769  0.1329
 1638W        W17712  14.441   5.588  11.432 -0.2270 -0.0387  0.0756
 1639W        W17713   2.868  14.870   0.890 -0.3360 -0.0732  0.4311
 1640W        W17714   5.125  16.245  13.241  0.3209  0.1828  0.1149
 1641W        W17715  15.890  16.315   3.938 -0.1566 -0.1476  0.3881
 1642W        W17716   8.736  18.099   1.656  0.3589 -0.0836  0.0190
 1643W        W17717  17.193  12.862   9.692  0.0307  0.1417 -0.1001
 1644W        W17718   9.122   5.140   2.716 -0.0142 -0.0523 -0.0189
 1645W        W17719   9.489   3.684   0.337  0.1716 -0.1495 -0.4161
 1646W        W17720   0.524  11.869  13.178 -0.1632  0.0730 -0.1083
 1647W        W17721   3.379   2.758   2.615 -0.3267 -0.1279  0.3050
 1648W        W17722   4.770  18.450  12.403 -0.0306  0.2363 -0.2838
 1649W        W17723   2.254  14.738  13.583  0.1622 -0.2882  0.0886
 1650W        W17724  14.335  10.218  10.980  0.2917 -0.0585  0.1316
 1651W        W17725   1.995  12.966  10.932  0.1671 -0.0042 -0.0870
 1652W        W17726  14.561  17.206  13.801 -0.2127 -0.1037 -0.1383
 1653W        W17727   5.695   1.486  12.680 -0.0768  0.1492 -0.1005
 1654W        W17728  13.551  13.737   5.065  0.1085 -0.0947 -0.0241
 1655W        W17729  10.344   6.946   6.120 -0.0262 -0.2636 -0.0500
 1656W        W17730  17.174  14.067  14.499 -0.0803 -0.1461  0.1986
 1657W        W17731  17.092  16.264   4.537 -0.1196 -0.1806  0.1956
 1658W        W17732   1.866   5.824   1.455 -0.2683  0.3594  0.0479
 1659W        W17733  12.210  13.711   0.606  0.2173 -0.4657  0.1314
 1660W        W17734   5.505   8.314  14.624  0.0363  0.0533 -0.2561
 1661W        W17735   1.497  14.986   2.438 -0.3873  0.0942 -0.1674
 1662W        W17736   1.067   0.820   1.528  0.0737  0.0749 -0.0596
 1663W        W17737   8.552  12.773   0.029  0.1796  0.0463 -0.1190
 1664W        W17738  17.914  11.585   1.900  0.4222  0.1013 -0.0635
 1665W        W17739  11.349  13.563  12.593  0.0916 -0.0652 -0.1904
 1666W        W17740   0.875   7.404   0.189 -0.4244  0.1466 -0.0254
 1667W        W17741   4.951   7.244   4.690  0.0619 -0.1145  0.1166
 1668W        W17742  12.666  17.573   2.004 -0.4774 -0.3205  0.0722
 1669W        W17743   1.672   6.802  13.960 -0.0588  0.2229 -0.3093
 1670W        W17744  18.654  16.254   3.245  0.0355 -0.0282 -0.2296
 1671W        W17745  17.775   4.839  14.466  0.2337  0.0271 -0.1148
 1672W        W17746  16.176   2.657  13.675  0.0813  0.2296  0.2774
 1673W        W17747  18.663   4.046  12.090  0.4381  0.2219 -0.1674
 1674W        W17748   1.222  13.324  11.031 -0.1316  0.0883 -0.0494
 1675W        W17749   1.393   4.885   1.353 -0.0022 -0.1462  0.0351
 1676W        W17750  16.949   3.214  11.692  0.2541  0.1391  0.0138
 1677W        W17751  16.229  14.018   2.091  0.2375 -0.3471  0.1337
 1678W        W17752   7.077  17.779  14.524  0.0775  0.1780 -0.0034
 1679W        W17753   8.631   8.223  10.445 -0.2846 -0.0586  0.2010
 1680W        W17754  16.497  18.059  10.947  0.2131 -0.2589  0.1679
 1681W        W17755  13.178  12.314   4.022 -0.1497  0.0333  0.2455
 1682W        W17756   6.512  17.926   2.208  0.1886  0.1322  0.0509
 1683W        W17757  11.116   9.687  10.819 -0.1964 -0.2829  0.0220
 1684W        W17758  17.634  14.307   3.985  0.0872  0.1899 -0.1868
 1685W        W17759  15.154  15.238  10.185  0.3730 -0.1893 -0.2165
 1686W        W17760  17.240  18.534  12.453 -0.1210 -0.3474  0.0096
 1687W        W17761   2.085   5.679  13.477 -0.0629  0.0433 -0.0397
 1688W        W17762   4.758   3.427  14.493 -0.2506 -0.0771  0.0435
 1689W        W17763   2.775  18.434   4.339  0.1936  0.1630 -0.1187
 1690W        W17764  18.594  18.210  13.221 -0.0936 -0.2648 -0.1890
 1691W        W17765  18.915   0.035   0.941 -0.0193 -0.0240 -0.0505
 1692W        W17766  17.948  15.008  14.096  0.3555 -0.2501 -0.1110
 1693W        W17767   1.492  12.199   2.503  0.0551 -0.1545  0.1997
 1694W        W17768   5.951  18.099   0.455 -0.1128  0.0133  0.5004
 1695W        W17769  12.500   9.250   4.938 -0.0370 -0.0043 -0.0710
 1696W        W17770  15.541  17.559   0.930  0.2280  0.0115  0.2827
 1697W        W17771   1.212   0.304  13.978  0.1129 -0.0092 -0.0971
 1698W        W17772  13.532  17.766  14.348  0.0125 -0.0989 -0.2848
 1699W        W17773   4.317  18.652  11.990 -0.0068  0.2884 -0.0564
 1700W        W17774  17.329   0.894   4.682 -0.2708 -0.0488 -0.3456
 1701W        W17775   2.319   9.058  14.639  0.1583  0.1651 -0.4700
 1702W        W17776   0.077  18.638  12.105  0.0622  0.0865 -0.1167
 1703W        W17777  14.903   7.947  14.899  0.4591 -0.0551 -0.0782
 1704W        W17778   0.922   4.448   3.262  0.0336  0.1003 -0.1791
 1705W        W17779  12.408  18.428  11.553  0.1263  0.1026  0.0862
 1706W        W17780  13.822   5.519  12.143 -0.1251  0.2544  0.4007
 1707W        W17781   2.810  10.592  12.872  0.5804  0.0899  0.1926
 1708W        W17782   8.256  14.615  13.516  0.0317  0.2611 -0.1894
 1709W        W17783  16.735   8.080   9.819  0.2333  0.2429 -0.1655
 1710W        W17784  14.870   6.126   1.631 -0.0090  0.0907  0.1307
 1711W        W17785  12.905   1.769  11.489  0.3071 -0.4299  0.2995
 1712W        W17786  17.781  13.749   2.980 -0.1218 -0.2003 -0.1436
 1713W        W17787   6.040  17.414  10.991 -0.2339 -0.0315  0.1574
 1714W        W17788   4.934  12.998  14.254  0.1381  0.1728 -0.1631
 1715W        W17789   5.615   7.011  11.070  0.0290 -0.1319 -0.1070
 1716W        W17790   5.773  15.699   2.080 -0.0943  0.1157  0.1410
 1717W        W17791  14.905  10.719   5.419 -0.2091 -0.0358  0.3634
 1718W        W17792   1.063   3.194   3.600 -0.2141 -0.1657  0.1389
 1719W        W17793  12.223   6.545  12.867  0.0815 -0.0794 -0.5137
 1720W        W17794  14.167  12.272  12.503  0.0769  0.0065 -0.2684
 1721W        W17795   1.651  11.666   3.977  0.0964  0.0569  0.1694
 1722W        W17796   1.342   1.648   0.365  0.2343  0.1559  0.0198
 1723W        W17797   4.924   4.418  10.169  0.3360  0.1359 -0.0444
 1724W        W17798   4.749   4.860   5.193  0.2067 -0.5496  0.3768
 1725W        W17799  13.423  18.536  11.568  0.3956  0.2210 -0.0847
 1726W        W17800   7.333  13.840   4.376  0.0597  0.2229  0.3494
 1727W        W17801   9.524   5.532   3.422 -0.0034  0.0513 -0.0383
 1728W        W17802   1.733  18.918   1.302 -0.3523 -0.2417  0.3552
 1729W        W17803   9.484   0.272   4.299  0.1425 -0.0888  0.0430
 1730W        W17804  17.298   7.106  14.111  0.1659  0.0419 -0.1305
 1731W        W17805   3.544   7.916   0.252  0.2499 -0.1071 -0.2833
 1732W        W17806   5.184   6.644   4.549 -0.0482 -0.1392 -0.3190
 1733W        W17807   9.539  13.552   0.217  0.0390  0.0237  0.0320
 1734W        W17808  12.603  10.248   0.913 -0.1409 -0.2272  0.1729
 1735W        W17809   6.827   3.747  12.654  0.0012 -0.0899  0.1456
 1736W        W17810   6.527   5.880  12.999  0.0110 -0.0574 -0.0682
 1737W        W17811  16.510  12.742  11.598 -0.3510  0.0493  0.1859
 1738W        W17812  13.572   5.417  11.581 -0.0698 -0.1950  0.2549
 1739W        W17813   1.274   5.224  14.706 -0.2574  0.1917  0.1344
 1740W        W17814   1.780   9.042   2.896 -0.0382 -0.1555 -0.1786
 1741W        W17815   6.967   1.574  12.978  0.4354  0.3397  0.0575
 1742W        W17816   5.591   6.838   1.320 -0.0705 -0.0362  0.1859
 1743W        W17817   1.685   9.384   4.452 -0.0598  0.1100  0.3170
 1744W        W17818  16.807   5.854  12.190  0.2772  0.0413  0.0310
 1745W        W17819  13.425   5.459   2.027 -0.2573  0.1702 -0.1050
 1746W        W17820  16.020   1.511   0.322 -0.0741 -0.0568 -0.0540
 1747W        W17821  11.310  11.133  13.452  0.0869  0.2141 -0.0594
 1748W        W17822  10.610   4.860  12.979  0.0126 -0.0542  0.3542
 1749W        W17823  16.372  14.364   4.949 -0.0292 -0.2817 -0.0462
 1750W        W17824   5.709  18.558  11.813  0.3515 -0.0038  0.0419
 1751W        W17825  12.184  17.486  14.840 -0.2928  0.0542  0.2154
 1752W        W17826  17.355  13.241  12.403  0.0923 -0.1364 -0.1671
 1753W        W17827  17.633  14.486   4.994  0.1268 -0.2179  0.1438
 1754W        W17828  17.862   1.542   3.977  0.0623 -0.1766  0.0386
 1755W        W17829   8.617  14.634   0.651 -0.0058  0.0573 -0.2151
 1756W        W17830   8.321   7.439  12.739  0.0972 -0.2126 -0.0132
 1757W        W17831  10.747  16.051   2.460 -0.0280 -0.1582 -0.0920
 1758W        W17832  13.936   9.062   4.748  0.0921 -0.1288  0.0505
 1759W        W17833  15.724   0.335  12.804 -0.2656 -0.6518  0.0746
 1760W        W17834   4.170  18.002   5.150  0.1070 -0.0658 -0.0389
 1761W        W17835  11.282   2.363  12.814  0.1457  0.1875  0.6416
 1762W        W17836  14.827   1.110   2.404 -0.4695 -0.0836  0.1608
 1763W        W17837   9.783  14.593  13.892  0.2619  0.3216 -0.0188
 1764W        W17838  11.425   3.048  12.082  0.3680  0.0127 -0.2061
 1765W        W17839  11.675   6.515  13.611 -0.2716  0.1470  0.1232
 1766W        W17840  18.732   0.657  13.422 -0.0642  0.2225 -0.1498
 1767W        W17841   4.589  12.152  14.718 -0.0360  0.0559 -0.0614
 1768W        W17842   0.335   9.646  13.161  0.0699  0.1057 -0.1235
 1769W        W17843  15.748  12.793   4.098 -0.1735  0.1901  0.0169
 1770W        W17844   6.582  13.451  13.563  0.0502 -0.1262  0.1207
 1771W        W17845   1.404  19.190  11.619  0.3002 -0.0452 -0.0956
 1772W        W17846   6.147   3.697   1.215  0.1751 -0.3566  0.0411
 1773W        W17847  13.572  12.504   3.721 -0.1869  0.4024 -0.2879
 1774W        W17848   5.212   7.778  14.423 -0.0427  0.0548  0.0379
 1775W        W17849  11.422  19.201   4.867 -0.3998  0.3055  0.0912
 1776W        W17850  18.698   7.219   2.712  0.2645  0.1866 -0.0562
 1777W        W17851   2.260   4.822   2.610 -0.4737  0.0808  0.0208
 1778W        W17852  14.394  15.301   4.267  0.1955  0.1670 -0.0321
 1779W        W17853   6.955  11.654  12.092 -0.2323  0.0771  0.0991
 1780W        W17854   4.143   7.854   2.046  0.3018  0.2271  0.1451
 1781W        W17855  13.989  16.731   3.075  0.2528 -0.1215 -0.2612
 1782W        W17856   8.848   9.087   3.604  0.1950 -0.1696 -0.3129
 1783W        W17857  11.932   3.847  11.155  0.3157 -0.0609 -0.3138
 1784W        W17858  18.348   8.011   2.737 -0.0148 -0.0296 -0.2153
 1785W        W17859   9.447  15.747   2.935 -0.1021  0.0440  0.3834
 1786W        W17860   6.912   4.417   5.181 -0.0238  0.2388  0.0717
 1787W        W17861   0.394  11.054  11.573  0.1693  0.3974  0.0539
 1788W        W17862   1.284   1.470   2.491 -0.1168 -0.0147  0.2246
 1789W        W17863  16.857  10.559  14.692 -0.1008 -0.2021 -0.0303
 1790W        W17864  17.717   8.606   1.438  0.3549 -0.3542  0.1524
 1791W        W17865   5.251   2.811  14.004 -0.0168 -0.0873 -0.0993
 1792W        W17866  18.229   1.371  12.059  0.2984  0.1454 -0.0297
 1793W        W17867   6.351   4.107  12.841 -0.0994 -0.5511  0.2597
 1794W        W17868  13.126   4.225  12.680  0.0425 -0.0416 -0.0252
 1795W        W17869  11.879   4.475  13.019 -0.1031 -0.2990 -0.0611
 1796W        W17870  15.808   9.537   4.357  0.3038 -0.1584  0.1258
 1797W        W17871  10.815  14.488  13.502 -0.1843  0.1128 -0.3385
 1798W        W17872   3.757  17.424   0.513 -0.2649  0.1704 -0.0586
 1799W        W17873   1.268   4.678   3.493 -0.4135  0.1782 -0.2829
 1800W        W17874  10.861  10.740  14.908  0.2575 -0.0105 -0.2338
 1801W        W17875  14.490  10.462   2.053  0.0889 -0.2969 -0.1643
 1802W        W17876  19.016  11.446  12.386  0.0598  0.2223  0.0066
 1803W        W17877  17.842  17.886  14.191  0.3000 -0.0065 -0.0980
 1804W        W17878  16.033  19.057   0.305  0.0989 -0.2177 -0.1549
 1805W        W17879   3.352   4.078   3.854 -0.1564 -0.0624 -0.1025
 1806W        W17880  10.326  14.181  14.464  0.0611  0.1089  0.1024
 1807W        W17881  16.783  15.611  11.670 -0.1394  0.0602  0.0316
 1808W        W17882  11.171   5.447  12.157 -0.2298  0.3685  0.5709
 1809W        W17883  12.289  17.622  10.530 -0.0388 -0.0367 -0.2322
 1810W        W17884  14.357  18.061  13.750  0.2211  0.3971 -0.0405
 1811W        W17885   7.029   9.378  12.849 -0.1885  0.0597  0.0428
 1812W        W17886   3.245  12.570   3.422  0.0268 -0.0544 -0.2031
 1813W        W17887   9.898  12.498  11.245  0.0027 -0.0685 -0.1560
 1814W        W17888   6.401  10.354  12.665 -0.1285  0.1425  0.0937
 1815W        W17889  18.598  16.762  14.322 -0.1594  0.0160 -0.1429
 1816W        W17890   8.144   8.433   3.116  0.0309  0.2770  0.0830
 1817W        W17891  15.595  10.301  11.018 -0.0491 -0.3331  0.0153
 1818W        W17892   6.666  15.176  13.422 -0.3757 -0.2757 -0.0584
 1819W        W17893  16.839   1.556   4.006 -0.2356  0.1486  0.3382
 1820W        W17894  18.114  13.267  11.612  0.3145  0.0625  0.1794
 1821W        W17895  16.478   1.479   0.176 -0.2912  0.0860  0.1873
 1822W        W17896   4.564  12.670   3.954  0.1452 -0.4792  0.1984
 1823W        W17897   1.341  13.221  10.062 -0.2318 -0.2306 -0.0194
 1824W        W17898  18.808  10.080   0.919  0.1217 -0.1406 -0.1529
 1825W        W17899   4.879   3.645  12.141 -0.2425  0.2918  0.0803
 1826W        W17900   5.683  11.180   4.914 -0.2552 -0.2821  0.3973
 1827W        W17901   3.941   7.632  14.575 -0.2456  0.0697  0.0088
 1828W        W17902   8.120  19.134   2.609  0.1600 -0.3654 -0.0319
 1829W        W17903   6.120  11.942   3.865  0.6456 -0.1593  0.1972
 1830W        W17904   1.528   2.721  12.072  0.4930 -0.0949 -0.2574
 1831W        W17905   3.726   7.367   4.597 -0.4988  0.0394 -0.1158
 1832W        W17906   3.452  13.381   0.939  0.2598  0.1657 -0.0548
 1833W        W17907   5.267   4.104  14.172  0.0446  0.1192 -0.0172
 1834W        W17908  17.585   1.098  11.305 -0.1238  0.2669 -0.2045
 1835W        W17909  14.356  17.776  14.466  0.2870 -0.0821 -0.2923
 1836W        W17910   5.828   7.551   0.638  0.0227  0.0065  0.1525
 1837W        W17911  14.047   1.046  12.777  0.2293 -0.3930 -0.0674
 1838W        W17912  13.735   7.337  13.539 -0.0192  0.4025 -0.1567
 1839W        W17913   5.819   5.053   0.668  0.0607 -0.0224  0.2164
 1840W        W17914  14.732  13.871  12.296 -0.2163  0.1380  0.0402
 1841W        W17915  18.348   8.214   1.077 -0.1801  0.0678 -0.0664
 1842W        W17916  12.268  11.654  12.083  0.0647  0.0533  0.0624
 1843W        W17917   9.327   3.766  10.125 -0.0478  0.3020 -0.1733
 1844W        W17918   0.125  14.411  11.576 -0.0150 -0.2661 -0.1198
 1845W        W17919  15.432   2.113   2.401  0.1075 -0.0813 -0.1206
 1846W        W17920   4.511  18.279  13.248 -0.2910  0.2713 -0.1521
 1847W        W17921   5.866   4.757  13.919  0.1588 -0.0015 -0.0104
 1848W        W17922  14.919  14.900   0.545 -0.0538  0.0737  0.2486
 1849W        W17923  14.455   7.155  12.686 -0.0412  0.3374 -0.2536
 1850W        W17924  17.048   0.086   3.554 -0.0001  0.0987 -0.0606
 1851W        W17925   8.386  18.808  13.686  0.3526 -0.1130 -0.0646
 1852W        W17926  18.608   5.018   1.628 -0.0766 -0.2040  0.0330
 1853W        W17927   6.951  14.906  10.385 -0.0404  0.1106  0.2379
 1854W        W17928   4.956   9.191   4.501  0.2013 -0.0590  0.0143
 1855W        W17929   3.916  15.109   0.235 -0.1249 -0.1348  0.1048
 1856W        W17930  17.312  17.882   8.713  0.0951 -0.0263  0.0566
 1857W        W17931  17.030  10.440   4.193 -0.1666  0.2332 -0.1023
 1858W        W17932   4.955   4.421   4.214 -0.0296  0.3700 -0.2602
 1859W        W17933  18.103   6.372  13.215  0.4297  0.1507  0.1035
 1860W        W17934  16.867   9.935   4.302 -0.1023 -0.0849 -0.1717
 1861W        W17935  14.592   4.237  12.122 -0.1634 -0.2892 -0.0298
 1862W        W17936   2.115   2.623   4.789 -0.2310  0.0072 -0.0194
 1863W        W17937   5.311  15.397  11.531  0.2203 -0.0149 -0.2602
 1864W        W17938   0.863   9.577   1.789  0.4284  0.1291 -0.1279
 1865W        W17939  10.167   6.532  13.477 -0.0365  0.3670 -0.1026
 1866W        W17940  15.471  11.522   0.107 -0.5136 -0.0530  0.3112
 1867W        W17941   4.311   1.306   0.756 -0.0393 -0.3072 -0.0196
 1868W        W17942   2.778   9.104  14.890 -0.0544 -0.1479 -0.1883
 1869W        W17943  13.783   9.841   1.082 -0.1032 -0.2462  0.1617
 1870W        W17944  11.949   4.933  12.920 -0.0125 -0.1713  0.0088
 1871W        W17945   7.884  18.134   4.027 -0.0181  0.0727 -0.2795
 1872W        W17946   4.017   7.927  10.716  0.0463 -0.1018 -0.0735
 1873W        W17947  12.234  15.083  14.138  0.0770  0.0599 -0.2164
 1874W        W17948   8.955   6.926   2.653 -0.0970  0.0569 -0.3119
 1875W        W17949  12.360   4.855   4.073 -0.0859 -0.4453  0.1615
 1876W        W17950  16.459  18.918  14.607  0.0332 -0.1983  0.2091
 1877W        W17951  11.576   0.320  12.223 -0.1052 -0.1904  0.1849
 1878W        W17952  17.435   8.263   4.573  0.1221 -0.0411 -0.1136
 1879W        W17953  12.855  12.165   4.330  0.3777  0.1670  0.1007
 1880W        W17954   4.673  18.271  14.076  0.0644 -0.1055  0.0987
 1881W        W17955   7.465  12.493  13.610 -0.0397 -0.0814  0.1628
 1882W        W17956  11.542   5.351   3.707 -0.0534 -0.0046 -0.1069
 1883W        W17957  14.248   9.900  12.999  0.0808  0.2304  0.4234
 1884W        W17958   5.744   9.532  10.770 -0.1143 -0.2188 -0.0358
 1885W        W17959  17.735   4.494   5.010  0.1782 -0.0745  0.0734
 1886W        W17960  14.231  12.409  14.282  0.0001 -0.0390 -0.4861
 1887W        W17961  10.888   4.158   4.058 -0.3556  0.1346 -0.0495
 1888W        W17962   1.945   0.871   4.040  0.1959 -0.1024  0.0218
 1889W        W17963  16.397   2.072  13.104 -0.3142 -0.0884  0.0902
 1890W        W17964   0.634  14.528   0.588  0.2394  0.1483 -0.1684
 1891W        W17965   8.969   0.355   0.186  0.0598  0.0470  0.1156
 1892W        W17966   1.215  17.485  14.767 -0.0641 -0.0344  0.2302
 1893W        W17967   2.505  10.081   4.316 -0.1320 -0.3420  0.0008
 1894W        W17968  12.803   8.379  14.206  0.1409 -0.0339 -0.0366
 1895W        W17969  12.195   3.898   2.360 -0.0222  0.2137  0.1346
 1896W        W17970   0.860   4.846   2.593  0.0640 -0.0097  0.0767
 1897W        W17971  17.679  10.633  10.985 -0.0356 -0.3781  0.1977
 1898W        W17972   9.608   6.053   3.452 -0.0644  0.2157 -0.0424
 1899W        W17973   5.547  12.134   2.319  0.0185 -0.3862  0.2035
 1900W        W17974  16.530  14.743  14.890 -0.2508 -0.1514  0.1729
 1901W        W17975   3.962  14.415   2.759 -0.1293  0.1289 -0.0220
 1902W        W17976   7.677   1.572   4.933 -0.1033 -0.0248  0.1419
 1903W        W17977   0.867   1.450  10.307  0.0129 -0.0659  0.1885
 1904W        W17978  14.131  11.866  13.331 -0.1199  0.1358 -0.1673
 1905W        W17979  17.714  16.094  13.479  0.1833 -0.3025 -0.1751
 1906W        W17980  14.856  18.638  11.175 -0.1878  0.0617 -0.3268
 1907W        W17981  12.552   7.849  13.987  0.1871 -0.0020 -0.2189
 1908W        W17982  14.477  13.664  11.475  0.0380 -0.0424  0.0152
 1909W        W17983   2.448  15.315   5.197 -0.0369  0.0708 -0.0347
 1910W        W17984   8.721   0.720   0.558 -0.2672  0.2192  0.1677
 1911W        W17985   2.562  14.347   2.083 -0.3186 -0.5619  0.0015
 1912W        W17986   6.259  15.051  12.667  0.1097 -0.1808 -0.0411
 1913W        W17987   4.427   6.257   4.014  0.2630  0.0344 -0.0922
 1914W        W17988   0.460  17.986   0.181  0.3037 -0.0551  0.1380
 1915W        W17989   9.373   1.196   0.616 -0.0857  0.3190 -0.2417
 1916W        W17990   9.822  13.019  14.866  0.0891 -0.0014  0.1168
 1917W        W17991  12.314  12.060   1.365 -0.0817 -0.0320 -0.3808
 1918W        W17992  10.061   2.974  14.884 -0.1342 -0.0607  0.0051
 1919W        W17993   4.239   5.075   0.360 -0.3111  0.1766 -0.4267
 1920W        W17994   3.468   7.171  10.186 -0.0142 -0.0555  0.2292
 1921W        W17995   9.285  11.173  12.183 -0.3489  0.2580 -0.0574
 1922W        W17996  14.963  14.077  11.099 -0.0483 -0.0664  0.3092
 1923W        W17997   1.200   4.410   1.434  0.0707 -0.1998 -0.0782
 1924W        W17998   6.995  17.545  10.922 -0.0991 -0.1583 -0.2065
 1925W        W17999  17.911   1.242  11.680  0.0543  0.1461  0.0757
 1926W        W18000  15.674  17.364   0.368 -0.0664 -0.2235 -0.1988
 1927W        W18001   5.127   3.499   2.979 -0.1195  0.1156 -0.1548
 1928W        W18002  13.348  18.702   3.163  0.1265 -0.1760  0.1067
 1929W        W18003  10.567  11.291  13.133  0.0818  0.3522  0.0947
 1930W        W18004   7.571  16.284   1.492 -0.4039  0.2420 -0.0366
 1931W        W18005  13.866  12.119  14.523  0.1685 -0.1728 -0.1966
 1932W        W18006  13.380   8.341  11.269  0.2870  0.0247  0.2506
 1933W        W18007  13.263  16.778   1.803 -0.2744 -0.0913 -0.1305
 1934W        W18008   9.880  10.384  14.383  0.4282  0.1570 -0.2555
 1935W        W18009  15.069  12.812  12.811 -0.0210  0.1321 -0.0276
 1936W        W18010   5.483  12.461  14.290  0.0507  0.1254 -0.0403
 1937W        W18011  10.712   7.921   1.714 -0.2884  0.0006  0.0547
 1938W        W18012  13.730   2.536   0.567  0.1164  0.1398  0.3674
 1939W        W18013  19.196  13.912   0.376  0.0061  0.1096  0.4242
 1940W        W18014   9.289   5.164   3.768 -0.2674 -0.3382 -0.3472
 1941W        W18015  16.294   9.035   3.857 -0.0864  0.0209 -0.2130
 1942W        W18016   6.660   9.333  11.437 -0.0181  0.3841 -0.0162
 1943W        W18017  17.390  11.023   0.899  0.0128  0.2895  0.1910
 1944W        W18018  14.633  14.461   9.772  0.2702 -0.0035  0.1981
 1945W        W18019   1.423  19.189  14.253  0.1616 -0.0892  0.1784
 1946W        W18020   3.296   7.591   4.148  0.1489 -0.0686 -0.1252
 1947W        W18021  18.496  18.035  10.911 -0.1249  0.2144 -0.1068
 1948W        W18022  10.571  12.949   2.805 -0.1641 -0.1643  0.2350
 1949W        W18023   7.306   3.330  11.121  0.1419 -0.1562 -0.1612
 1950W        W18024   3.050   8.765   1.397 -0.0407 -0.0371 -0.1566
 1951W        W18025   1.829   7.789   3.233  0.0894  0.2348 -0.2802
 1952W        W18026  18.484   2.676  14.201  0.0554  0.1611  0.3443
 1953W        W18027  14.156   7.178   0.094  0.2009  0.0856  0.0240
 1954W        W18028   1.028  17.975   2.601  0.1454 -0.0489  0.0771
 1955W        W18029  14.906   6.916  14.669  0.1248 -0.3202  0.0498
 1956W        W18030   3.737  10.634   1.171  0.3989 -0.1593  0.0586
 1957W        W18031  17.738  11.986  13.662 -0.2645  0.3944 -0.0584
 1958W        W18032   5.167  18.207  11.614  0.3308 -0.1218 -0.0910
 1959W        W18033  15.070   8.365  10.261  0.1194  0.0683  0.0659
 1960W        W18034  18.420  14.983  14.321 -0.0343 -0.2257 -0.3825
 1961W        W18035  14.092   8.504   0.191  0.1876  0.1034  0.1508
 1962W        W18036  19.258  15.637   0.905  0.0745  0.1154 -0.2527
 1963W        W18037  11.913  15.451   9.713 -0.0204 -0.2479 -0.1726
 1964W        W18038   2.240   6.298  14.161 -0.0308 -0.3575  0.3290
 1965W        W18039   9.613   4.284   4.759 -0.1219  0.2847  0.0997
 1966W        W18040   0.230  11.011   0.389  0.2370  0.0735 -0.0471
 1967W        W18041   4.599   1.282   0.330 -0.1183 -0.0896 -0.0918
 1968W        W18042  12.747  10.095   0.272  0.0470  0.1499  0.0093
 1969W        W18043  10.262   2.246   0.609  0.0717  0.3128 -0.3751
 1970W        W18044   8.683   5.758   3.821  0.0560  0.1999  0.0847
 1971W        W18045   4.945  11.679   4.910  0.1623 -0.3721  0.5167
 1972W        W18046   0.512   0.509   2.292 -0.3759  0.1148  0.1273
 1973W        W18047   3.555   5.313   0.485 -0.1342  0.4182 -0.1522
 1974W        W18048  10.940  14.873  11.932 -0.0755  0.0259 -0.1498
 1975W        W18049  18.230   4.970  12.886  0.1216 -0.0185  0.0485
 1976W        W18050  12.116  15.365   2.692  0.0134  0.0432  0.0965
 1977W        W18051   7.898   4.927  12.525 -0.2017  0.1504  0.0341
 1978W        W18052   4.381  18.527  10.988 -0.1359 -0.2028 -0.1406
 1979W        W18053  15.890   5.740   3.944  0.0952 -0.2934 -0.4420
 1980W        W18054   2.546   7.149  13.674  0.0453 -0.1786 -0.0752
 1981W        W18055  13.793  15.639   5.112  0.2159 -0.2130  0.0417
 1982W        W18056   3.998  16.876   2.496 -0.0577 -0.1176 -0.0117
 1983W        W18057  12.645   0.967  10.387  0.1252  0.0045  0.0574
 1984W        W18058  11.115   4.408   5.031  0.2291  0.0890 -0.0689
 1985W        W18059  14.974  11.023   9.229  0.0174  0.1432  0.1701
 1986W        W18060   0.838   6.003  12.712 -0.0668  0.3091  0.1136
 1987W        W18061   9.208  10.285  13.880  0.1063 -0.2156  0.1763
 1988W        W18062  18.823   8.372   3.480 -0.2464  0.2291  0.2032
 1989W        W18063   5.256   0.216   6.068  0.0979 -0.2149  0.1078
 1990W        W18064   7.801   5.344   2.176 -0.0438 -0.0312  0.0424
 1991W        W18065   9.613  18.001  12.081  0.0604 -0.1390 -0.3926
 1992W        W18066   9.415  16.526   2.348 -0.0575 -0.0080 -0.0853
 1993W        W18067   9.394  18.955   4.242 -0.0054 -0.1021 -0.5124
 1994W        W18068   6.997  16.999   2.020  0.0951 -0.1627 -0.2180
 1995W        W18069   3.204   8.830  14.146  0.0857  0.3929  0.3618
 1996W        W18070  18.550  12.889  13.102 -0.1581  0.0630  0.0685
 1997W        W18071  12.825  18.483   1.859 -0.1889  0.1589 -0.1191
 1998W        W18072   0.167  16.335   1.323  0.3057 -0.2387  0.2325
 1999W        W18073  15.685  12.431  10.743  0.0520 -0.1679 -0.3109
 2000W        W18074   3.386  18.248  14.490 -0.1408 -0.1060 -0.2517
 2001W        W18075   2.623  12.592   1.672  0.0471 -0.1362  0.1553
 2002W        W18076   3.945  12.501  11.492 -0.0094  0.4535 -0.0211
 2003W        W18077  14.759  16.036  14.542 -0.1394 -0.2957  0.1326
 2004W        W18078  15.352  17.709   0.394  0.3663  0.0839 -0.1447
 2005W        W18079   4.430  13.172  13.306  0.1974 -0.3298  0.2631
 2006W        W18080   3.158  12.228  13.634  0.1026 -0.1427  0.1762
 2007W        W18081   6.322   5.997   0.405 -0.0481  0.1990 -0.0462
 2008W        W18082  17.541   1.060  10.402  0.0650 -0.4348 -0.2145
 2009W        W18083  16.302   8.170   4.677 -0.2098  0.1032  0.4179
 2010W        W18084  18.133  11.213  11.546 -0.0515 -0.4504 -0.4304
 2011W        W18085  12.606  13.149  11.974 -0.1073 -0.1910  0.0684
 2012W        W18086  18.245  11.946  12.083 -0.0549  0.0077 -0.1418
 2013W        W18087  14.511  13.023  10.719 -0.3604  0.1835  0.2534
 2014W        W18088   1.183   5.055  12.911  0.0619  0.2396 -0.1580
 2015W        W18089   6.055  15.343   3.874  0.0973  0.0925 -0.0100
 2016W        W18090   8.623  15.995  11.279 -0.0027  0.1936  0.1074
 2017W        W18091  15.790  18.087  12.593  0.2743 -0.1105  0.0107
 2018W        W18092   5.198  15.674   4.286  0.1203 -0.1154  0.1793
 2019W        W18093   2.790   6.124   2.403 -0.1678 -0.0223  0.3845
 2020W        W18094  17.086   5.508   1.414 -0.0697 -0.1307 -0.0022
 2021W        W18095  13.908   5.289   1.369  0.2406 -0.0182 -0.0679
 2022W        W18096   9.179  10.496   3.366 -0.1160  0.0680 -0.1492
 2023W        W18097   1.178   5.452   4.918  0.1177 -0.0057 -0.0470
 2024W        W18098  15.217  13.327   1.865 -0.0196 -0.1736 -0.1214
 2025W        W18099   7.377  15.638  13.039  0.0403  0.0360  0.0301
 2026W        W18100   5.911   6.642   4.785  0.0685 -0.1928  0.3416
 2027W        W18101  14.513   3.568  10.014 -0.1558  0.1831  0.0693
 2028W        W18102   8.746   5.550   2.493  0.1046 -0.0844  0.1166
 2029W        W18103  18.033  12.286   0.562 -0.0427 -0.0713  0.0230
 2030W        W18104  14.956  16.221   1.563  0.0496 -0.2853  0.2079
 2031W        W18105   0.646   3.470  13.274 -0.0806  0.0045  0.2489
 2032W        W18106   0.942  18.548   9.873 -0.3417  0.2003 -0.2103
 2033W        W18107   3.335  13.272  13.433  0.0045  0.2501  0.0718
 2034W        W18108  16.351   8.013  13.964 -0.1925 -0.1204  0.0884
 2035W        W18109   3.688   3.728   2.085 -0.0266  0.1196 -0.1050
 2036W        W18110   0.679  15.239   1.642  0.0436  0.2326 -0.2683
 2037W        W18111   5.593   4.680   3.466  0.0955  0.0017 -0.1180
 2038W        W18112  15.394   5.276   1.158 -0.3423 -0.1480 -0.0860
 2039W        W18113   1.339   8.689  11.839  0.0022 -0.1704  0.1068
 2040W        W18114   8.901   4.418  11.161 -0.1197  0.0163 -0.2564
 2041W        W18115  13.902  13.605  12.295 -0.2274  0.2429  0.1719
 2042W        W18116  18.135   6.741  11.018 -0.1224  0.1630 -0.0536
 2043W        W18117  16.072   6.452   0.020 -0.0008  0.3635 -0.0969
 2044W        W18118   6.093  16.812  13.306 -0.0509 -0.0647 -0.1830
 2045W        W18119   1.079  16.158  14.846 -0.1083  0.2345 -0.0929
 2046W        W18120   1.084   0.228   5.523  0.1746 -0.1250  0.1352
 2047W        W18121   6.465   4.305   1.011 -0.2977 -0.2223 -0.0837
 2048W        W18122  10.639  15.260   0.042 -0.2462  0.0227  0.1395
 2049W        W18123   2.333  13.140  14.432  0.0589  0.1642  0.1850
 2050W        W18124  19.200   6.202  14.064 -0.2243 -0.0618  0.6152
 2051W        W18125   5.216   4.785   3.947  0.3061  0.0650  0.0710
 2052W        W18126   2.250   9.058  13.587 -0.2661  0.0699 -0.0538
 2053W        W18127   6.966  19.224   2.868  0.1248  0.2482 -0.0672
 2054W        W18128   9.046   7.413   6.348 -0.1808  0.1266  0.0460
 2055W        W18129  14.847   4.195   3.012 -0.1536 -0.0974 -0.0488
 2056W        W18130  14.850  16.069   3.013 -0.0547 -0.0653 -0.0930
 2057W        W18131   8.386   0.604   0.032  0.1683  0.0137  0.0816
 2058W        W18132  14.510  18.696   4.160  0.1358  0.1373  0.0419
 2059W        W18133   5.443   6.752  12.098 -0.0692  0.0195 -0.1410
 2060W        W18134   5.403  13.566   9.752 -0.0105 -0.0563 -0.0058
 2061W        W18135  16.715   7.786   1.847  0.0295 -0.0595  0.3397
 2062W        W18136   3.190  15.712  10.562 -0.1493  0.1024  0.4181
 2063W        W18137   1.615  10.594  12.976  0.0411 -0.0641 -0.1609
 2064W        W18138   8.064  10.923   0.737  0.0268  0.0670  0.0652
 2065W        W18139  18.056  12.084  12.516  0.3911  0.2414  0.1600
 2066W        W18140   0.220   3.306  14.918  0.1965  0.2860  0.0111
 2067W        W18141   0.722  18.061  13.543  0.0338 -0.2088 -0.1768
 2068W        W18142   0.439  12.889   4.378  0.1484 -0.2468 -0.0896
 2069W        W18143   3.281  19.086   2.532  0.1311 -0.0979  0.0655
 2070W        W18144   1.472  18.400   3.301  0.1470 -0.1370 -0.0906
 2071W        W18145  12.950   0.829  12.678  0.0138  0.5066 -0.1423
 2072W        W18146  10.010   0.179  13.506  0.0500  0.2251  0.0175
 2073W        W18147  14.154  10.453  10.613 -0.0873  0.2575  0.0642
 2074W        W18148  19.067   0.890   2.580  0.1583  0.2678  0.3024
 2075W        W18149  16.302   6.488  12.503  0.1675  0.0848  0.1568
 2076W        W18150   9.349   0.751  10.928 -0.1934  0.2115 -0.2111
 2077W        W18151  13.379   1.289   0.159 -0.1614 -0.2625  0.0237
 2078W        W18152  17.286  16.846   3.205 -0.2134 -0.0356  0.1362
 2079W        W18153  12.259   8.687   4.216  0.2270 -0.0862 -0.0172
 2080W        W18154   0.851   6.644   3.044 -0.2847 -0.0231  0.0833
 2081W        W18155  17.093   9.923  14.135  0.0535  0.0027  0.2804
 2082W        W18156  18.954   8.520  10.312  0.1349 -0.2386 -0.1739
 2083W        W18157   8.757  12.569  14.638 -0.0032 -0.0394 -0.0124
 2084W        W18158  10.943   0.780  11.858  0.1691  0.0502 -0.0189
 2085W        W18159   5.603  15.532   3.715  0.2069 -0.0032 -0.0495
 2086W        W18160   7.512   9.636   3.917  0.0317 -0.0997  0.5774
 2087W        W18161   0.397   9.181  10.652  0.3575  0.1858 -0.0615
 2088W        W18162   0.502  17.507   3.831  0.3206 -0.0177 -0.4490
 2089W        W18163   5.512   4.592   4.418 -0.0838 -0.3717  0.0040
 2090W        W18164   6.033  10.389  12.055  0.3794  0.1668 -0.2378
 2091W        W18165   1.024  15.986   1.004  0.1473 -0.0997  0.3471
 2092W        W18166  12.522   7.814  13.000 -0.4388 -0.0731 -0.3903
 2093W        W18167   0.122   5.332  14.206 -0.2380 -0.2462 -0.0796
 2094W        W18168   8.828   4.036   3.829  0.0411  0.1629  0.1351
 2095W        W18169  13.657  19.180   1.729 -0.0790 -0.0698  0.0094
 2096W        W18170   1.010  14.040   3.331  0.2284  0.2475  0.1242
 2097W        W18171   1.192  17.629   1.717 -0.2150 -0.0555 -0.3606
 2098W        W18172  12.344   2.645  11.055 -0.2237  0.2698  0.5000
 2099W        W18173   6.222   1.844   4.248  0.2434 -0.2166  0.0471
 2100W        W18174  15.830  11.779  14.284 -0.0550 -0.2379  0.0397
 2101W        W18175   5.808   9.105   0.598  0.2013 -0.3544 -0.0290
 2102W        W18176  13.019  12.202  12.957  0.2180  0.3598  0.1686
 2103W        W18177   7.946   8.956  14.516 -0.1341 -0.2325 -0.0377
 2104W        W18178   7.206   5.066  12.378  0.0099  0.0187 -0.3632
 2105W        W18179  18.007  15.098   3.140  0.0949  0.4205  0.2935
 2106W        W18180  10.057  16.725  14.341 -0.0136  0.2043  0.0567
 2107W        W18181   7.305  10.357   1.065 -0.3378 -0.2683 -0.0903
 2108W        W18182  12.747   1.806   1.659  0.0035 -0.0361 -0.1622
 2109W        W18183  16.997  10.771   1.268 -0.1181  0.1842 -0.1791
 2110W        W18184  13.551  12.078   3.133 -0.1043 -0.1268  0.3106
 2111W        W18185   1.403   5.257   1.827  0.2568 -0.1342  0.1236
 2112W        W18186  17.736  16.754  14.177  0.2800 -0.0629  0.1187
 2113W        W18187   1.817   2.594   1.468 -0.2377  0.3004 -0.0603
 2114W        W18188   6.434  14.140   1.433 -0.3186  0.3400  0.3460
 2115W        W18189   8.010  12.521   1.198 -0.2114  0.1195  0.0555
 2116W        W18190   0.737  18.075   0.553  0.1463  0.1698 -0.1467
 2117W        W18191  17.019  18.459  10.426  0.1857 -0.1155 -0.0739
 2118W        W18192   6.182  15.122   4.316  0.4815 -0.2304 -0.2361
 2119W        W18193   2.932  11.775  12.177 -0.1160  0.1105 -0.2694
 2120W        W18194   9.143  14.355   2.332  0.1557  0.0321  0.2452
 2121W        W18195   0.281   3.361   1.416  0.1536 -0.0140 -0.1250
 2122W        W18196  10.036   6.049  14.651 -0.3184 -0.0826  0.1480
 2123W        W18197   5.853  13.822   1.575 -0.3111  0.1412 -0.2776
 2124W        W18198   4.528   9.467  12.767  0.0028 -0.3407  0.0076
 2125W        W18199   7.890   4.393   2.459  0.0857 -0.0582 -0.0670
 2126W        W18200   5.778  17.432   1.175  0.0632  0.0536 -0.0509
 2127W        W18201   9.110   0.035   4.057  0.1113 -0.0852 -0.2207
 2128W        W18202  10.275   5.257   5.684  0.1492 -0.0859  0.0981
 2129W        W18203  11.552  16.644   2.082  0.2454  0.0025  0.5606
 2130W        W18204  14.596   4.871   5.190 -0.1481  0.0916 -0.0371
 2131W        W18205   3.297   8.292   0.972  0.0837  0.0367  0.1410
 2132W        W18206   0.149   0.952   0.950  0.2350 -0.1881  0.3202
 2133W        W18207  10.809   1.596   2.609 -0.1604 -0.0289 -0.2955
 2134W        W18208  16.227   0.986   0.236 -0.0648  0.0564  0.0300
 2135W        W18209  11.437  18.887  12.696  0.2908  0.1175 -0.3063
 2136W        W18210  12.545  15.871   4.083 -0.0324 -0.2154 -0.1122
 2137W        W18211  17.963  16.506   4.669 -0.0285  0.1325 -0.0528
 2138W        W18212   6.253   7.682   0.668  0.0471 -0.1552  0.2589
 2139W        W18213   9.564  14.221  10.572  0.4454  0.0348  0.2547
 2140W        W18214  17.849  17.007   3.973  0.0886 -0.0126  0.0403
 2141W        W18215  10.353  17.855   0.208 -0.3694  0.0883 -0.0991
 2142W        W18216   6.084   8.472  12.861  0.2265 -0.1920 -0.1113
 2143W        W18217   0.923  13.574   0.605  0.0153 -0.0737  0.1355
 2144W        W18218   5.949  11.588   4.156 -0.1611 -0.2761 -0.1881
 2145W        W18219   1.935  16.338   2.632  0.2117  0.0691  0.1315
 2146W        W18220   1.287   5.894   9.453  0.0971 -0.4290  0.1157
 2147W        W18221  17.819   7.682   2.823 -0.0055  0.1125  0.2701
 2148W        W18222   2.125  16.087   3.211 -0.0396 -0.0370 -0.1924
 2149W        W18223   8.406   7.131   3.683  0.3575 -0.0771  0.1329
 2150W        W18224  14.458  15.604  10.753 -0.2220 -0.0175  0.1338
 2151W        W18225  19.116   9.093   5.502  0.0808 -0.0285 -0.4263
 2152W        W18226   1.173  13.028  12.764  0.1322 -0.2252  0.0610
 2153W        W18227  16.556   0.013  14.867 -0.0784  0.0537  0.1074
 2154W        W18228  12.321  17.545  12.014 -0.2485 -0.2126 -0.3382
 2155W        W18229  16.601   5.327   2.374  0.1573 -0.1209  0.2339
 2156W        W18230   6.155   6.768  14.248  0.2233  0.2045  0.1345
 2157W        W18231   3.577   2.584  13.032 -0.0860 -0.0391 -0.0996
 2158W        W18232  12.873  14.634   4.289 -0.0863 -0.0036 -0.1564
 2159W        W18233  13.332  10.743   3.046 -0.2875  0.2952 -0.2263
 2160W        W18234  11.954  14.871   0.405  0.2155  0.1599  0.2155
 2161W        W18235   0.940   7.493   4.640  0.0950 -0.0985  0.0131
 2162W        W18236  16.544   1.660  14.081  0.1356 -0.0214  0.0199
 2163W        W18237   0.842  18.305   4.813  0.3838  0.0627  0.1382
 2164W        W18238   7.844   7.162   1.718  0.1809 -0.3700 -0.0400
 2165W        W18239  16.201  11.597  11.527 -0.2578  0.1796 -0.0662
 2166W        W18240  16.748  11.634   1.416  0.1521  0.1249  0.0897
 2167W        W18241  14.176  12.530  14.822 -0.2952 -0.1632 -0.1663
 2168W        W18242  16.823  18.573  15.001  0.1236 -0.0849  0.2520
 2169W        W18243  14.062  13.709   4.556 -0.1389 -0.2454 -0.2465
 2170W        W18244  16.068   3.318  12.109 -0.5013 -0.3059  0.1719
 2171W        W18245  16.164  12.804  13.584 -0.3893  0.2844  0.0424
 2172W        W18246   3.516   2.041   1.486 -0.1858  0.0698  0.2111
 2173W        W18247   9.723   7.232   3.930  0.0053 -0.1022  0.0276
 2174W        W18248   9.890  17.722   1.450 -0.1582  0.2281  0.0819
 2175W        W18249  12.368   5.050  11.330 -0.2001  0.4560  0.2594
 2176W        W18250   7.061  12.598   1.161 -0.0531  0.0758 -0.2345
 2177W        W18251   9.676  14.383  11.950 -0.3802  0.2389  0.3027
 2178W        W18252   2.455  17.273  11.457  0.0440 -0.1889  0.2117
 2179W        W18253  18.253  12.710   0.276  0.1628 -0.1407 -0.3278
 2180W        W18254   0.286  15.813   1.404 -0.1622 -0.1592 -0.2331
 2181W        W18255  19.146  18.019  11.591 -0.2202 -0.0691 -0.1946
 2182W        W18256  10.107   1.627   3.969  0.0705  0.1182  0.0254
 2183W        W18257   3.766   0.444   3.159  0.2340 -0.0911  0.2841
 2184W        W18258   4.615   7.567   0.706  0.1913 -0.1473  0.0980
 2185W        W18259  13.094   4.711   2.556 -0.1789 -0.2094 -0.0781
 2186W        W18260   0.664  13.615  12.452  0.2158  0.0553 -0.2235
 2187W        W18261  16.056  14.135  13.178 -0.3306  0.0474  0.0892
 2188W        W18262   9.779  18.047   2.109 -0.6505 -0.0648 -0.1147
 2189W        W18263  19.302   1.457   1.269  0.1420  0.0611 -0.3318
 2190W        W18264  16.544   7.085   3.397  0.0453 -0.0934 -0.2202
 2191W        W18265   6.387  14.330  13.732  0.2050  0.1237 -0.1558
 2192W        W18266  10.577  12.646  14.397  0.1082  0.1766 -0.0244
 2193W        W18267   6.316   2.064   1.835  0.2532 -0.2427 -0.0564
 2194W        W18268  15.509  12.680  13.921 -0.1893  0.0112  0.3338
 2195W        W18269  17.160  13.740   9.074  0.0449  0.0596 -0.1241
 2196W        W18270  15.858   8.610  11.897 -0.2433  0.1657 -0.2799
 2197W        W18271   7.051   2.460   5.249  0.1497 -0.2384  0.2016
 2198W        W18272   2.036  10.234   0.215 -0.1393 -0.1705  0.0124
 2199W        W18273   5.194   0.155  13.639  0.1536 -0.0283 -0.2491
 2200W        W18274  19.122   7.402   3.619  0.1288 -0.2458  0.0432
 2201W        W18275  15.116   8.774  13.187 -0.0804  0.1733 -0.0250
 2202W        W18276   6.983  12.403   4.523 -0.1041  0.4261 -0.1496
 2203W        W18277   8.246  18.173  12.581 -0.0401 -0.2933 -0.2133
 2204W        W18278  13.345  11.011   0.406  0.0604  0.0557  0.2713
 2205W        W18279   1.507  15.770   4.737  0.0967 -0.0036 -0.0335
 2206W        W18280  18.137   3.501   2.128 -0.0411 -0.0564  0.1261
 2207W        W18281  15.423  13.374  10.437 -0.0911  0.1222 -0.0343
 2208W        W18282   3.483   0.772   1.967  0.2426  0.1099 -0.0126
 2209W        W18283   5.668  14.925   4.325 -0.0197 -0.1351 -0.1963
 2210W        W18284  10.588  16.714   0.341 -0.2684  0.0531 -0.0278
 2211W        W18285   3.774   8.400   1.846  0.4756  0.1019 -0.2337
 2212W        W18286  18.540  12.842  12.208  0.1280  0.0958  0.0117
 2213W        W18287  12.430  17.176   0.327 -0.0911 -0.0083  0.1630
 2214W        W18288  12.314  12.969   3.106  0.0254  0.5407 -0.3045
 2215W        W18289  14.165   3.760   0.288 -0.0215 -0.2756 -0.0984
 2216W        W18290  19.185   6.451   3.207  0.1580  0.1019  0.2064
 2217W        W18291  12.859  10.940   4.829  0.0003 -0.0772  0.0329
 2218W        W18292  17.690  12.451  12.326 -0.0043 -0.0177  0.0475
 2219W        W18293  18.571   5.216  12.622 -0.2836 -0.0060 -0.2810
 2220W        W18294   2.821  10.319  11.551  0.2669 -0.1058  0.2681
 2221W        W18295   8.999  16.518   2.041  0.0032 -0.2073  0.0159
 2222W        W18296  13.136  15.083  10.024 -0.2277  0.0233  0.1185
 2223W        W18297  10.117  12.920  12.337 -0.0506 -0.1093  0.2380
 2224W        W18298   6.953   5.052  12.838 -0.2866  0.0415 -0.3782
 2225W        W18299  17.284   6.588   3.715  0.2851 -0.0497 -0.1397
 2226W        W18300  16.637   4.304   4.005  0.2609 -0.0794 -0.0200
 2227W        W18301   4.803  13.789   2.629 -0.0617  0.3852 -0.0741
 2228W        W18302   0.425   4.993   4.494  0.0104  0.2458 -0.1617
 2229W        W18303   2.915   3.767  11.660 -0.2886  0.1775 -0.2655
 2230W        W18304   6.783   4.880  13.433  0.3667 -0.0922  0.0366
 2231W        W18305  15.546   7.680   3.583 -0.0417 -0.2262 -0.3559
 2232W        W18306   6.756  18.414  13.634  0.0362 -0.2118 -0.3793
 2233W        W18307  16.806   8.745   2.965  0.1903 -0.1198  0.2547
 2234W        W18308   0.320  14.867  11.660  0.1623  0.1282 -0.2571
 2235W        W18309   8.006   1.042  10.674  0.0229  0.0877  0.0539
 2236W        W18310  13.826  16.980   1.973 -0.2667  0.1255  0.0158
 2237W        W18311   3.780  16.134   3.453 -0.2100 -0.0146  0.0070
 2238W        W18312   2.859   7.151   0.644  0.0017  0.0510  0.1495
 2239W        W18313   0.609  14.029   2.984 -0.2778 -0.1284 -0.1220
 2240W        W18314  18.878  12.682   4.754  0.0520 -0.3884 -0.0855
 2241W        W18315   7.780   0.103   2.183 -0.0617  0.0526 -0.0268
 2242W        W18316  14.896  18.209  13.460  0.1390 -0.4132  0.0620
 2243W        W18317  14.936   7.832  13.070  0.0680 -0.0861 -0.1108
 2244W        W18318  15.139   0.503  12.041 -0.1871  0.2398  0.3240
 2245W        W18319   5.789  18.797   0.670 -0.2412  0.2282  0.1389
 2246W        W18320   5.922   6.979   3.764 -0.1849 -0.3948 -0.1293
 2247W        W18321   5.740   5.383  10.820  0.1419  0.0843  0.0176
 2248W        W18322  11.178   4.607   1.840 -0.0980 -0.0542 -0.0707
 2249W        W18323   1.989  13.229   3.144  0.0556  0.1075 -0.1857
 2250W        W18324   4.099   3.188   1.368  0.1777 -0.0725  0.0478
 2251W        W18325   3.669   1.516  15.018 -0.3607  0.1727  0.0374
 2252W        W18326  11.471  12.549   1.462 -0.1196  0.1815  0.3541
 2253W        W18327  15.231   1.473  14.748  0.0863  0.1539  0.2509
 2254W        W18328   8.891   8.121  14.096 -0.2286 -0.1950 -0.0092
 2255W        W18329   3.483  13.487  11.611  0.2450 -0.1355 -0.1540
 2256W        W18330   6.563   9.390  10.673 -0.5114 -0.0054  0.2457
 2257W        W18331  15.702  15.464   1.810 -0.0797  0.0093 -0.1859
 2258W        W18332  10.729   8.974  13.465 -0.0138 -0.0883  0.1006
 2259W        W18333   9.612   4.982   3.117  0.3636 -0.1155  0.0408
 2260W        W18334  13.543  10.160   2.009  0.3057 -0.1565  0.0762
 2261W        W18335   5.558   4.779   1.720  0.0406 -0.1031 -0.2165
 2262W        W18336   0.927  17.451   4.557  0.2092 -0.4327 -0.1740
 2263W        W18337  19.218   4.194  14.847  0.1850  0.2117 -0.1174
 2264W        W18338  15.456  11.169  14.752 -0.2303 -0.1658  0.1477
 2265W        W18339  15.438   4.902   4.374  0.1518  0.1351 -0.3285
 2266W        W18340   3.024   4.038   1.042  0.2609  0.2388  0.0265
 2267W        W18341   9.285  10.351  11.826 -0.0799 -0.0434  0.2781
 2268W        W18342   8.601  19.253  11.612 -0.2664 -0.2690  0.0315
 2269W        W18343  14.064  18.211  11.134 -0.2698  0.1294  0.1169
 2270W        W18344   7.309   5.440   3.680  0.0657 -0.0489  0.1123
 2271W        W18345   1.327   7.400   2.558 -0.2889  0.1873  0.0383
 2272W        W18346   3.006  11.622  11.246 -0.4094  0.0793 -0.1733
 2273W        W18347   9.492   5.560   2.953 -0.0024  0.1506  0.1229
 2274W        W18348   4.658   9.718  10.497 -0.1596  0.1255  0.4462
 2275W        W18349   5.434   1.813  11.007 -0.1588 -0.0016  0.1907
 2276W        W18350   3.931   4.263  13.102  0.0049 -0.2706  0.1443
 2277W        W18351   5.147  13.341   1.785  0.4387  0.4274 -0.2711
 2278W        W18352   7.935  15.931   1.407 -0.1761 -0.0796  0.0052
 2279W        W18353  11.436   5.720   3.329 -0.0216 -0.2213  0.2634
 2280W        W18354   1.443  18.545  15.024 -0.3710  0.2969 -0.2188
 2281W        W18355  16.287  11.512  13.698  0.3375 -0.2663  0.2588
 2282W        W18356  11.285  16.917   4.468 -0.0867 -0.2463  0.2535
 2283W        W18357  18.529  18.367  10.349  0.2131 -0.0360  0.1039
 2284W        W18358   6.671   2.795   5.242  0.0476  0.2128  0.2031
 2285W        W18359  12.827   4.048   3.700  0.1357  0.0069  0.3089
 2286W        W18360   1.815   3.111  12.084 -0.2821 -0.0128 -0.3213
 2287W        W18361  16.000  15.144  12.652 -0.4153  0.1365 -0.1346
 2288W        W18362  18.725   8.301  13.075 -0.0846 -0.1695 -0.0905
 2289W        W18363  17.026   0.335  12.820 -0.2609  0.2707  0.1591
 2290W        W18364   1.213   8.071   1.937 -0.2191 -0.2855  0.1961
 2291W        W18365   9.081  11.935  11.952 -0.1516  0.0145  0.2670
 2292W        W18366   1.015   5.547   5.471  0.2796  0.0613 -0.0087
 2293W        W18367   1.375   1.131  13.884  0.3913 -0.1930  0.1847
 2294W        W18368   7.328   1.889   0.852 -0.0324 -0.0701 -0.0397
 2295W        W18369   4.266  17.119  14.027  0.2877 -0.1351  0.3345
 2296W        W18370  13.426   6.666   4.540  0.3004 -0.1261  0.4021
 2297W        W18371  17.566  15.000   2.206  0.0455  0.0610 -0.3373
 2298W        W18372  16.052   6.744   1.903 -0.0435 -0.0014 -0.2201
 2299W        W18373  14.852  19.056   4.318  0.0939 -0.0392 -0.3749
 2300W        W18374  16.700  13.754   1.236 -0.1936  0.0238  0.1585
 2301W        W18375   5.487  19.098   0.020 -0.2419  0.0072 -0.0586
 2302W        W18376   1.891  10.298  10.759 -0.0893 -0.0311 -0.1085
 2303W        W18377   0.311   2.871   2.098 -0.1537 -0.2136  0.1700
 2304W        W18378   6.251   8.699  13.285  0.3366 -0.0316 -0.4946
 2305W        W18379  18.232   1.528   2.414 -0.4937  0.0642 -0.2376
 2306W        W18380  11.639   0.874   1.964 -0.1576  0.2018  0.0461
 2307W        W18381  18.453  14.189   5.968  0.0138  0.0707 -0.3426
 2308W        W18382  16.236  17.709   1.567 -0.4074  0.2570 -0.0034
 2309W        W18383  10.941  18.863  12.953  0.2416 -0.1949  0.3239
 2310W        W18384   2.515   5.836   0.349  0.0361  0.0213  0.2715
 2311W        W18385   4.583   6.946  13.013 -0.1990  0.1289  0.0312
 2312W        W18386  18.999  13.194   9.145 -0.1904  0.3074  0.4149
 2313W        W18387   0.047   2.372  10.344 -0.0342 -0.3010 -0.0600
 2314W        W18388  12.362   7.551  14.842 -0.2071  0.3536  0.1370
 2315W        W18389  16.160   5.651   1.755  0.0195 -0.2162 -0.1855
 2316W        W18390   3.976  13.551   3.915 -0.0941  0.2870  0.0948
 2317W        W18391   2.493   9.725   5.344 -0.1486  0.3462  0.2966
 2318W        W18392  18.043   1.965  11.355 -0.1418 -0.0633 -0.1503
 2319W        W18393  11.109  10.870   0.299  0.1104 -0.1177 -0.2007
 2320W        W18394   5.284   9.912   4.897  0.3167 -0.0306  0.0491
 2321W        W18395   0.013  11.942   4.673  0.0103 -0.0871  0.3768
 2322W        W18396   2.858  17.201   3.543 -0.1019  0.4460 -0.0901
 2323W        W18397  18.699   9.325   3.686  0.2577 -0.2313 -0.1473
 2324W        W18398  14.859  19.167   0.829 -0.2168  0.0611  0.1737
 2325W        W18399  15.622   2.880   2.030 -0.2923  0.1449  0.2343
 2326W        W18400  15.731   4.544   4.174 -0.1020 -0.2137  0.1691
 2327W        W18401  17.551  11.453   4.847  0.0574 -0.1297 -0.1235
 2328W        W18402   9.167   6.394   0.813 -0.1385  0.0874  0.2194
 2329W        W18403  13.483   6.690   1.678  0.4738 -0.0390  0.1276
 2330W        W18404   5.286  10.751  13.761  0.1725  0.0076  0.0435
 2331W        W18405   9.063   9.259  14.423 -0.0080  0.0639  0.1203
 2332W        W18406  15.758  19.264   0.709 -0.0632  0.1164  0.0914
 2333W        W18407   9.686   2.535   2.244  0.1117 -0.0170  0.0820
 2334W        W18408   3.517  18.979   1.633  0.0087 -0.1829  0.0490
 2335W        W18409   0.908  18.914   1.669 -0.1984  0.0436 -0.0229
 2336W        W18410  11.896  16.263   0.469  0.1323  0.4493 -0.0977
 2337W        W18411  10.240  10.745   4.051  0.3627 -0.2122 -0.0493
 2338W        W18412   5.593  11.976   4.057 -0.1688 -0.0511 -0.0810
 2339W        W18413  18.898   9.301  15.017 -0.0178 -0.0288 -0.2181
 2340W        W18414   5.343   4.333  12.774 -0.1956 -0.1428  0.4476
 2341W        W18415  14.103   0.382   2.558 -0.2463 -0.2188  0.1852
 2342W        W18416   3.019  17.433   1.386  0.0112 -0.2838  0.0581
 2343W        W18417   1.495   1.900  12.851 -0.2026  0.1714 -0.1097
 2344W        W18418  15.774   0.783   3.556 -0.1288  0.1590 -0.0719
 2345W        W18419   8.295   8.169   4.684  0.1969 -0.2485 -0.1081
 2346W        W18420   6.446   0.677  12.154 -0.3239  0.0285 -0.0402
 2347W        W18421  17.078  12.913   1.962  0.0348  0.0245  0.0759
 2348W        W18422   1.623   1.431   2.109 -0.1644  0.3262 -0.2569
 2349W        W18423  14.761   5.298  10.761 -0.1509 -0.1264  0.1248
 2350W        W18424   5.433   7.349  14.823 -0.0112 -0.2204  0.1397
 2351W        W18425  17.142   0.274  13.291 -0.2141  0.0508 -0.1672
 2352W        W18426   0.562   8.291   2.770 -0.1141 -0.1374 -0.1123
 2353W        W18427  15.077   5.135   5.622  0.2194  0.0474  0.1949
 2354W        W18428  18.400  12.002   5.601  0.0641  0.3007  0.2086
 2355W        W18429  10.061   4.940   4.518  0.0836  0.1558 -0.0727
 2356W        W18430  12.455  17.825   2.417 -0.0064 -0.4049  0.0192
 2357W        W18431  17.926   2.531   5.881  0.0910 -0.0261  0.1851
 2358W        W18432   5.464  11.662   4.888 -0.3470  0.1548  0.0475
 2359W        W18433  10.033   1.423  11.826 -0.0442  0.3004  0.0696
 2360W        W18434   8.592   5.862  12.815  0.0904  0.0859 -0.3389
 2361W        W18435   2.305  11.457  13.396 -0.1575  0.1112 -0.2538
 2362W        W18436   9.896   1.846   2.647  0.2309 -0.0038 -0.1358
 2363W        W18437   0.288  15.409   4.124  0.1917 -0.1677 -0.2375
 2364W        W18438   5.506  17.089   1.567  0.0227  0.3449  0.3043
 2365W        W18439   3.830   2.718  14.460  0.1305  0.4353 -0.0541
 2366W        W18440  18.736  13.144   4.506 -0.3673  0.0124  0.1548
 2367W        W18441   0.679  10.999  11.173 -0.3337  0.1634 -0.1889
 2368W        W18442   3.023  12.425   1.983  0.2171 -0.1194 -0.3078
 2369W        W18443   6.009   9.644  14.038  0.0764  0.2046  0.1200
 2370W        W18444  16.584   5.710   0.528 -0.1795  0.1398 -0.1855
 2371W        W18445  15.506   3.545   4.118 -0.4789  0.0344 -0.1412
 2372W        W18446   4.232  18.699  14.683  0.3154 -0.1368 -0.0933
 2373W        W18447  15.881  10.522   3.365 -0.0167 -0.2529  0.0798
 2374W        W18448  16.859  18.845  10.729 -0.0712  0.0198 -0.2043
 2375W        W18449   0.188   9.840   2.868 -0.1226  0.0277  0.1448
 2376W        W18450   5.101  17.738  10.696 -0.1397 -0.1681  0.0397
 2377W        W18451  14.168   8.816  14.302 -0.1311  0.2820 -0.0601
 2378W        W18452   1.863   4.432  13.001  0.0207  0.3876  0.1598
 2379W        W18453  18.640   2.387   9.425  0.1912 -0.5042 -0.3719
 2380W        W18454   4.307  18.553  12.447 -0.0335  0.2677  0.0804
 2381W        W18455   8.120   4.120  12.805  0.1399  0.0147  0.1306
 2382W        W18456  13.455   6.774  13.762 -0.3286 -0.5982 -0.2490
 2383W        W18457  14.627   6.529   4.564  0.0091  0.1578  0.0314
 2384W        W18458   8.800   0.390  12.947 -0.1041 -0.3059  0.0643
 2385W        W18459  13.157  11.952  13.839 -0.2161  0.0164  0.0854
 2386W        W18460  15.382   8.988  14.011 -0.1461  0.0750  0.1565
 2387W        W18461   2.170  14.165  13.472 -0.2113  0.1390 -0.0477
 2388W        W18462   8.457   5.566  12.151  0.0825  0.0939  0.1511
 2389W        W18463   0.239   7.090   3.572 -0.3615  0.2048 -0.2270
 2390W        W18464   5.611   3.224   3.042  0.3006  0.0260  0.0585
 2391W        W18465  17.470  18.114  12.386 -0.1269  0.0508 -0.0008
 2392W        W18466  15.498   6.636  12.556 -0.0089  0.1530 -0.2029
 2393W        W18467  16.184  10.328  13.943  0.0915 -0.0462 -0.1221
 2394W        W18468  11.837   5.021   2.962 -0.0433  0.0072  0.1035
 2395W        W18469  15.173  12.637  14.702  0.1595  0.0811  0.1129
 2396W        W18470  11.102   9.800   0.419 -0.2546  0.1107 -0.0349
 2397W        W18471  10.829   9.020   1.778 -0.2097 -0.1860  0.0309
 2398W        W18472   6.926  16.371  12.405 -0.0432 -0.0311  0.2374
 2399W        W18473  11.333   3.049  13.341  0.2748 -0.0781 -0.1118
 2400W        W18474   5.411   4.973  13.835  0.1423  0.2052 -0.1860
 2401W        W18475   4.770   2.841   2.791 -0.0046  0.0783 -0.1688
 2402W        W18476  15.165   2.259  11.450  0.2675  0.0317  0.2588
 2403W        W18477  11.751  14.404  11.720 -0.1613 -0.0262 -0.1864
 2404W        W18478   2.417  10.735   0.243  0.0018  0.2621 -0.2299
 2405W        W18479  13.881  15.368   0.159 -0.1530  0.0919 -0.1128
 2406W        W18480   4.446   9.289   1.896  0.0707 -0.0016 -0.3030
 2407W        W18481   3.651  15.878  11.725 -0.1281  0.4901 -0.4577
 2408W        W18482  13.012  11.016   1.967  0.2035 -0.1494 -0.3204
 2409W        W18483   0.183  12.171   4.144 -0.4283  0.1820  0.1293
 2410W        W18484   4.725   1.587  12.325  0.0599 -0.1941  0.1954
 2411W        W18485   4.623   6.438  12.193 -0.1265 -0.0258 -0.2100
 2412W        W18486  11.077  10.675   1.596 -0.0022 -0.3590  0.0045
 2413W        W18487   3.625  18.981   0.375 -0.0840  0.1027 -0.3025
 2414W        W18488   6.063  10.696   0.577  0.1625  0.0092  0.0351
 2415W        W18489   2.875   2.754   1.266 -0.4787 -0.1530  0.1598
 2416W        W18490   5.152   1.443  14.255  0.0370  0.2012  0.0658
 2417W        W18491   9.768   0.512   9.561 -0.1373 -0.0743 -0.1010
 2418W        W18492   1.283  13.587   2.130  0.0133 -0.1062 -0.2351
 2419W        W18493  16.261   2.126  10.413  0.2709 -0.1164  0.0578
 2420W        W18494   3.223   6.435  14.424  0.1222  0.1026 -0.0133
 2421W        W18495   1.525  16.437  13.773 -0.1228 -0.1572 -0.1430
 2422W        W18496   7.256  19.042  12.590  0.1280  0.3646 -0.0717
 2423W        W18497   9.570  17.073  12.959  0.1005 -0.0334  0.2729
 2424W        W18498   7.770   3.598   1.375 -0.1564 -0.1662  0.0474
 2425W        W18499  12.063   1.760   5.068 -0.3181  0.2737 -0.2986
 2426W        W18500  10.577  10.963   4.467 -0.0806 -0.1381 -0.1555
 2427W        W18501   1.200  10.501   3.280  0.0049  0.2009 -0.1687
 2428W        W18502   2.816   2.535   3.369  0.4372  0.1379  0.2691
 2429W        W18503  13.424  14.137   3.134  0.0961 -0.1490 -0.6842
 2430W        W18504   5.868  12.567   2.205 -0.0204 -0.1399 -0.0775
 2431W        W18505  17.451   5.645   0.378  0.0993 -0.4021  0.2411
 2432W        W18506   1.078   7.548  12.734 -0.0575 -0.3174 -0.3915
 2433W        W18507  13.322   4.244  13.382  0.0786  0.0241 -0.3012
 2434W        W18508   5.578   5.251   0.228 -0.0828 -0.1362  0.1129
 2435W        W18509   6.994  16.560  13.381 -0.3753 -0.2934  0.1246
 2436W        W18510   4.431  10.123   4.927  0.0669  0.1693  0.2418
 2437W        W18511   8.751  15.167   5.292  0.0341 -0.2361  0.0206
 2438W        W18512  10.579   2.066  10.677  0.2549 -0.0496 -0.0526
 2439W        W18513   1.749   6.152   1.872  0.0836 -0.2707  0.1445
 2440W        W18514  10.323  15.169   5.069 -0.2616  0.2662  0.1828
 2441W        W18515  19.040  17.525  10.699 -0.0535  0.0223  0.1364
 2442W        W18516   5.987   5.846  14.078 -0.2731  0.1125 -0.1033
 2443W        W18517   4.819   2.566  12.314  0.1843  0.0152  0.0382
 2444W        W18518   8.576  17.699  11.250  0.1630 -0.0491  0.1408
 2445W        W18519  16.402  13.308  12.241  0.2171 -0.1847  0.1964
 2446W        W18520  14.590  17.867  13.138  0.3124  0.0574 -0.1918
 2447W        W18521  15.025   1.326   2.003 -0.0982  0.0833  0.1883
 2448W        W18522  13.751   8.856  10.037  0.1913  0.0360 -0.1361
 2449W        W18523  12.551  18.808  14.505  0.0930 -0.0234  0.2740
 2450W        W18524   9.852  18.881   1.181  0.1451  0.1250 -0.0228
 2451W        W18525   1.255  16.930  10.943  0.0989 -0.2432  0.0920
 2452W        W18526   0.919  17.689   4.082  0.0367 -0.1341 -0.0006
 2453W        W18527  14.661   5.368   5.262  0.0476 -0.1423 -0.2370
 2454W        W18528  10.011   0.041   2.474 -0.1037 -0.0557  0.2071
 2455W        W18529  14.014  18.662   0.821  0.1539 -0.1491  0.0969
 2456W        W18530  17.827   9.293   2.840  0.1531 -0.0857  0.3021
 2457W        W18531  10.683   2.963  12.833 -0.2096 -0.2071  0.2560
 2458W        W18532   6.610   4.624  12.991 -0.0313 -0.1316 -0.0514
 2459W        W18533   6.774  14.872   5.722  0.0585 -0.0869 -0.0787
 2460W        W18534   0.956   5.365   4.435  0.0104  0.4887 -0.0318
 2461W        W18535  14.422   6.118   3.137  0.2809 -0.3067 -0.1386
 2462W        W18536   3.308   4.902   2.752  0.0497  0.1663  0.0562
 2463W        W18537  18.761  13.903  11.103  0.1204  0.0894 -0.0434
 2464W        W18538  11.442  14.691   0.426 -0.1204  0.2108 -0.0917
 2465W        W18539   7.536   5.815  11.923  0.3711  0.0669  0.1189
 2466W        W18540   7.968  15.023  12.771  0.0513 -0.0736 -0.0169
 2467W        W18541   4.605  10.959   4.343  0.1344  0.1265 -0.1904
 2468W        W18542   0.955  15.745   2.307  0.2591 -0.0564  0.2482
 2469W        W18543   3.657   4.567   4.621 -0.1083 -0.3999 -0.3337
 2470W        W18544   0.808  13.061   2.298  0.1460 -0.0328 -0.1210
 2471W        W18545   2.235  19.293  13.169  0.0760  0.0394  0.1431
 2472W        W18546  15.968  18.178   3.342 -0.1679  0.1619 -0.0127
 2473W        W18547  11.133   3.229  10.528  0.1601  0.0265 -0.2617
 2474W        W18548  14.662   6.849  11.452  0.2068 -0.1642 -0.0185
 2475W        W18549   8.351  17.875   1.309 -0.1574  0.1637 -0.4876
 2476W        W18550  13.775   5.375  14.603  0.0317 -0.1284 -0.1151
 2477W        W18551   8.717   1.506  15.048 -0.0696  0.2450 -0.1089
 2478W        W18552   4.474  10.509  12.594 -0.1665  0.1367 -0.0837
 2479W        W18553   8.206   3.028  12.977  0.3623  0.0452 -0.1814
 2480W        W18554  13.951   1.425  11.287  0.1647  0.1996  0.0043
 2481W        W18555  18.881   7.059  13.739  0.4139  0.1340  0.1767
 2482W        W18556   0.370  13.758   0.402  0.0903 -0.0752 -0.1231
 2483W        W18557  12.882   2.943  13.461 -0.2436 -0.1414  0.0445
 2484W        W18558  14.902  16.045  14.060 -0.2675 -0.4250 -0.2767
 2485W        W18559  10.335  13.574  10.594 -0.0485 -0.2926 -0.0593
 2486W        W18560  15.386  16.836   0.467  0.0354 -0.1399 -0.2888
 2487W        W18561   0.798   9.845  11.475 -0.1497  0.1158 -0.2207
 2488W        W18562  18.031   7.371  13.906 -0.0280 -0.2152  0.0360
 2489W        W18563   8.139  12.474   5.406 -0.2164  0.0147  0.0631
 2490W        W18564  11.796  13.663   3.712  0.1624  0.2283  0.1512
 2491W        W18565   2.775  10.897  11.739  0.1084 -0.0004  0.0229
 2492W        W18566  18.413  16.674  13.066  0.1710  0.2314 -0.2127
 2493W        W18567   2.705   4.188   3.726  0.3207  0.3263  0.0955
 2494W        W18568   3.222  16.931   3.967 -0.1201  0.3066  0.0091
 2495W        W18569  10.904  13.630   5.264 -0.0805 -0.0083 -0.0603
 2496W        W18570   7.741  16.152  12.912 -0.1514  0.0367  0.3967
 2497W        W18571  18.935   8.177   1.019 -0.0049  0.1376  0.1798
 2498W        W18572   8.685  17.250   2.483  0.2174 -0.1198  0.0676
 2499W        W18573  10.726  13.810  14.188 -0.1462  0.0016  0.0813
 2500W        W18574   0.852   1.215  14.945 -0.1058  0.5505 -0.0854
 2501W        W18575   6.527   9.835   4.258  0.4357  0.0188  0.0215
 2502W        W18576  14.669   5.084  11.309 -0.0837  0.1781  0.4339
 2503W        W18577  12.534  14.479   4.729 -0.0159 -0.1127 -0.1915
 2504W        W18578   9.557  12.783   6.043 -0.1705  0.1048 -0.2627
 2505W        W18579  11.308   3.381  14.364  0.1386 -0.1345 -0.4200
 2506W        W18580  10.743   3.617   4.782  0.3028  0.3169  0.4424
 2507W        W18581   5.303   7.488   3.381 -0.4164  0.0553 -0.1366
 2508W        W18582   1.269  14.518   4.195 -0.0818  0.0603 -0.0705
 2509W        W18583   3.502  18.132  12.761  0.0199  0.1553 -0.0797
 2510W        W18584   8.566   1.347   2.354  0.3599  0.4932  0.5260
 2511W        W18585   9.590   7.086  14.631  0.2012  0.3916  0.0331
 2512W        W18586   7.756   0.442  10.298  0.3455  0.2465 -0.0565
 2513W        W18587  12.899   0.132   3.861  0.0894 -0.0657 -0.1157
 2514W        W18588   9.893  15.829  14.455 -0.0769  0.1755  0.0029
 2515W        W18589   4.132   7.393  14.978 -0.0385  0.1856 -0.0898
 2516W        W18590   0.417   6.657   4.657 -0.1419 -0.0104 -0.2968
 2517W        W18591   8.836   8.580   1.645 -0.0881 -0.3561  0.1178
 2518W        W18592  17.054  14.677  14.692 -0.6368  0.1248  0.1278
 2519W        W18593   6.870  10.773  11.286  0.0484  0.0567 -0.0228
 2520W        W18594   3.908   1.674  13.453 -0.0804  0.1416 -0.0749
 2521W        W18595  11.708  13.501  13.988 -0.2815 -0.0655 -0.3043
 2522W        W18596   0.271  14.265   0.364 -0.0703  0.3681  0.0793
 2523W        W18597   6.324  12.545   0.764 -0.0223  0.1902 -0.0033
 2524W        W18598  19.243  16.232  11.889  0.0833  0.2116  0.0615
 2525W        W18599  17.398   9.251  10.293  0.1471  0.2453 -0.0389
 2526W        W18600   5.582  14.579  11.491  0.3512 -0.4099 -0.0171
 2527W        W18601  16.708   8.660   3.456  0.0581  0.0204 -0.0718
 2528W        W18602   1.851   6.874   1.356 -0.2068  0.0099  0.1880
 2529W        W18603   6.853   7.265   0.230  0.3246 -0.1462 -0.1295
 2530W        W18604  16.924  13.969   4.177 -0.1447  0.1802 -0.0003
 2531W        W18605  11.576  10.211   4.039  0.1897 -0.0953 -0.1681
 2532W        W18606   7.465   8.998   3.815 -0.3130 -0.1232 -0.0631
 2533W        W18607  14.932   8.189   4.774 -0.2352  0.3570 -0.1123
 2534W        W18608   2.558  15.022   4.827  0.1564 -0.2354 -0.0112
 2535W        W18609   2.254  12.289   0.663 -0.1403  0.0150  0.1780
 2536W        W18610   0.259   2.895  14.528  0.0711  0.0544  0.1244
 2537W        W18611   2.212   8.701  11.649 -0.0135  0.2371  0.1014
 2538W        W18612   3.081   9.102   2.370 -0.1982  0.1221  0.1707
 2539W        W18613   2.386  14.265   0.216 -0.1090 -0.1069  0.1027
 2540W        W18614   2.524  16.344   3.314 -0.2424  0.3832 -0.0141
 2541W        W18615  13.654   2.735   2.101  0.2547 -0.0981  0.0259
 2542W        W18616  12.744  12.006   1.578 -0.4304  0.0087 -0.0308
 2543W        W18617  16.576  14.059   3.851 -0.0625  0.3722 -0.1588
 2544W        W18618   3.604   0.181  11.753 -0.4514 -0.0174 -0.0753
 2545W        W18619   9.662   4.440   5.301  0.3308 -0.1594  0.0407
 2546W        W18620   3.927  14.702   2.303 -0.2110  0.0617 -0.1502
 2547W        W18621   6.392   8.613   3.134  0.1427 -0.0643 -0.0240
 2548W        W18622   1.923  10.284   1.146  0.1322  0.0414  0.3813
 2549W        W18623   1.858   0.999  11.139  0.1994  0.3353  0.0395
 2550W        W18624  10.658  10.956   1.722  0.2190 -0.2950  0.1265
 2551W        W18625   9.966  10.891   0.175  0.1377  0.1185  0.2343
 2552W        W18626  16.637   6.103   4.764  0.1494 -0.1051 -0.2526
 2553W        W18627   5.808   3.023   3.397  0.3079 -0.3171 -0.1091
 2554W        W18628   9.586   3.048   2.984 -0.0433  0.2352  0.0930
 2555W        W18629   9.232  13.673   2.952  0.2221  0.3154 -0.2934
 2556W        W18630   0.164   1.776  14.385  0.2869 -0.1534  0.1120
 2557W        W18631   6.703  12.122  13.094 -0.0956  0.0377  0.0709
 2558W        W18632   3.353  15.032  13.649  0.4710 -0.0035  0.2436
 2559W        W18633  18.556  12.252   0.034  0.0757  0.1152 -0.1532
 2560W        W18634  11.654   3.816   3.477 -0.1198  0.2174 -0.0334
 2561W        W18635  16.600  15.485   3.239 -0.2713 -0.1795 -0.0474
 2562W        W18636   6.348  12.161   1.474 -0.0940 -0.1152  0.2673
 2563W        W18637   0.853  10.199  11.046 -0.1241  0.1971  0.2640
 2564W        W18638   3.804   3.703   1.350  0.0740  0.0286 -0.0709
 2565W        W18639  11.574  11.014   0.125 -0.0850  0.0591 -0.1634
 2566W        W18640  18.781   4.366   3.826 -0.4635  0.1796 -0.0303
 2567W        W18641  12.942   2.662   1.474  0.0685  0.3582 -0.0661
 2568W        W18642  16.953  17.064  13.801 -0.2864 -0.1157 -0.0610
 2569W        W18643  17.139  17.882   4.700 -0.4170  0.1634  0.1401
 2570W        W18644   8.687   3.177  14.673 -0.0010 -0.1361 -0.3015
 2571W        W18645  13.537  16.890   0.375 -0.2584 -0.0327 -0.0340
 2572W        W18646   2.617   0.622   2.660 -0.2592 -0.1714 -0.0170
 2573W        W18647   0.740  16.994  10.855  0.0450 -0.0821  0.0161
 2574W        W18648   5.283  13.766   2.108 -0.0653 -0.1725  0.1876
 2575W        W18649  14.801  10.099   0.101 -0.2552 -0.1681 -0.0882
 2576W        W18650  15.038  10.754  12.378 -0.2814  0.2585  0.1888
 2577W        W18651   7.064  13.727   0.681  0.0370 -0.0674  0.0262
 2578W        W18652  11.748   1.582   2.484 -0.1065 -0.1173 -0.1155
 2579W        W18653  19.033  15.709  13.617 -0.0341 -0.1323  0.1784
 2580W        W18654  14.341   6.284   1.779  0.0286  0.0124  0.0785
 2581W        W18655   6.516  15.797  10.582 -0.1154  0.3056  0.0302
 2582W        W18656   6.986  14.725   4.476 -0.5145  0.1171  0.0857
 2583W        W18657   4.143  16.638   0.999  0.2052  0.1500 -0.0383
 2584W        W18658   5.689  17.473  12.877 -0.0928 -0.4397 -0.0640
 2585W        W18659   0.987   8.197  13.079 -0.1719  0.2171 -0.0193
 2586W        W18660  14.617   8.610  13.397  0.1927  0.4131 -0.1699
 2587W        W18661  18.977  10.665   1.820 -0.2408 -0.0147  0.3982
 2588W        W18662   1.689   3.258  12.601 -0.0650  0.2085  0.3258
 2589W        W18663  12.447   9.535   1.794  0.0319 -0.0525  0.2350
 2590W        W18664  12.980  18.460   2.768 -0.2660 -0.0940 -0.0497
 2591W        W18665   7.666   8.932   4.311 -0.1566  0.0801 -0.3587
 2592W        W18666   2.117  17.978   5.187  0.3300 -0.1507 -0.0471
 2593W        W18667  16.849   1.566   1.888 -0.2918  0.3024  0.3696
 2594W        W18668  14.162   2.866  14.897  0.0645 -0.2369  0.2193
 2595W        W18669  10.673  15.755  13.522  0.0303 -0.0305  0.2433
 2596W        W18670   4.398   5.488   1.344  0.0974  0.0664  0.1322
 2597W        W18671   9.819  13.017   3.594  0.0525 -0.0073 -0.0947
 2598W        W18672   5.044  18.040   3.239 -0.1036 -0.0035 -0.1520
 2599W        W18673  15.756  15.876  13.705  0.2595 -0.3607  0.0063
 2600W        W18674  17.022   2.706  12.452 -0.2178  0.1416 -0.0445
 2601W        W18675  12.012  15.301   0.113  0.0045  0.3523 -0.0107
 2602W        W18676   4.220  11.719   3.791  0.0119 -0.1329 -0.2517
 2603W        W18677  17.037  16.974   5.472  0.0988 -0.0174 -0.0725
 2604W        W18678  13.069  10.632   2.554 -0.1609 -0.2527 -0.0120
 2605W        W18679   6.486  11.327  11.900  0.2332 -0.0808  0.1177
 2606W        W18680  11.511   3.620  10.443  0.1372  0.0056 -0.5671
 2607W        W18681  15.913   9.963  13.199  0.2297 -0.0267  0.2824
 2608W        W18682  16.409   9.277   2.199  0.0849 -0.1476  0.0917
 2609W        W18683  16.012   0.294   3.273  0.0483 -0.0932 -0.2573
 2610W        W18684   3.235  11.369  13.918 -0.0433  0.2482 -0.1688
 2611W        W18685  16.739  18.084   2.866 -0.2265  0.0434 -0.1129
 2612W        W18686   3.487   8.275  11.827  0.2940  0.2992  0.3371
 2613W        W18687  10.791  18.666   0.844  0.1892  0.1644  0.4004
 2614W        W18688  16.059  14.484   3.774  0.0593  0.4389  0.0837
 2615W        W18689  17.456   4.862   3.695 -0.0848  0.1635 -0.0599
 2616W        W18690   8.715  15.094   3.347  0.0269 -0.3100  0.2314
 2617W        W18691   5.932   4.906  12.324  0.1339 -0.0998  0.2394
 2618W        W18692  17.365   4.705   2.031 -0.2860  0.2352  0.2222
 2619W        W18693  16.362   1.520  13.120  0.1085 -0.0608  0.0810
 2620W        W18694  12.270   7.322  12.128 -0.0431  0.1303 -0.0279
 2621W        W18695  12.541  14.036   0.405 -0.0475  0.0754 -0.1924
 2622W        W18696  14.963  12.259  10.818  0.2264 -0.2829 -0.4818
 2623W        W18697  19.125   2.762  10.152 -0.0467 -0.0861 -0.1793
 2624W        W18698  13.090   9.202   1.581  0.0470  0.0700 -0.1314
 2625W        W18699  15.302  10.534  11.477  0.0886  0.0219 -0.4505
 2626W        W18700   2.719  13.971   3.341 -0.0606  0.1308 -0.0500
 2627W        W18701  15.191  17.485  11.484 -0.0459 -0.1996  0.2781
 2628W        W18702  15.365  10.448  14.231 -0.0215  0.4152  0.0032
 2629W        W18703  16.291   6.635   4.464 -0.1772 -0.0629  0.0025
 2630W        W18704   9.856   5.029  11.774 -0.2060  0.2284  0.4890
 2631W        W18705  16.727  11.373  14.073 -0.0262  0.0441  0.3129
 2632W        W18706   3.037   4.300  12.128  0.1106 -0.1740 -0.1827
 2633W        W18707   7.262  18.336   1.749  0.0168 -0.0709  0.1971
 2634W        W18708  17.114  18.410   8.564 -0.0525  0.0996  0.2133
 2635W        W18709  13.746  16.459   3.928 -0.0212  0.0842  0.0140
 2636W        W18710  17.337   4.663  13.745  0.0508 -0.0797  0.1839
 2637W        W18711   8.575   3.393  13.464  0.0602 -0.1478  0.1470
 2638W        W18712  12.104   7.268   4.673  0.2453  0.0815  0.2044
 2639W        W18713   2.115   1.303   5.027 -0.1537 -0.0947 -0.0113
 2640W        W18714  14.930  14.909  13.113  0.2104 -0.3505 -0.3455
 2641W        W18715   0.645   6.639   0.740  0.2760  0.1416  0.3447
 2642W        W18716  12.460   8.100   0.063 -0.0009  0.1898  0.0274
 2643W        W18717  12.254   8.121   2.003 -0.0548  0.0324 -0.1012
 2644W        W18718  14.104   5.736   0.257  0.1588  0.1458 -0.0021
 2645W        W18719  10.626   4.256   9.314  0.1926  0.1740  0.1545
 2646W        W18720   7.747  18.396  14.533 -0.1674  0.2920 -0.3109
 2647W        W18721   9.715  15.316   0.314  0.0015 -0.1988 -0.0522
 2648W        W18722  15.847   3.779   2.463  0.1135 -0.3615 -0.1679
 2649W        W18723  15.930   9.015  12.133 -0.2514  0.2110 -0.0625
 2650W        W18724   2.501  14.940   2.132  0.1129 -0.0357  0.4512
 2651W        W18725   9.267  11.272  12.801 -0.0446 -0.2582 -0.0807
 2652W        W18726  15.360  17.446  10.476 -0.0372  0.0469 -0.1988
 2653W        W18727  18.447  12.406  11.778  0.0451 -0.0630  0.0842
 2654W        W18728   1.149  11.636   5.200 -0.1272  0.2180 -0.0913
 2655W        W18729  17.180   4.174   3.286  0.1148  0.1421  0.1769
 2656W        W18730   5.750  10.072  10.623 -0.1698  0.1625  0.0006
 2657W        W18731   0.487  11.963   4.515  0.0608 -0.0179  0.2654
 2658W        W18732  12.700   5.705  13.452 -0.2431 -0.2696 -0.0341
 2659W        W18733  15.877   5.395   1.235 -0.1655 -0.2678 -0.2480
 2660W        W18734   9.123   2.950   4.870  0.1192 -0.0857 -0.2177
 2661W        W18735  16.339  10.171   1.638  0.2922 -0.2211 -0.1468
 2662W        W18736   3.706   7.026   3.322 -0.0158 -0.0117 -0.0582
 2663W        W18737  14.815   1.504   4.634  0.1845  0.1016  0.3514
 2664W        W18738   7.653   7.565   3.978 -0.2311 -0.1551 -0.0271
 2665W        W18739   1.569  16.408   1.758  0.2355 -0.1587 -0.0205
 2666W        W18740   2.886  10.674   3.163 -0.1666 -0.0676  0.0601
 2667W        W18741   7.916   8.615   4.739  0.2903 -0.1768  0.1205
 2668W        W18742   7.295  17.477  12.749  0.1930  0.2471 -0.0914
 2669W        W18743   1.550  13.122  12.488  0.0176 -0.1149  0.2343
 2670W        W18744  17.269   3.274   0.316 -0.2868  0.1711 -0.2301
 2671W        W18745  15.524  19.014  14.210  0.0095  0.1269 -0.0607
 2672W        W18746  15.695   3.670  12.203 -0.2603  0.4051 -0.2235
 2673W        W18747  13.184   0.368   5.038 -0.1087  0.3272 -0.0220
 2674W        W18748   0.637   2.802   0.688 -0.3063  0.1624  0.0048
 2675W        W18749   4.039  13.190  13.911  0.1762 -0.1532  0.1405
 2676W        W18750  16.323   2.143   4.032  0.1297  0.1256  0.3649
 2677W        W18751   4.287  15.577  12.783 -0.1274  0.0579 -0.1829
 2678W        W18752   1.744   6.299   1.343 -0.1208  0.0633 -0.1227
 2679W        W18753  14.450   8.227  14.785 -0.0921  0.2542  0.0480
 2680W        W18754   9.626   0.196  11.646  0.0055  0.1706  0.1053
 2681W        W18755  17.423  16.912  11.767 -0.1121 -0.3578  0.1390
 2682W        W18756   5.902   3.320   5.163 -0.1646 -0.0729 -0.0122
 2683W        W18757  13.050   6.496   1.912  0.2652 -0.2373 -0.1115
 2684W        W18758  13.528  15.057  10.317  0.1167 -0.0255  0.3163
 2685W        W18759  18.009  18.010  12.593 -0.0937 -0.1294 -0.1381
 2686W        W18760  18.295  13.089  14.828  0.0974  0.0868 -0.1783
 2687W        W18761  15.758  13.777  13.205 -0.1782  0.1892 -0.1023
 2688W        W18762   2.311   9.806   0.292 -0.1183  0.1187  0.1875
 2689W        W18763   1.694   5.011   2.106  0.0586  0.0055 -0.2635
 2690W        W18764   8.531  16.304  12.127  0.4360 -0.1165 -0.0085
 2691W        W18765  13.698   7.391   1.045 -0.2549  0.2225 -0.0353
 2692W        W18766   6.483  17.388   3.158  0.0338  0.4038  0.0437
 2693W        W18767   7.642  10.456   2.366 -0.2025 -0.3422  0.1329
 2694W        W18768   1.955   4.049   0.063 -0.0938 -0.0790 -0.1152
 2695W        W18769  10.857  15.073   2.208 -0.1764  0.0310  0.0761
 2696W        W18770   9.018  14.219   3.128 -0.0013  0.0295 -0.2557
 2697W        W18771  16.258   8.929   4.944 -0.0626 -0.1246 -0.0345
 2698W        W18772   6.312  15.720   0.625 -0.1520  0.1501  0.0421
 2699W        W18773   7.239   5.423   4.796 -0.0475  0.0726  0.0288
 2700W        W18774  15.942   5.570  12.528  0.0544 -0.3301 -0.0238
 2701W        W18775  12.252   5.597   1.092 -0.0911 -0.0491 -0.1461
 2702W        W18776   7.750   1.229  11.335  0.0246  0.1206  0.2073
 2703W        W18777   3.782  19.289   2.036 -0.1400 -0.1269 -0.2265
 2704W        W18778  14.086  18.843  11.754  0.0917 -0.0983 -0.2324
 2705W        W18779   9.258   2.514  12.450  0.0389  0.2260 -0.0211
 2706W        W18780   1.436  10.012   3.699 -0.0853 -0.2663  0.1349
 2707W        W18781  13.545  12.915   4.606  0.0053 -0.0308  0.1345
 2708W        W18782   5.565  18.086  10.824 -0.0144  0.1317 -0.1193
 2709W        W18783  10.412   0.262  11.084 -0.2439 -0.2278 -0.3304
 2710W        W18784   3.611   9.974   3.281  0.0789 -0.0431  0.0755
 2711W        W18785  11.529   2.100  12.429 -0.1745 -0.0457  0.0705
 2712W        W18786   5.976   8.888   1.686 -0.1464 -0.0653  0.0547
 2713W        W18787  15.070   4.692   9.897  0.0038 -0.3118  0.0860
 2714W        W18788   8.551  11.176  13.268  0.0131 -0.0807  0.1722
 2715W        W18789   2.371  11.714   0.686  0.1540 -0.0072 -0.0869
 2716W        W18790  12.812  12.103  11.457 -0.4671 -0.0905  0.0227
 2717W        W18791   8.777   1.499  11.106 -0.0139 -0.1588 -0.1578
 2718W        W18792   5.113  14.354  12.207  0.1738  0.2264  0.0616
 2719W        W18793   1.925  10.066   3.641 -0.1076 -0.0911 -0.0671
 2720W        W18794  16.126   4.947   4.181  0.1068  0.2028 -0.3086
 2721W        W18795   2.226   5.293   4.645  0.2112  0.3349 -0.0588
 2722W        W18796  18.168   5.819  13.952  0.1440 -0.0774 -0.0344
 2723W        W18797  17.059   4.280   1.430 -0.1812  0.1788  0.2533
 2724W        W18798  15.407   1.403  11.938  0.0106 -0.1601  0.2281
 2725W        W18799  17.097   1.476   3.567  0.0512  0.1232 -0.0352
 2726W        W18800   1.311  15.315  11.233 -0.0085  0.3745  0.1785
 2727W        W18801  14.285   2.025   3.172  0.0876  0.1720 -0.1037
 2728W        W18802  14.038   1.788  10.109 -0.2607 -0.1912 -0.1089
 2729W        W18803  10.093  13.393   5.586  0.0643  0.0155  0.1758
 2730W        W18804   0.131  18.656  12.724  0.3749  0.1817  0.2642
 2731W        W18805   2.367   7.193   5.579 -0.1794 -0.0398 -0.1130
 2732W        W18806  15.905  10.601   3.999 -0.1329  0.2672  0.0213
 2733W        W18807   3.129  12.979   4.322  0.0120  0.0828  0.1411
 2734W        W18808   6.529   8.332   2.343  0.0017 -0.0843  0.0580
 2735W        W18809   5.835  17.948   4.840 -0.0870  0.0676  0.2256
 2736W        W18810  13.940  14.321  14.873  0.0922  0.0770  0.0636
 2737W        W18811   3.182   1.297  13.260 -0.4300 -0.1788 -0.1084
 2738W        W18812   8.944   6.545   6.291  0.1579 -0.3332 -0.0768
 2739W        W18813  17.384  15.938  14.924  0.1521  0.0267 -0.1591
 2740W        W18814   7.279  11.648  11.699  0.2445  0.4941  0.1500
 2741W        W18815   3.399  18.152   3.742  0.1001  0.1910 -0.2546
 2742W        W18816   4.839  10.195  12.327 -0.3871 -0.0528 -0.5577
 2743W        W18817  13.481   1.417   3.993  0.0827 -0.0688  0.0275
 2744W        W18818   7.896   0.251   5.501  0.0710 -0.2437 -0.1522
 2745W        W18819   2.725  15.078  12.029  0.1189  0.0942 -0.1697
 2746W        W18820   6.900  17.468   4.020  0.4536  0.1678  0.0258
 2747W        W18821   7.961  10.460   3.498 -0.0876 -0.0561  0.2005
 2748W        W18822  11.634   7.730  13.255 -0.2549  0.0964 -0.0303
 2749W        W18823  11.519  11.666   4.013 -0.1704  0.1034 -0.0374
 2750W        W18824   1.481  15.419   3.640  0.1939  0.0969 -0.4616
 2751W        W18825  11.213   5.447  14.712 -0.3239  0.1282 -0.0201
 2752W        W18826  12.773  18.333   5.522 -0.2425 -0.1198  0.1714
 2753W        W18827  16.181   4.354  11.917 -0.2356  0.1532  0.0049
 2754W        W18828  13.924  15.074   1.347  0.1146 -0.4915 -0.3077
 2755W        W18829  11.579   4.867  12.571  0.0803  0.0854 -0.2239
 2756W        W18830  15.109   1.501  12.309  0.0965  0.0618  0.1188
 2757W        W18831  16.055  16.768   1.924 -0.2398  0.1058 -0.0508
 2758W        W18832   3.143   4.201   4.879  0.0239  0.0663 -0.0000
 2759W        W18833   6.303   7.175   0.793  0.4096 -0.0779  0.0763
 2760W        W18834   2.701  11.898   4.865 -0.2476  0.1445 -0.2986
 2761W        W18835  17.008   5.229  11.055 -0.1981  0.0830  0.0664
 2762W        W18836  16.188  12.458  10.947  0.3872 -0.0509 -0.3991
 2763W        W18837  15.245   0.284   2.927 -0.1302  0.5521 -0.0305
 2764W        W18838  10.697  13.598  12.160 -0.0811 -0.1894  0.2059
 2765W        W18839   5.125   8.348   4.082 -0.0396  0.1954 -0.4690
 2766W        W18840  18.680   7.156   4.231  0.1235  0.1392  0.2011
 2767W        W18841  18.516   9.430  11.500 -0.0260  0.0126 -0.2108
 2768W        W18842   8.391  13.597  13.907 -0.2246  0.0349  0.0643
 2769W        W18843  12.352   2.088  12.304  0.2224 -0.2142  0.1804
 2770W        W18844  12.499   3.917   4.055  0.0672 -0.3422 -0.1549
 2771W        W18845   5.291   4.475  13.799 -0.1670 -0.1753  0.0457
 2772W        W18846   0.813   4.939   3.237 -0.0716 -0.2508 -0.0008
 2773W        W18847   4.430   3.411   2.044 -0.0042  0.2114 -0.1415
 2774W        W18848  17.863   1.710   3.115  0.3967  0.3765  0.1292
 2775W        W18849  10.448   9.064   0.679 -0.1401 -0.0627 -0.1023
 2776W        W18850  13.112   2.798   1.947  0.1136 -0.0049  0.0193
 2777W        W18851   2.282  19.052   4.920  0.2931 -0.0508 -0.0811
 2778W        W18852  14.810   1.138  14.718 -0.0857  0.0379 -0.1198
 2779W        W18853   2.312   4.949   1.302 -0.2149  0.2444  0.2774
 2780W        W18854  13.604   1.634  12.563  0.0664  0.0874 -0.3593
 2781W        W18855   8.927   7.143  13.581 -0.3310  0.1583 -0.0662
 2782W        W18856  15.879   4.133  14.811  0.1493  0.2503 -0.2089
 2783W        W18857  12.386  15.051   0.443  0.2473 -0.0859  0.1491
 2784W        W18858  14.972   9.530   4.137 -0.3237 -0.2929  0.0461
 2785W        W18859   8.969   8.014   5.308 -0.2077  0.0239  0.0830
 2786W        W18860   8.335  12.951   1.610 -0.0629  0.0225 -0.0009
 2787W        W18861   3.112  16.636  13.027  0.1405 -0.1370  0.4106
 2788W        W18862   7.303  14.690   2.724 -0.0919 -0.1961 -0.0776
 2789W        W18863  15.809  10.636  10.654  0.1453 -0.0454 -0.1921
 2790W        W18864   5.719   5.554   3.296  0.0265 -0.0193  0.3427
 2791W        W18865  12.817  10.509   3.382  0.5507  0.5425  0.1116
 2792W        W18866  10.214   0.717   0.701  0.1172 -0.0111 -0.1967
 2793W        W18867   1.438   7.376   3.309 -0.0834  0.1484  0.1131
 2794W        W18868   6.054   6.935  11.514  0.0792  0.0739  0.3826
 2795W        W18869   1.174   7.287   1.445  0.4659 -0.0110 -0.0301
 2796W        W18870  10.080   0.633  13.805  0.1173 -0.1109 -0.0225
 2797W        W18871  10.038  17.939   4.761  0.3542 -0.0394  0.0053
 2798W        W18872  16.088  14.828   3.194 -0.0340  0.0176 -0.1410
 2799W        W18873  15.753  17.789  10.219 -0.2347 -0.2830  0.0819
 2800W        W18874  10.650  10.608   3.568  0.2061 -0.2964  0.0513
 2801W        W18875  15.075   0.754   4.232 -0.2804  0.1113  0.3836
 2802W        W18876  18.803   2.786   0.259  0.1343  0.0873 -0.3599
 2803W        W18877  14.637  14.866   0.075  0.1798 -0.1192 -0.0502
 2804W        W18878   4.598  10.090  11.760 -0.0796  0.0600  0.1423
 2805W        W18879  10.846   3.182   0.154 -0.1322  0.0620  0.1433
 2806W        W18880  18.326   5.407  11.442  0.0020 -0.1390 -0.1178
 2807W        W18881  13.887  11.513  14.328 -0.3251  0.2794 -0.3700
 2808W        W18882  15.516  10.332   1.203  0.0546  0.0102 -0.0464
 2809W        W18883   9.971  16.815  13.058  0.2225  0.2546 -0.1876
 2810W        W18884  10.021  16.332  14.720 -0.1231  0.0026  0.0802
 2811W        W18885  15.710  15.775   4.665  0.0534 -0.1535 -0.0940
 2812W        W18886  15.666  16.585  14.183 -0.0469  0.2965 -0.0465
 2813W        W18887  14.250  17.718  14.999  0.1769 -0.2117  0.1382
 2814W        W18888   2.119   1.712  14.911 -0.2988 -0.3002  0.2601
 2815W        W18889  12.916  11.605   9.470 -0.1445  0.1504 -0.0740
 2816W        W18890   8.243  12.061  11.727 -0.4686  0.2311  0.0245
 2817W        W18891  16.027  15.301   3.057 -0.0899  0.1226  0.1027
 2818W        W18892  19.209   9.403   0.467  0.2764 -0.2654  0.1182
 2819W        W18893  18.105  12.317   4.486 -0.0192  0.1450  0.0081
 2820W        W18894  12.545   1.250   1.924 -0.2005  0.4189 -0.0472
 2821W        W18895  16.851   1.996   2.274 -0.0053 -0.1975 -0.0660
 2822W        W18896  12.113   1.126   2.301  0.1511  0.0727  0.1074
 2823W        W18897   3.010   4.380  14.660 -0.1255  0.0833 -0.1861
 2824W        W18898  12.070  15.953   3.737 -0.1177  0.0685  0.0989
 2825W        W18899   2.190   6.266  10.508 -0.2534 -0.1290  0.0789
 2826W        W18900   4.570  14.602   3.681  0.1196 -0.0765 -0.1740
 2827W        W18901   5.004   2.838  11.902  0.0012  0.0642  0.1448
 2828W        W18902  12.589  10.287  14.766 -0.0633 -0.0700  0.2969
 2829W        W18903  10.938  13.344  13.468  0.0285  0.1262  0.1851
 2830W        W18904   9.533  13.457  14.729  0.0879  0.1455 -0.4213
 2831W        W18905  14.930   0.855   1.978 -0.3900  0.1282 -0.2430
 2832W        W18906   2.652  16.925  10.644  0.4301 -0.2882  0.0612
 2833W        W18907  11.636   1.246   3.875  0.2268  0.0554  0.3700
 2834W        W18908   8.447  18.746  11.843 -0.2546  0.0295 -0.1253
 2835W        W18909   4.734   1.269   2.262 -0.0765 -0.0028 -0.3261
 2836W        W18910   7.615   0.061  13.818 -0.0626 -0.2363  0.0200
 2837W        W18911   0.913  19.044  10.049 -0.0915 -0.3814 -0.2227
 2838W        W18912  13.456   0.745  11.371  0.0492  0.0642 -0.2061
 2839W        W18913   1.019  14.853   3.097  0.0523  0.0411  0.2342
 2840W        W18914   3.629   8.662  14.497 -0.0797 -0.0706  0.0275
 2841W        W18915   5.992  11.349  10.518  0.1272 -0.1307 -0.1632
 2842W        W18916  11.498   6.404  12.713 -0.0488  0.1280 -0.1550
 2843W        W18917  16.689   5.747   0.036  0.0656  0.3449  0.2851
 2844W        W18918   6.258  10.079  11.367  0.3007  0.2155  0.0086
 2845W        W18919  14.899  16.360  11.605 -0.1592  0.1068 -0.0261
 2846W        W18920   0.156   1.565   4.469 -0.1874  0.1561 -0.1103
 2847W        W18921  16.460  16.825   3.312 -0.1636  0.3200  0.0209
 2848W        W18922   6.025   2.529   0.506 -0.0691 -0.3190 -0.0254
 2849W        W18923   7.216   8.787   4.218 -0.0724  0.0831 -0.1053
 2850W        W18924   9.872   3.474   2.667  0.0878  0.4226 -0.0778
 2851W        W18925  10.041   2.015   1.524  0.0829  0.0696  0.0408
 2852W        W18926   1.540  14.907  13.060  0.1248  0.3021  0.3077
 2853W        W18927   6.612   9.336  14.239 -0.0403  0.3793  0.0205
 2854W        W18928   4.113  13.970   2.464 -0.1245 -0.4300  0.0038
 2855W        W18929   2.131   6.332   2.217  0.1381 -0.1289  0.1068
 2856W        W18930  14.687   4.586   0.137  0.2262  0.1187  0.1297
 2857W        W18931   6.565  18.945  11.428  0.2199  0.1648 -0.0763
 2858W        W18932   3.495  17.478  11.371  0.3723  0.0142 -0.0873
 2859W        W18933  12.448  14.315   4.151 -0.1182 -0.1836  0.0559
 2860W        W18934   6.775   3.319  13.124 -0.3058  0.4180 -0.1603
 2861W        W18935   6.499   5.927  11.390  0.3440 -0.0222 -0.1309
 2862W        W18936  15.542   6.424   4.620 -0.1428 -0.0158 -0.1083
 2863W        W18937  15.799  18.679   2.923  0.1978 -0.2708 -0.5178
 2864W        W18938   4.403  15.668   0.904 -0.1006 -0.1490  0.0852
 2865W        W18939   8.997  13.845   0.201  0.0381 -0.0526 -0.1390
 2866W        W18940   9.711   3.333   1.216  0.1014 -0.1517 -0.0780
 2867W        W18941  10.320  14.356  12.592 -0.2934  0.1630 -0.1718
 2868W        W18942   0.060   5.851   0.971 -0.2536  0.1560  0.1770
 2869W        W18943  18.059  16.535   1.226  0.4266 -0.0000  0.0721
 2870W        W18944  16.747  15.756  10.183  0.1673  0.2048 -0.1008
 2871W        W18945  17.662  12.689  13.244 -0.2233 -0.1323 -0.4874
 2872W        W18946  15.978  18.765   3.930 -0.1648 -0.3153  0.1702
 2873W        W18947  18.544   5.793   3.494 -0.0100 -0.1490 -0.2312
 2874W        W18948   4.520  14.955  12.870  0.3122 -0.0143  0.2699
 2875W        W18949   8.133   7.580   4.891 -0.1435 -0.0217  0.3099
 2876W        W18950  11.304  14.640   2.970  0.2484  0.2631 -0.1392
 2877W        W18951  12.630  10.582  11.407 -0.0769  0.2888 -0.0662
 2878W        W18952  14.553  16.637  11.881 -0.2731 -0.0690  0.1792
 2879W        W18953   3.606  10.606   4.238  0.0057  0.0710  0.0235
 2880W        W18954   9.958   6.385  14.262 -0.1182  0.0458 -0.0508
 2881W        W18955  17.779   1.202   1.058 -0.0760  0.1144  0.1936
 2882W        W18956   8.902   3.754  11.726 -0.0279 -0.1122 -0.1763
 2883W        W18957   6.477  11.384   2.124 -0.0060  0.1116 -0.0663
 2884W        W18958   1.940  16.243  10.303  0.1238  0.1628 -0.0972
 2885W        W18959   3.160   7.414   2.386  0.0617 -0.0166  0.0726
 2886W        W18960  10.520   5.373   2.729  0.4937  0.2794  0.2802
 2887W        W18961  10.286   5.544  12.679  0.5912 -0.2769  0.0789
 2888W        W18962  12.384  16.538  11.324 -0.1478 -0.4486  0.0960
 2889W        W18963  13.954  19.180  12.157  0.0868 -0.1653 -0.1297
 2890W        W18964  13.969   8.792   9.508 -0.1276  0.2146  0.2107
 2891W        W18965  13.767   7.933  14.220  0.0060 -0.0495  0.0965
 2892W        W18966   2.113  17.137   0.885 -0.0190  0.0033 -0.1000
 2893W        W18967  16.963   6.746   2.161  0.0747  0.4479  0.0795
 2894W        W18968  10.956  14.270   4.125  0.1179  0.3338  0.0557
 2895W        W18969  16.667  16.617   2.315 -0.1270 -0.1087 -0.1475
 2896W        W18970  15.240   5.210   3.500  0.1237  0.2454  0.1793
 2897W        W18971   0.497  14.964   3.946 -0.5708 -0.1360 -0.1061
 2898W        W18972  13.119   3.158   4.371 -0.2379  0.2579 -0.1742
 2899W        W18973   3.695  17.321  12.324 -0.0882 -0.1447 -0.0225
 2900W        W18974   8.357  15.517   0.348  0.0531 -0.0010  0.1124
 2901W        W18975  19.026   4.644  13.143 -0.1525  0.2096  0.2291
 2902W        W18976   9.724   8.604  12.267 -0.2410 -0.3363 -0.0797
 2903W        W18977  12.841  11.287   3.041 -0.0342  0.2420  0.0526
 2904W        W18978   7.886   2.232   3.213  0.3585  0.2884  0.1649
 2905W        W18979   1.535   7.047   3.708  0.0173  0.3349  0.1150
 2906W        W18980   2.723  15.768   1.863 -0.1577 -0.0053 -0.2777
 2907W        W18981  14.681   1.151   2.861  0.0479 -0.2105 -0.2089
 2908W        W18982  14.547  19.228  10.222  0.0464 -0.0880 -0.1087
 2909W        W18983  10.754   9.863  13.184  0.7051 -0.0037 -0.2980
 2910W        W18984  10.124   8.949   3.107  0.3267  0.3497  0.1160
 2911W        W18985   9.525  10.201   4.301  0.3971 -0.2438 -0.0922
 2912W        W18986   2.126   6.216   3.599 -0.0223 -0.2430  0.0538
 2913W        W18987   2.753  10.650   2.190 -0.0315 -0.0188 -0.1966
 2914W        W18988  14.753   5.073   1.304  0.1885 -0.0427 -0.3706
 2915W        W18989  19.271   9.860  11.458  0.2442 -0.1179  0.0926
 2916W        W18990   3.158   0.160  12.092  0.3352 -0.4428 -0.0582
 2917W        W18991  12.758   5.126  10.920  0.2252 -0.2534 -0.2240
 2918W        W18992  17.388  10.544  14.706 -0.0833  0.1560 -0.1346
 2919W        W18993   5.093   4.905   0.016 -0.1096 -0.1170 -0.2590
 2920W        W18994   0.488   8.525  14.424 -0.2971  0.0823 -0.1953
 2921W        W18995   7.663  10.066   3.749  0.1862  0.1578 -0.0936
 2922W        W18996   7.950   4.721   4.124  0.0002  0.1147 -0.1509
 2923W        W18997   2.780  17.309  10.278 -0.0665 -0.0306  0.0634
 2924W        W18998   8.827  13.425   2.258  0.3262 -0.5228  0.0615
 2925W        W18999  19.080   3.555  14.102 -0.2446 -0.0690  0.3012
 2926W        W19000   6.631  17.219   1.326 -0.0770  0.0126 -0.0513
 2927W        W19001  10.080   4.209  12.462 -0.5133 -0.0465 -0.0040
 2928W        W19002   8.181   9.335  14.754  0.2673  0.1373  0.1796
 2929W        W19003  18.164   8.423  13.104 -0.0885 -0.2898 -0.0444
 2930W        W19004  13.585  16.157   1.638 -0.3245  0.3666  0.0501
 2931W        W19005   8.400  17.209  14.244 -0.1826  0.0222  0.1771
 2932W        W19006  16.399  19.141   4.990  0.2387 -0.0860 -0.4070
 2933W        W19007  15.601   4.978   0.274 -0.0806  0.1013 -0.0356
 2934W        W19008   1.884   8.531  12.559  0.2791  0.1282  0.0296
 2935W        W19009   0.819  14.339   4.043  0.1703  0.1726 -0.2852
 2936W        W19010   1.536   4.278   2.686  0.0140 -0.1748  0.3661
 2937W        W19011  15.437   8.776  12.141  0.1301 -0.0036  0.3457
 2938W        W19012  16.948   5.080   3.603 -0.1104 -0.1700  0.2194
 2939W        W19013   2.116   6.533   1.723  0.0843 -0.0367 -0.1733
 2940W        W19014  16.050  10.541   1.439 -0.3250 -0.0310  0.0645
 2941W        W19015   5.968   4.758   1.389  0.1316  0.0393  0.1118
 2942W        W19016   8.986  18.442  14.180  0.0347  0.1433  0.0880
 2943W        W19017   5.114   1.364   2.627  0.1201  0.4108 -0.0871
 2944W        W19018   8.994   4.753   3.754  0.1982  0.1362  0.1344
 2945W        W19019  15.097  18.335  14.523  0.0311  0.2318  0.1506
 2946W        W19020  13.327   3.131  13.384  0.3168 -0.2157 -0.2019
 2947W        W19021  11.370   6.527   0.953  0.0775 -0.0072 -0.0084
 2948W        W19022  15.621   1.858  10.563 -0.1205 -0.0394  0.0808
 2949W        W19023  14.748   1.400  14.275 -0.0799  0.1188 -0.2744
 2950W        W19024  11.777   3.703  12.787  0.0824 -0.0941  0.3067
 2951W        W19025  18.356   2.224   3.905  0.1933  0.0396 -0.1634
 2952W        W19026   7.127  17.968  11.374 -0.2037 -0.0594  0.3584
 2953W        W19027   6.360  19.113   3.830 -0.3959  0.0462 -0.0538
 2954W        W19028   3.238  16.429   4.587 -0.0153  0.2252 -0.1980
 2955W        W19029   1.519   3.665  10.898 -0.0224 -0.0392  0.0630
 2956W        W19030   2.248  15.662   0.174 -0.0336 -0.0231 -0.3273
 2957W        W19031  15.405   9.093   1.020  0.0137  0.0851 -0.2027
 2958W        W19032  10.541   8.277  13.079 -0.0404 -0.1644 -0.2419
 2959W        W19033   6.957  14.262   0.587 -0.1636  0.0285  0.1052
 2960W        W19034   6.593  15.120   4.741 -0.0521  0.3648  0.2666
 2961W        W19035  16.955  14.494  13.637  0.2845 -0.2034  0.2410
 2962W        W19036   2.131   8.148  13.879  0.0652  0.3215  0.0206
 2963W        W19037   0.316  13.206  10.868  0.0650  0.3323  0.2150
 2964W        W19038   8.210  14.397  11.978  0.0490 -0.0182  0.1452
 2965W        W19039  17.606   4.470   2.448 -0.2765  0.1977  0.1111
 2966W        W19040  10.382  17.155  11.269 -0.0752  0.1960 -0.2060
 2967W        W19041   9.258   7.984   4.484  0.1576 -0.0992 -0.0679
 2968W        W19042   5.190  11.481   2.633  0.4830  0.0261  0.4565
 2969W        W19043   3.252  11.330   4.295 -0.2759 -0.2751 -0.0513
 2970W        W19044   4.517   8.745   4.673 -0.3108 -0.1312  0.3274
 2971W        W19045   8.828   7.916   2.300 -0.0202 -0.1047  0.0525
 2972W        W19046  17.116   2.958  13.240  0.0311 -0.0796 -0.2275
 2973W        W19047   9.570  11.731  10.621 -0.2889  0.1870 -0.2070
 2974W        W19048  14.930   4.051  10.077 -0.0272  0.1856 -0.0405
 2975W        W19049   6.083  15.728   2.865 -0.0300  0.0898  0.0731
 2976W        W19050  11.995  19.040   2.172  0.0174  0.0609 -0.3778
 2977W        W19051   0.433   4.655   3.361  0.0914 -0.2268  0.1426
 2978W        W19052  10.744   4.392   1.035 -0.0607 -0.2912 -0.1847
 2979W        W19053   8.769  11.274  13.738  0.0578 -0.0033 -0.0130
 2980W        W19054   0.745   5.172  13.460 -0.1091  0.1060  0.3055
 2981W        W19055   5.086  11.510  14.511 -0.0515  0.2023 -0.0544
 2982W        W19056   5.113   3.211  14.206  0.4007 -0.0752  0.4137
 2983W        W19057  18.665   1.810   1.102 -0.1662 -0.0106 -0.2004
 2984W        W19058   3.231  15.318  12.510  0.2250  0.1424 -0.0820
 2985W        W19059   8.719  17.195   4.733  0.0022 -0.1831 -0.3700
 2986W        W19060  12.245  10.133   0.628  0.2233 -0.2239 -0.0896
 2987W        W19061  15.509  17.530  13.386 -0.1114 -0.3574  0.4034
 2988W        W19062  14.014  17.602   3.733  0.0609  0.0040  0.0544
 2989W        W19063  11.533   2.122   5.755  0.5772  0.3916 -0.0271
 2990W        W19064  11.924  11.964   4.518 -0.0386 -0.1480 -0.3610
 2991W        W19065  11.405  15.167   5.157  0.2236 -0.2628 -0.0198
 2992W        W19066  13.588   2.621   4.241 -0.3015  0.1167 -0.2304
 2993W        W19067   4.108   2.081   3.735  0.1313 -0.0892  0.0912
 2994W        W19068  15.209  14.630   4.049  0.0327 -0.2264 -0.0730
 2995W        W19069   3.802  12.203   4.036  0.1268 -0.0692  0.0638
 2996W        W19070   9.399  10.725   1.243 -0.3122 -0.0454  0.1140
 2997W        W19071   0.476  14.678   1.559  0.0945 -0.0435 -0.0536
 2998W        W19072   3.495  11.162   3.003  0.2370 -0.0351  0.1115
 2999W        W19073   8.680   2.153  13.254  0.0911  0.3115  0.0157
 3000W        W19074  18.728  16.202   1.485 -0.1743  0.1408  0.2605
 3001W        W19075  17.044  16.868  11.409 -0.2428  0.0816  0.1169
 3002W        W19076   4.865   5.562  14.160 -0.3024 -0.1916 -0.2032
 3003W        W19077  10.467   0.107   1.889 -0.0598  0.0778 -0.1183
 3004W        W19078   1.676   1.735  11.496 -0.2722 -0.0395 -0.0305
 3005W        W19079  11.186   2.660   0.934  0.1110 -0.0557  0.1331
 3006W        W19080   1.101  10.133   4.107 -0.1293 -0.0801  0.2038
 3007W        W19081  18.931   3.678   1.916  0.2665 -0.3055  0.0966
 3008W        W19082  18.814   9.769   1.297  0.1970 -0.1718  0.3762
 3009W        W19083   4.327   6.736   1.153  0.0508  0.2300  0.2754
 3010W        W19084   8.900   6.667  11.479  0.1590  0.0781  0.2605
 3011W        W19085  15.047   8.395   3.260 -0.0582  0.1989  0.2972
 3012W        W19086  14.682  11.130  13.244 -0.1189 -0.0539  0.1017
 3013W        W19087   8.144  17.245   0.726 -0.1040 -0.1831  0.2481
 3014W        W19088   3.439   9.718  13.392 -0.2975  0.0608  0.0143
 3015W        W19089   6.779   7.070  14.488 -0.1390 -0.0455 -0.0269
 3016W        W19090  16.086  15.921  12.166 -0.0847 -0.3560 -0.3503
 3017W        W19091  17.233  12.609   3.678 -0.3385  0.0466 -0.0329
 3018W        W19092   6.470   5.002  12.539  0.0147 -0.0956 -0.0446
 3019W        W19093  13.737   8.034  11.092  0.0287  0.0853  0.0048
 3020W        W19094  13.085   5.890  15.026  0.1360 -0.0318 -0.0375
 3021W        W19095   0.008  14.404  12.109 -0.2164  0.1723 -0.1547
 3022W        W19096   7.104  12.106   1.237 -0.3194 -0.0923 -0.0137
 3023W        W19097   5.557  16.897   1.045 -0.1421 -0.1373 -0.1745
 3024W        W19098   1.728  16.325  12.880  0.2391 -0.2175  0.0976
 3025W        W19099   5.847  11.236  11.963  0.0857 -0.1072  0.0335
 3026W        W19100   1.794  13.890   1.491  0.2718  0.2803  0.0487
 3027W        W19101   2.011   5.139   0.942  0.2196 -0.1773 -0.0089
 3028W        W19102  18.377   4.516   1.773  0.0216 -0.0597 -0.1720
 3029W        W19103  17.633   4.191   0.450  0.1099  0.0687  0.4875
 3030W        W19104  10.522   9.120   2.316 -0.0202  0.1885 -0.1175
 3031W        W19105   3.773  11.206  10.088 -0.0838 -0.0977 -0.1504
 3032W        W19106   0.025  14.758  11.167 -0.0769 -0.1348  0.3518
 3033W        W19107   8.223  16.803   2.030 -0.0900 -0.1561 -0.3785
 3034W        W19108  12.818   1.846  10.392  0.2250 -0.0068  0.1738
 3035W        W19109  19.127   8.832   3.086 -0.0441 -0.2261  0.3323
 3036W        W19110   7.274  17.945  10.839 -0.0496  0.1518 -0.2132
 3037W        W19111  12.908  13.703   2.928  0.2002 -0.1544 -0.2425
 3038W        W19112   8.892   1.017  13.856 -0.2088  0.0218 -0.1425
 3039W        W19113   8.227  10.845   4.787  0.0485  0.1770  0.0398
 3040W        W19114  13.658   1.436   0.675 -0.2920 -0.0097 -0.1462
 3041W        W19115  10.196  16.780  12.486  0.1987  0.2364  0.1353
 3042W        W19116  16.399  14.504  11.821  0.4480 -0.3268  0.0417
 3043W        W19117   5.056   4.209  12.272 -0.0254  0.1096 -0.1616
 3044W        W19118   6.381  12.357  11.634 -0.1330  0.0202  0.4245
 3045W        W19119   1.060  16.149   1.783  0.0897 -0.0672  0.0470
 3046W        W19120   5.661   6.008  13.730 -0.4384  0.3090  0.2587
 3047W        W19121  10.869  14.063  12.072  0.0950  0.0974 -0.1578
 3048W        W19122  13.496   9.140   0.420 -0.1072 -0.1259 -0.0256
 3049W        W19123   5.141  11.108   5.615 -0.1968 -0.1120 -0.0909
 3050W        W19124   0.969   7.834  12.279  0.1191  0.2101  0.0843
 3051W        W19125   1.378  11.000   1.508 -0.0072  0.1485  0.2353
 3052W        W19126   3.568   1.927  13.698  0.3366  0.1853 -0.1153
 3053W        W19127  14.503  12.272  11.092 -0.0629 -0.1076  0.1117
 3054W        W19128  16.962   4.934  11.471 -0.1190  0.2155 -0.0935
 3055W        W19129  12.255  12.331  12.941 -0.1732 -0.3716  0.3173
 3056W        W19130  11.463   6.908  13.833  0.1898 -0.0076  0.1889
 3057W        W19131   5.425   6.068   5.105  0.0988 -0.1688  0.0257
 3058W        W19132  10.883   4.652   3.963  0.0109 -0.0888 -0.2484
 3059W        W19133   6.840   7.440  10.942  0.2718  0.0792  0.1449
 3060W        W19134   2.322   8.457  10.733  0.0118 -0.0034 -0.0318
 3061W        W19135  18.053   1.597  10.747  0.0188  0.0927  0.5749
 3062W        W19136  19.032  18.435  14.192 -0.3592  0.5742  0.2305
 3063W        W19137   3.027  18.834  13.770 -0.0795 -0.2244  0.1158
 3064W        W19138   7.010   9.743   4.184  0.2883  0.3903  0.1404
 3065W        W19139  12.447  14.383  14.753  0.1274 -0.0187 -0.0214
 3066W        W19140  17.920  12.207   3.005 -0.1208  0.0209 -0.1250
 3067W        W19141  13.460   8.839  11.151 -0.0415 -0.2223  0.0823
 3068W        W19142   5.722  13.262  11.937 -0.0046 -0.1004  0.1006
 3069W        W19143  15.384  15.378   8.939  0.0529 -0.1591 -0.2269
 3070W        W19144   9.409  15.158  14.487 -0.0079 -0.1363  0.0503
 3071W        W19145   6.085   4.855   1.882  0.0932 -0.1419 -0.2072
 3072W        W19146   0.371   8.588   4.893 -0.0883 -0.2918  0.2349
 3073W        W19147   8.999  10.969   2.664 -0.1267 -0.1939  0.0893
 3074W        W19148   6.595   1.458  14.618  0.0642  0.0996  0.1480
 3075W        W19149  16.356  15.307  13.120  0.0901 -0.2132 -0.4951
 3076W        W19150   6.887  18.051   5.134 -0.0085  0.2679  0.1732
 3077W        W19151  10.521  18.869  12.222  0.1842 -0.0945  0.0757
 3078W        W19152  14.861   3.764   0.556  0.0005 -0.1998  0.0054
 3079W        W19153  14.378  11.949   4.199  0.1386  0.1010  0.0893
 3080W        W19154  17.028   9.315   3.923 -0.4243  0.0118  0.0125
 3081W        W19155   9.505   2.584  12.031  0.0439 -0.2693 -0.0250
 3082W        W19156  10.138   0.842   2.976 -0.0257 -0.1209  0.0817
 3083W        W19157   2.463   7.624  13.875  0.0186  0.1382  0.1775
 3084W        W19158  12.451  17.920  13.236  0.0393  0.0709  0.0921
 3085W        W19159   4.034  17.571   4.142  0.0209 -0.1505  0.0013
 3086W        W19160   8.137  11.282   2.408 -0.3304 -0.0571  0.0119
 3087W        W19161  15.283  19.243   3.941 -0.0187 -0.1697 -0.0932
 3088W        W19162   1.687   8.157   4.488 -0.4539 -0.1092 -0.1639
 3089W        W19163   7.820   6.399  12.605  0.2662  0.1766  0.0652
 3090W        W19164   9.345  14.160  13.913 -0.3305  0.1225 -0.0385
 3091W        W19165   3.531  18.567  12.452 -0.1308 -0.2249 -0.4351
 3092W        W19166  11.922   4.993   1.655 -0.0671  0.2217 -0.0856
 3093W        W19167   2.804  14.685   3.985  0.1233  0.0885 -0.1664
 3094W        W19168   0.903   9.721   2.779 -0.0740  0.2768  0.4044
 3095W        W19169  11.423  11.119  12.749  0.0619  0.0579  0.0132
 3096W        W19170   2.895   2.039  14.847  0.2288  0.0461 -0.1077
 3097W        W19171  16.449   3.020   4.957 -0.0645 -0.0521 -0.2791
 3098W        W19172  11.880   9.110  13.628 -0.0534 -0.1016  0.1645
 3099W        W19173  16.041  13.012  12.688  0.1327 -0.1748 -0.4387
 3100W        W19174   3.790  19.033   4.290  0.0592 -0.0645  0.2578
 3101W        W19175  17.808   2.991   1.237 -0.0692 -0.0059 -0.0130
 3102W        W19176   4.875  12.953  11.606  0.2874 -0.0275  0.1000
 3103W        W19177   3.675  11.892   0.118 -0.0446  0.1996 -0.1188
 3104W        W19178  12.130   5.220   4.412  0.3024  0.0279 -0.1830
 3105W        W19179   8.394  10.490  12.648 -0.0708 -0.0159 -0.2085
 3106W        W19180  13.300  14.830   4.428  0.1338 -0.0683 -0.0383
 3107W        W19181  10.946  13.164  12.770  0.1876 -0.0863 -0.3235
 3108W        W19182   6.142   2.901   5.015 -0.3346  0.1089 -0.0444
 3109W        W19183   0.397  15.070  11.188 -0.0801 -0.0834  0.1155
 3110W        W19184   9.992  15.255  12.089 -0.1846  0.4613  0.0215
 3111W        W19185   4.003  13.076   3.693  0.1548  0.0577 -0.0503
 3112W        W19186  17.921  13.360   1.674 -0.1448  0.2466 -0.1633
 3113W        W19187   8.817   7.498  11.130  0.2097 -0.0926  0.3358
 3114W        W19188  13.780   9.211  10.924 -0.1096 -0.1991  0.2262
 3115W        W19189   6.155  10.012   1.409 -0.0543  0.4362 -0.4421
 3116W        W19190   4.792   5.640   2.182 -0.0799  0.2130  0.1182
 3117W        W19191   4.410   5.734   4.175 -0.0329 -0.0109  0.0476
 3118W        W19192   5.798   2.175  13.048  0.3176  0.3193 -0.2575
 3119W        W19193  12.746   2.547  14.045 -0.4300  0.4352 -0.1088
 3120W        W19194  13.951  16.485  12.739  0.0677  0.0620 -0.0631
 3121W        W19195   6.906   7.191   6.167 -0.0541  0.0145  0.3506
 3122W        W19196  16.867  10.773   2.679  0.1899 -0.1818  0.1672
 3123W        W19197  13.867   7.675  12.208 -0.0673 -0.1029 -0.0187
 3124W        W19198  10.538   8.800  14.774 -0.1768 -0.1700  0.0762
 3125W        W19199   9.651  16.731   3.454 -0.0337  0.2938 -0.0828
 3126W        W19200  16.396  10.127  13.509  0.0487 -0.1610 -0.1585
 3127W        W19201   4.491  16.079  13.634 -0.1709  0.5042  0.1522
 3128W        W19202  18.521   4.867   2.161  0.3987  0.0024 -0.0582
 3129W        W19203  17.018   3.820   5.083  0.1173  0.0019  0.3240
 3130W        W19204  13.729   1.382  14.036  0.0507  0.0644  0.0535
 3131W        W19205  17.710   1.946   1.704 -0.1144 -0.0836  0.1141
 3132W        W19206  12.094   7.110   0.998  0.2247 -0.2724  0.2185
 3133W        W19207   1.563   7.752   5.245 -0.0253 -0.2389 -0.2956
 3134W        W19208  14.103  12.613  11.665 -0.2696  0.1032 -0.1878
 3135W        W19209   9.380   2.066   1.447  0.2205 -0.1393  0.1350
 3136W        W19210   6.505   4.018   2.925 -0.2513 -0.1536  0.0673
 3137W        W19211   7.370  11.623   4.202  0.1427  0.0329  0.0266
 3138W        W19212   3.568   3.108  14.168 -0.2141  0.0144  0.0524
 3139W        W19213  16.222  17.271  12.920  0.0451 -0.1968  0.2165
 3140W        W19214  14.655   4.095   1.422  0.0812 -0.0212  0.2383
 3141W        W19215   2.237  16.950   4.000  0.2165  0.0243  0.1155
 3142W        W19216  19.062  11.136   2.526 -0.0176 -0.2871  0.0850
 3143W        W19217   6.640  13.664   3.241  0.0184  0.2489  0.0280
 3144W        W19218  16.040  11.880   1.912  0.2845 -0.0098 -0.3113
 3145W        W19219   2.316  18.853  11.351  0.2134  0.0107 -0.2871
 3146W        W19220  15.235   3.952   2.708  0.0032 -0.0212 -0.3114
 3147W        W19221   5.572   8.317   9.739  0.1728 -0.2456  0.0929
 3148W        W19222  16.924  10.107   4.773  0.2932  0.1789 -0.1058
 3149W        W19223  11.661   2.485  10.624  0.1317  0.1573  0.0433
 3150W        W19224   3.646   2.528  11.273  0.0608  0.0437  0.1885
 3151W        W19225   1.555   4.264   4.543  0.0753  0.0371 -0.0737
 3152W        W19226  16.744   9.625   2.394 -0.1635 -0.0982 -0.1513
 3153W        W19227   9.050  12.377   1.409 -0.1105 -0.1626  0.1327
 3154W        W19228   2.599   2.756  10.936  0.2174 -0.1346 -0.0975
 3155W        W19229   1.028   9.527  14.982  0.2789 -0.1245  0.0060
 3156W        W19230   7.558   5.659   4.500 -0.0336  0.0799 -0.0530
 3157W        W19231  15.549   7.749  11.176  0.1275 -0.0631  0.0934
 3158W        W19232   7.156   0.888  10.800  0.1633  0.1291  0.2960
 3159W        W19233  12.820  16.718   9.996  0.3923 -0.2154 -0.1007
 3160W        W19234  16.651  13.827  14.837 -0.2566 -0.0231 -0.0194
 3161W        W19235   1.227   2.447   2.543  0.0445 -0.1564  0.2272
 3162W        W19236   3.765  10.299   0.399  0.0616 -0.0957  0.2043
 3163W        W19237   3.434  15.349   0.970  0.0113  0.0968 -0.0587
 3164W        W19238  19.255   7.173   4.040  0.0975 -0.2146  0.0974
 3165W        W19239   4.816   6.803   5.511 -0.0057 -0.1210  0.3232
 3166W        W19240   5.509  17.183   2.614  0.0121  0.2545  0.0607
 3167W        W19241   4.491   6.917  13.536 -0.1716 -0.2052  0.2312
 3168W        W19242   9.489  17.066   3.759 -0.0764  0.0296 -0.0018
 3169W        W19243  10.713  16.706   0.818  0.1039  0.3422  0.2372
 3170W        W19244   1.974  16.949   3.400 -0.3039 -0.0567 -0.3520
 3171W        W19245  18.716   0.858   1.235 -0.0175 -0.1336 -0.2458
 3172W        W19246   9.883   4.235   1.224 -0.2531 -0.1985 -0.1547
 3173W        W19247   2.400   1.633   4.399  0.0579  0.3733 -0.0549
 3174W        W19248  10.548  17.214   4.925  0.2811  0.0099 -0.1345
 3175W        W19249  14.683   4.610   1.576  0.0156  0.0041  0.1530
 3176W        W19250   9.568  16.158   3.381  0.0423  0.3719  0.0653
 3177W        W19251   4.959   0.450  14.892 -0.0736  0.1690 -0.2167
 3178W        W19252  14.406  13.547  10.644  0.2286 -0.2656  0.1023
 3179W        W19253   4.234  16.601   3.690 -0.4923  0.0138 -0.0873
 3180W        W19254  15.909  16.815  10.606 -0.2020 -0.3523  0.1506
 3181W        W19255   0.409  12.357  13.240  0.2096  0.2449 -0.1622
 3182W        W19256   2.280   5.550   1.144 -0.0486  0.0407 -0.0485
 3183W        W19257  15.327  13.152   0.537  0.1944 -0.1091 -0.2732
 3184W        W19258   6.035  14.887   0.312 -0.1782 -0.2379  0.0340
 3185W        W19259   7.690  15.527   2.278 -0.3611  0.1238  0.4647
 3186W        W19260  15.331   7.578   4.002 -0.4486 -0.3737  0.2356
 3187W        W19261   0.193   4.560  14.689 -0.0804 -0.3788 -0.2574
 3188W        W19262  19.208  12.245  12.099 -0.3787 -0.0003  0.0094
 3189W        W19263   6.877  18.251   2.359 -0.0948  0.2713  0.1000
 3190W        W19264  13.557  14.328   2.686 -0.1492 -0.2383  0.0874
 3191W        W19265  12.094   3.804  13.719 -0.0466  0.0072 -0.1311
 3192W        W19266   7.330  17.367  13.273 -0.0230  0.1080 -0.1663
 3193W        W19267  17.654   9.685   3.558  0.0669  0.2306  0.0220
 3194W        W19268  11.198   5.678  12.931 -0.0345  0.0550  0.2593
 3195W        W19269  14.706  15.638  13.802  0.0439  0.0313 -0.0779
 3196W        W19270   5.189  13.731  12.383  0.1278  0.1946 -0.1467
 3197W        W19271  12.011  18.761  11.334  0.1024 -0.2277 -0.4113
 3198W        W19272   4.536  11.362  12.329  0.0815  0.2273 -0.1876
 3199W        W19273   0.260  12.932  14.537 -0.1271 -0.2510 -0.1163
 3200W        W19274   0.923  16.776   3.704 -0.1840  0.1372  0.3335
 3201W        W19275   7.057   2.815  12.451 -0.1012  0.0572  0.3152
 3202W        W19276   3.428   0.091  13.753 -0.0182  0.1009 -0.3544
 3203W        W19277  16.696  17.585   3.806 -0.1366  0.0304  0.2174
 3204W        W19278   9.826  11.904   1.108  0.2939  0.1653 -0.1350
 3205W        W19279   6.636  13.657  11.548  0.1667  0.2325  0.0583
 3206W        W19280  15.865  18.307   0.901  0.2126 -0.2469  0.0843
 3207W        W19281   3.776  16.380   1.286 -0.0633  0.0818  0.5544
 3208W        W19282   6.541  16.634  11.080 -0.0929 -0.0274  0.1042
 3209W        W19283  17.121  17.813  11.168  0.0902  0.0461 -0.3389
 3210W        W19284  13.471   6.773  11.113  0.1612  0.1245  0.2170
 3211W        W19285  13.823   0.994  14.332  0.1490  0.0617  0.0081
 3212W        W19286   0.352   0.122  10.590  0.0788  0.2180 -0.1371
 3213W        W19287  14.478   0.729   2.613  0.0219 -0.4124 -0.2416
 3214W        W19288   4.585   4.185   3.327  0.0081  0.0919  0.0939
 3215W        W19289   0.734  13.236   0.278  0.1772  0.1804  0.0633
 3216W        W19290   8.831   5.756   1.977 -0.0532  0.1085  0.2878
 3217W        W19291   8.478   4.045   0.877 -0.0252  0.3577  0.4041
 3218W        W19292   1.220  10.602  13.536  0.3679 -0.4063 -0.1016
 3219W        W19293   8.462  18.644   0.782 -0.3947  0.4654  0.2543
 3220W        W19294   0.898   5.023   4.805 -0.2781  0.0635  0.1349
 3221W        W19295  14.875   0.360   0.587  0.0558  0.1838 -0.0018
 3222W        W19296  18.432   6.924   0.675 -0.1607 -0.0518  0.1869
 3223W        W19297   3.211   4.580  13.699  0.3538  0.0116  0.3379
 3224W        W19298   4.757   8.716  12.319 -0.1902 -0.2696  0.0364
 3225W        W19299  16.124   3.167  13.612  0.1886  0.0431 -0.1207
 3226W        W19300  16.321  11.499  11.022  0.0468  0.1012 -0.1840
 3227W        W19301   3.453  14.829  11.062  0.2609  0.1448 -0.1030
 3228W        W19302  17.236   7.359  11.806 -0.0427  0.0895  0.0042
 3229W        W19303   2.822  12.019  14.992 -0.1331 -0.3253  0.0108
 3230W        W19304   0.063   9.290   1.061  0.0567  0.2553  0.1485
 3231W        W19305   2.335  14.683  12.025  0.1575 -0.0520  0.0695
 3232W        W19306   9.567  19.189  13.659  0.1652  0.0170 -0.1815
 3233W        W19307   8.583  18.885   1.286  0.0665  0.3261 -0.0543
 3234W        W19308   0.082  17.273   8.683 -0.2300  0.0688 -0.1725
 3235W        W19309   3.146   7.514   0.956  0.2656  0.1992  0.1574
 3236W        W19310  16.130  13.504  14.535 -0.1503  0.0203  0.2585
 3237W        W19311   2.917   8.277  11.747 -0.1478  0.1372  0.2876
 3238W        W19312  11.865   9.085  13.023 -0.1144 -0.2706  0.0713
 3239W        W19313   3.782  17.732   0.975  0.0646  0.0411  0.1802
 3240W        W19314   5.278   6.023   5.643  0.2100  0.0387  0.1942
 3241W        W19315  15.551  12.616   4.504  0.0200 -0.0823  0.1839
 3242W        W19316   0.459   1.443  13.317  0.3212 -0.4008  0.1502
 3243W        W19317  12.752   4.789   3.795 -0.1949  0.0290 -0.0956
 3244W        W19318   6.148   1.721   1.208  0.0687 -0.1760  0.2507
 3245W        W19319   5.988   7.940   1.477  0.0517  0.1158  0.1678
 3246W        W19320   9.802   9.415   1.047  0.2063  0.0486  0.3141
 3247W        W19321  16.550   4.605  12.178 -0.3985  0.0753 -0.1085
 3248W        W19322   9.664   0.703  12.368  0.0402 -0.2970 -0.0568
 3249W        W19323   3.033  16.455  14.286  0.4738 -0.0913 -0.3570
 3250W        W19324  11.009  13.385  14.515 -0.1409 -0.3014  0.0230
 3251W        W19325  13.243   0.613  14.907 -0.3705  0.0108 -0.2640
 3252W        W19326  19.221  10.380  13.080 -0.2134 -0.0919  0.1996
 3253W        W19327  11.879  18.028   3.639  0.0988 -0.0200  0.1549
 3254W        W19328  15.433   9.254  14.438 -0.0074 -0.2943 -0.0062
 3255W        W19329  13.046   3.146  12.475 -0.1647  0.4904  0.1260
 3256W        W19330  16.334  16.869  14.821 -0.0920  0.1416 -0.0669
 3257W        W19331   3.591  11.275  13.534  0.0363  0.1462 -0.0794
 3258W        W19332  12.418   7.742  13.500  0.3571  0.0695  0.0316
 3259W        W19333   9.557   4.772  13.662  0.3553 -0.3136 -0.2511
 3260W        W19334  18.241  11.962  12.944 -0.0914  0.0892  0.0947
 3261W        W19335   6.816  12.147  11.811 -0.0126  0.0083 -0.0569
 3262W        W19336  16.692   9.130  12.742  0.0625  0.2655  0.2205
 3263W        W19337  18.605   9.665  15.052  0.3567 -0.1468 -0.2196
 3264W        W19338   8.665   7.641  14.854  0.0387  0.0910 -0.1715
 3265W        W19339   5.338   6.571  11.238 -0.0466  0.0867  0.1548
 3266W        W19340  10.482   7.047  14.156 -0.3696 -0.3729 -0.1797
 3267W        W19341   0.352   9.421   3.826  0.0399 -0.0413 -0.3610
 3268W        W19342  16.179  16.240   1.365  0.1462  0.4313 -0.0183
 3269W        W19343   2.667   0.257  11.166 -0.1507  0.1679 -0.4536
 3270W        W19344  12.555   6.550  10.897  0.3030  0.1908  0.0953
 3271W        W19345  12.225  18.728   2.587  0.0264  0.0801 -0.1381
 3272W        W19346  13.067  14.102  11.496  0.1505  0.1172 -0.1168
 3273W        W19347  13.753   3.155   5.120 -0.2518 -0.1558  0.2108
 3274W        W19348   2.460  14.683  11.105  0.1624  0.3270 -0.2172
 3275W        W19349  10.116  11.403  14.455 -0.3477 -0.1351  0.0136
 3276W        W19350   8.257  13.727   2.236 -0.0427 -0.0285  0.1140
 3277W        W19351   4.052   7.409   3.598  0.3792 -0.0006  0.0515
 3278W        W19352   4.125  17.394  11.973 -0.0827  0.1139 -0.1585
 3279W        W19353  16.478   2.867   0.501  0.2197  0.4020  0.2898
 3280W        W19354   6.355  17.804   4.032  0.2308 -0.2057  0.1691
 3281W        W19355  15.538   2.626   3.736 -0.3293 -0.1532 -0.0807
 3282W        W19356   6.755  14.507  10.656 -0.1188  0.1391 -0.1097
 3283W        W19357   0.202   5.428  11.673  0.1433 -0.0200  0.0268
 3284W        W19358   7.646  14.981   2.346  0.0384 -0.1415 -0.0053
 3285W        W19359   1.326  17.815   5.267 -0.1817  0.0251 -0.0038
 3286W        W19360  16.888   5.671   3.780  0.1090 -0.1814  0.3317
 3287W        W19361   2.551  17.532   3.923  0.3182  0.1880  0.2436
 3288W        W19362   9.012  14.815   1.324  0.0562 -0.1190 -0.0276
 3289W        W19363  14.152   1.941  11.318 -0.1620  0.2483 -0.3294
 3290W        W19364  16.426   6.080   1.780 -0.2039 -0.0303 -0.2110
 3291W        W19365   1.243  10.957   3.942  0.3024  0.1097 -0.0956
 3292W        W19366   5.577   0.686   4.501 -0.3521  0.3364  0.0694
 3293W        W19367  16.396  11.592  11.967 -0.4782 -0.2138 -0.1602
 3294W        W19368   1.335  12.379   4.625  0.0431 -0.0356  0.0465
 3295W        W19369  18.715  16.413  11.163 -0.1195 -0.3547 -0.3003
 3296W        W19370  13.279  14.221  10.600 -0.0131 -0.2266 -0.2706
 3297W        W19371  12.797   9.633  11.512 -0.3035  0.2407  0.3123
 3298W        W19372   2.640   8.124  13.748 -0.0065  0.1853  0.1426
 3299W        W19373   6.683  16.483   3.486 -0.0538 -0.3612 -0.3065
 3300W        W19374  11.625  11.707   5.186  0.1390 -0.3049 -0.3372
 3301W        W19375  12.164   4.519  11.270  0.1373 -0.1689 -0.2287
 3302W        W19376  11.207  19.178  10.887 -0.0954 -0.1749 -0.3259
 3303W        W19377  17.388  11.914  10.312  0.1354  0.0435  0.1671
 3304W        W19378  10.196  15.428  12.811 -0.1258  0.0236  0.1153
 3305W        W19379  13.108   6.449   4.139  0.0858 -0.3139  0.2735
 3306W        W19380   0.184   0.306   1.560  0.1906  0.1826  0.0633
 3307W        W19381  14.133  18.557  12.678  0.2062 -0.1954 -0.0272
 3308W        W19382   8.763   8.440   2.233  0.1792  0.1624 -0.0474
 3309W        W19383   4.920   2.159  11.940 -0.0677  0.0602 -0.1093
 3310W        W19384   5.821   2.382  13.487 -0.1561  0.1699  0.2465
 3311W        W19385  18.703   8.909  10.233 -0.2829 -0.1278 -0.1662
 3312W        W19386   7.820   8.066   4.861  0.0247  0.1474  0.0296
 3313W        W19387   2.616   8.604   5.591 -0.0349 -0.3116  0.1685
 3314W        W19388  11.108  16.477  13.201 -0.0268  0.1535  0.1305
 3315W        W19389  15.514   6.460   2.268  0.0209 -0.2015 -0.0756
 3316W        W19390   4.008  10.158  11.782  0.0255 -0.1490 -0.0362
 3317W        W19391  10.394  15.006   2.579  0.2360  0.1689 -0.2039
 3318W        W19392   4.297   6.745   4.013  0.1027 -0.0345 -0.0435
 3319W        W19393   2.671   8.083   1.473  0.0695  0.0458  0.0288
 3320W        W19394  18.643   7.127  12.437 -0.1960 -0.0776 -0.2362
 3321W        W19395   4.911   7.308   1.846  0.0386  0.2623  0.0481
 3322W        W19396  16.915   6.539   4.908 -0.4803 -0.0964  0.1365
 3323W        W19397  16.549   8.454   4.301  0.2511  0.2570 -0.4025
 3324W        W19398   9.898   1.117   0.962  0.0613  0.3267  0.0759
 3325W        W19399   8.317   4.361   1.252  0.1121  0.2494 -0.1274
 3326W        W19400  18.983   6.854   4.435 -0.2391 -0.0158 -0.0269
 3327W        W19401   9.032   6.080  13.067  0.1259  0.0706 -0.0426
 3328W        W19402  15.767   0.076  13.196  0.1173 -0.2735  0.3423
 3329W        W19403   6.574   8.370   6.325  0.0583  0.1304  0.3990
 3330W        W19404   0.094   2.849   9.255 -0.1073  0.0892  0.1091
 3331W        W19405   6.749  15.187   4.274  0.1253  0.2029  0.2282
 3332W        W19406  13.728   4.149   3.177  0.1296 -0.1869  0.1026
 3333W        W19407   5.768  11.875  11.211  0.0927  0.1918  0.0484
 3334W        W19408  17.048   6.452   1.743  0.0964  0.0086 -0.1243
 3335W        W19409  11.208   8.463   4.081 -0.0742  0.1478  0.0084
 3336W        W19410  14.523  15.079  10.783 -0.2787 -0.2056 -0.2431
 3337W        W19411   5.937  11.652   0.482  0.1132 -0.0939 -0.1640
 3338W        W19412   1.175   5.588   0.851 -0.1818 -0.0114  0.0978
 3339W        W19413  13.712   8.453  14.396 -0.1951  0.1526 -0.1578
 3340W        W19414   3.509   0.639  14.326 -0.1072 -0.0616 -0.0585
 3341W        W19415   6.509  11.550  13.263 -0.2307 -0.0446 -0.1458
 3342W        W19416   1.400  18.200  10.677 -0.0319 -0.0231  0.0916
 3343W        W19417  13.838  17.802  11.562 -0.3747 -0.0368 -0.0559
 3344W        W19418   4.857  14.560  11.415 -0.2934  0.2325 -0.2719
 3345W        W19419   5.930   0.028   1.595 -0.2204 -0.0631 -0.2028
 3346W        W19420   9.716   6.097   4.768 -0.0132  0.0129 -0.4004
 3347W        W19421  14.413   6.755   1.959 -0.1783  0.1270  0.3627
 3348W        W19422  10.992   7.266   0.250 -0.3504 -0.0567  0.0095
 3349W        W19423  17.732  13.046   3.964  0.3323  0.1047  0.3809
 3350W        W19424  11.415  19.068   1.195 -0.1704 -0.2066  0.0078
 3351W        W19425  11.980  16.987  13.551  0.1370 -0.0455  0.1666
 3352W        W19426  17.319  14.537  10.213 -0.2726  0.1886 -0.1136
 3353W        W19427  17.877   8.878   0.368  0.1682 -0.2620 -0.0021
 3354W        W19428  16.791   2.042  13.922  0.3363 -0.1566  0.1047
 3355W        W19429  11.231  14.239  14.829  0.2281  0.1327  0.2707
 3356W        W19430   5.893   9.213  12.438  0.0661  0.2366  0.1331
 3357W        W19431  14.388   7.095   2.286  0.0822  0.3764  0.4079
 3358W        W19432  10.127   3.938   1.504 -0.3870 -0.1778 -0.0101
 3359W        W19433  19.280   2.956   1.146  0.0525 -0.0096 -0.4085
 3360W        W19434   1.501   2.549  11.117 -0.2073  0.0398 -0.4029
 3361W        W19435   1.453  18.165  13.200 -0.2696  0.0114 -0.2045
 3362W        W19436  13.459   0.286  13.347  0.1443  0.3501  0.3665
 3363W        W19437   1.374  12.484  14.084  0.3216 -0.0341 -0.1886
 3364W        W19438  14.817   0.533   3.489 -0.1582 -0.0875  0.1171
 3365W        W19439  15.840   4.900   1.085  0.0573 -0.1955  0.5592
 3366W        W19440  10.543   8.259  11.709  0.0641  0.1208 -0.0611
 3367W        W19441   9.068   6.323   3.737  0.2104 -0.3109 -0.0020
 3368W        W19442   2.661   1.045   0.228 -0.0018  0.1023 -0.0311
 3369W        W19443   6.244  11.689   0.079 -0.0514  0.0993  0.0423
 3370W        W19444   8.383   9.262   6.150 -0.0838  0.1976  0.0787
 3371W        W19445   5.748   6.507  13.584  0.0411  0.0526  0.0028
 3372W        W19446  11.939   2.881  13.608  0.0279 -0.1491 -0.1545
 3373W        W19447   3.994  16.390   2.288  0.6050 -0.0040 -0.1670
 3374W        W19448   1.175  10.601   5.309 -0.1483 -0.0717  0.2009
 3375W        W19449  13.986   8.168  12.937 -0.0257 -0.0481 -0.1643
 3376W        W19450   3.131  16.539   0.339  0.0979 -0.1868  0.4084
 3377W        W19451   5.853   2.064   4.519  0.2356  0.1439 -0.1641
 3378W        W19452   6.543   0.796   1.537 -0.2994 -0.1630  0.2824
 3379W        W19453  10.950   8.957   3.862  0.1698  0.0952 -0.1593
 3380W        W19454   2.574   0.995   2.249  0.0616  0.0648 -0.2653
 3381W        W19455  15.599   5.312  13.789  0.2081  0.0070 -0.1882
 3382W        W19456  14.822  16.037   2.466 -0.0116 -0.1352 -0.2069
 3383W        W19457   2.515  17.501   3.131  0.1367 -0.2772 -0.0332
 3384W        W19458  13.445   4.582  14.416 -0.1316  0.1770  0.0702
 3385W        W19459  18.691  12.733   3.250  0.1088 -0.2871 -0.2169
 3386W        W19460   7.920   8.421  14.943  0.1464 -0.0033  0.1619
 3387W        W19461   2.133   6.790  12.973  0.0770 -0.3081  0.0184
 3388W        W19462   9.389   1.097   2.887 -0.0105 -0.0965 -0.2233
 3389W        W19463  13.094   5.987  12.499 -0.2616  0.1959 -0.4526
 3390W        W19464   3.607  13.039   1.859 -0.2196  0.0838  0.0299
 3391W        W19465   6.541  10.181   1.870  0.1330  0.0803 -0.0080
 3392W        W19466  15.006   9.610  10.626  0.0857 -0.2363  0.4223
 3393W        W19467   3.932   8.300  11.415  0.0585  0.0168 -0.0425
 3394W        W19468  13.894  10.240   0.736  0.0582 -0.4096 -0.0669
 3395W        W19469   3.150   7.808  11.024  0.1651  0.0963  0.0532
 3396W        W19470  14.996  13.196   3.521  0.0526 -0.0633 -0.2613
 3397W        W19471   7.150   5.378   4.235 -0.2233  0.0188  0.0523
 3398W        W19472  11.685   7.766   0.581  0.3220  0.0730  0.2157
 3399W        W19473  18.478   4.567   0.814  0.1011 -0.2417 -0.1089
 3400W        W19474   6.942  11.968  12.476 -0.3448  0.4140 -0.2309
 3401W        W19475   3.844  15.319  12.754 -0.1430  0.0037  0.3442
 3402W        W19476  11.168   6.988   4.064  0.0023  0.0029 -0.2590
 3403W        W19477   7.957  11.443  14.515  0.1669  0.1651 -0.1265
 3404W        W19478  13.456   3.170   0.981  0.0812  0.1249  0.2672
 3405W        W19479   4.110   5.307  12.468 -0.2523  0.1014 -0.0286
 3406W        W19480   0.539   4.843   0.037  0.0036  0.2750 -0.1686
 3407W        W19481   1.956  14.833  10.544  0.0611 -0.1578 -0.0133
 3408W        W19482  18.081  11.966   2.308  0.1153  0.2529  0.0317
 3409W        W19483  12.277  10.716   3.089 -0.0904 -0.1012 -0.2941
 3410W        W19484   2.603   3.572   1.773  0.0092  0.2106  0.0089
 3411W        W19485  19.000  10.664   2.756  0.2813  0.1866 -0.1307
 3412W        W19486  11.550   9.272   4.506 -0.1426  0.1393  0.2311
 3413W        W19487  17.084   6.410   0.559 -0.1697 -0.0924  0.1362
 3414W        W19488  16.671   6.512   1.395  0.3059 -0.1584  0.0227
 3415W        W19489   6.987   7.297  12.790  0.1153  0.1408  0.3065
 3416W        W19490   7.647   9.241   3.479  0.2061 -0.0071 -0.0267
 3417W        W19491   4.190  14.321   4.903  0.0152  0.0445  0.2368
 3418W        W19492   3.381  13.480   1.941 -0.0288  0.2007  0.0482
 3419W        W19493   9.288  11.564  14.637 -0.1466 -0.2911 -0.0140
 3420W        W19494   2.570   4.371  12.358  0.1766  0.5233 -0.1734
 3421W        W19495  14.372  19.194   1.332 -0.0062  0.1998  0.1113
 3422W        W19496  17.178   7.668   2.826 -0.1320  0.2095  0.3188
 3423W        W19497  17.193  11.419   4.171  0.1394  0.2726  0.1155
 3424W        W19498  11.528  12.283   5.229  0.2296  0.3515  0.0306
 3425W        W19499   3.090  16.533  11.235 -0.0551  0.1931  0.0768
 3426W        W19500   5.282  16.337  10.969 -0.1337  0.2409  0.0994
 3427W        W19501  14.560   2.401  13.738  0.4731  0.5493  0.2210
 3428W        W19502   3.949   8.761   3.824 -0.0151  0.0751 -0.1516
 3429W        W19503   2.361  14.809  14.130  0.0256  0.0485 -0.0697
 3430W        W19504  11.347   9.221  13.787  0.2209 -0.0435  0.1529
 3431W        W19505   0.513   7.605   9.573 -0.1162  0.1517 -0.1360
 3432W        W19506  10.750   0.411   1.578  0.3065 -0.2925 -0.1536
 3433W        W19507  16.011   6.752  11.083 -0.1873  0.0313  0.3669
 3434W        W19508  16.594  14.802   2.073 -0.0774  0.1123  0.1008
 3435W        W19509   9.708   0.806   0.567  0.0192  0.3035  0.0926
 3436W        W19510  10.896   2.228   1.982  0.0663 -0.1403  0.2594
 3437W        W19511  11.931  17.942  10.760 -0.2677 -0.0981  0.0384
 3438W        W19512   5.074   3.187   2.564  0.0213 -0.1550  0.4548
 3439W        W19513  10.061  14.522   3.584 -0.2151 -0.2125  0.2774
 3440W        W19514   1.041  10.903   3.425 -0.1678 -0.1787  0.0829
 3441W        W19515  12.213   0.231   3.017  0.1627 -0.0302 -0.3093
 3442W        W19516  10.498  15.790  12.618 -0.2555 -0.3007 -0.1983
 3443W        W19517   2.807   0.612   3.518  0.0918 -0.0783  0.0721
 3444W        W19518  15.556  18.247   4.621 -0.0913 -0.2028  0.3431
 3445W        W19519   6.796  10.960  13.316 -0.2089 -0.2026 -0.4098
 3446W        W19520   6.303  11.285   4.948  0.1997 -0.2580 -0.1428
 3447W        W19521  17.378   1.489   1.764  0.2645 -0.0767 -0.0020
 3448W        W19522  13.919   1.202   0.183 -0.2627  0.0976 -0.2354
 3449W        W19523  10.410  10.540   0.079 -0.1412 -0.1601 -0.1901
 3450W        W19524  13.676   0.605  13.642 -0.1938  0.1523 -0.0064
 3451W        W19525  16.933   7.270   3.820  0.1248  0.0777 -0.3109
 3452W        W19526   7.801  12.207  11.884  0.0799 -0.1113  0.0941
 3453W        W19527   0.343  13.461  15.030  0.4313  0.2814  0.2541
 3454W        W19528  10.942   9.961  11.283 -0.1949  0.1986 -0.0614
 3455W        W19529   8.842   1.214  12.067  0.1982 -0.1076 -0.0217
 3456W        W19530  17.810   6.938   2.803 -0.0168  0.0477  0.0245
 3457W        W19531  17.225   5.795   1.038 -0.1355  0.0101  0.2157
 3458W        W19532  16.841  11.994  10.240  0.1961 -0.3267  0.0186
 3459W        W19533   1.908   7.613   0.374  0.0779 -0.2532 -0.1620
 3460W        W19534  16.579  11.370  12.719 -0.6631 -0.0974  0.1612
 3461W        W19535  14.532   0.282  10.717  0.2254 -0.1069  0.1848
 3462W        W19536   9.537  16.864   1.028 -0.2918 -0.3912  0.1087
 3463W        W19537   2.128  11.466   2.764  0.0552 -0.0556 -0.0862
 3464W        W19538  15.817  15.846   4.091 -0.0811 -0.2015 -0.0100
 3465W        W19539   9.231   1.596   1.782  0.1416 -0.1506 -0.1424
 3466W        W19540   9.438   5.605   5.500 -0.1999  0.0642 -0.0807
 3467W        W19541  18.773  17.706  13.831 -0.0212  0.3297  0.3975
 3468W        W19542  16.323  17.791   3.054 -0.1482 -0.1775 -0.0890
 3469W        W19543   5.741   8.606   2.470  0.2649  0.0581  0.1798
 3470W        W19544   6.497  18.469  12.225  0.2078  0.0476  0.1323
 3471W        W19545   9.462  15.195  10.746 -0.0827 -0.2100  0.0248
 3472W        W19546  12.893  12.692   1.442 -0.5099  0.0532  0.0557
 3473W        W19547  10.598  14.724   5.225 -0.0338  0.0043  0.1432
 3474W        W19548  13.729   5.798  11.789  0.0375 -0.0744  0.0512
 3475W        W19549  18.810   9.272   3.198  0.0901  0.2176 -0.3272
 3476W        W19550  10.889   8.574  10.287 -0.1294  0.2161 -0.0559
 3477W        W19551  16.202   0.697   3.043 -0.1500  0.0088 -0.1068
 3478W        W19552  18.374   2.062   2.629 -0.1784  0.2162 -0.0035
 3479W        W19553  18.816   8.428  14.243 -0.0201  0.0383 -0.0078
 3480W        W19554   9.952   8.376   0.990  0.1796 -0.4531  0.1830
 3481W        W19555  17.287  10.226   0.441  0.0329  0.0075 -0.1097
 3482W        W19556  10.732   6.718  12.777  0.0666 -0.2026  0.0650
 3483W        W19557  14.226   0.644  10.937  0.0757  0.4264 -0.0156
 3484W        W19558   9.325  18.356  13.858 -0.0111 -0.1237 -0.0894
 3485W        W19559  11.601  10.018  14.415 -0.4837 -0.2604  0.1068
 3486W        W19560  14.730   2.950  13.473 -0.3327 -0.3303 -0.0880
 3487W        W19561  19.050   9.283  14.388 -0.0547 -0.0997 -0.1488
 3488W        W19562   6.801  16.714   1.582 -0.2994 -0.1806  0.1315
 3489W        W19563   7.472  19.041   2.274  0.1456  0.0458 -0.1573
 3490W        W19564  13.785  13.414  13.919 -0.3460  0.1741 -0.4644
 3491W        W19565  18.935   1.798  11.195  0.1561  0.1488  0.2944
 3492W        W19566   7.194  14.718  10.845 -0.1426  0.4593 -0.0262
 3493W        W19567   3.627  17.949  14.944  0.1673 -0.4113  0.0653
 3494W        W19568   3.169  17.591   2.709 -0.2383 -0.2078 -0.1633
 3495W        W19569  13.726   7.003   0.349  0.0066  0.0174 -0.2700
 3496W        W19570  18.674  17.987  12.698  0.1364  0.0936  0.0225
 3497W        W19571   1.653   9.767  13.323 -0.0885  0.0352 -0.1573
 3498W        W19572   0.825   2.901   2.056 -0.0868  0.0359 -0.0496
 3499W        W19573   9.664  10.205   0.632 -0.0186  0.1147 -0.1238
 3500W        W19574   8.266   2.619  11.554  0.2238 -0.3042  0.2320
 3501W        W19575   4.625   8.155  14.261  0.0267 -0.0282  0.0012
 3502W        W19576   9.715   2.603  14.899  0.0192  0.0667 -0.0722
 3503W        W19577   9.322  15.622   4.033  0.0815 -0.3133 -0.2210
 3504W        W19578   6.833  11.074   2.950  0.2183  0.1702  0.0189
 3505W        W19579  11.462  17.098   0.876  0.0030 -0.4136 -0.1358
 3506W        W19580   2.858  16.492   1.909 -0.1989  0.2342  0.0742
 3507W        W19581   5.756   8.205   4.809 -0.1606 -0.1947  0.1613
 3508W        W19582   9.193   1.650  13.569 -0.0920  0.2787 -0.1545
 3509W        W19583  14.013  14.192  10.563 -0.0693 -0.0847  0.0147
 3510W        W19584   7.398   3.145   2.551 -0.3513  0.0443  0.2352
 3511W        W19585   9.573   1.600  10.457  0.0912 -0.0719  0.0298
 3512W        W19586   3.552  16.512   0.878  0.2428 -0.2775  0.1258
 3513W        W19587  13.825   6.512   0.218  0.1696  0.0463 -0.1130
 3514W        W19588  18.913  10.918  12.250 -0.1067  0.3086 -0.1680
 3515W        W19589   8.521  14.343  12.429  0.1973 -0.2977  0.2278
 3516W        W19590  19.093   3.048  12.546 -0.0905  0.2322 -0.1490
 3517W        W19591   2.613   1.051  14.148  0.0362 -0.0296 -0.1381
 3518W        W19592   2.642   0.548   1.310 -0.0281 -0.1132 -0.1286
 3519W        W19593   3.864   4.083   1.638  0.1947  0.1455 -0.3410
 3520W        W19594   9.767  11.231   0.400 -0.0769 -0.3047 -0.0817
 3521W        W19595   6.931  12.468  10.744 -0.0036  0.2939  0.2105
 3522W        W19596  17.510   7.582   3.649 -0.0400 -0.1212  0.0438
 3523W        W19597  18.805   2.950  13.870 -0.0930 -0.0780  0.0566
 3524W        W19598   0.986  18.874  13.121 -0.1998 -0.1071 -0.2002
 3525W        W19599   7.396  10.545   0.196  0.3233 -0.0099  0.1994
 3526W        W19600   3.716  15.142  12.185  0.0375  0.0444 -0.0078
 3527W        W19601  17.048   9.372   1.383  0.0618  0.1096  0.4060
 3528W        W19602   5.108  11.886   3.933 -0.0107  0.1446  0.0076
 3529W        W19603  14.740   2.154   3.015  0.4293 -0.3017  0.1826
 3530W        W19604   7.092  11.341  12.504  0.1363  0.3488  0.0193
 3531W        W19605  10.341   0.915  10.772  0.2348  0.3177 -0.0532
 3532W        W19606   0.505  17.014   3.534  0.0979 -0.0916 -0.0185
 3533W        W19607  15.882   4.034  10.342  0.0685 -0.0024  0.0713
 3534W        W19608   7.880  13.405   0.057  0.2710 -0.3104 -0.2796
 3535W        W19609   7.558   8.947   2.080  0.0995 -0.1463  0.2732
 3536W        W19610   9.221   2.186   2.373 -0.4775  0.1810 -0.0001
 3537W        W19611  18.620  18.749   2.803  0.1601 -0.0985 -0.2087
 3538W        W19612  17.961  18.336   2.511 -0.0087  0.3635  0.2924
 3539W        W19613   1.251  11.148  12.352 -0.3366 -0.3832 -0.1657
 3540W        W19614  18.872   7.534  10.825 -0.0491  0.1661  0.0216
 3541W        W19615   2.127  12.768  13.552 -0.3102  0.1458 -0.1396
 3542W        W19616   9.416   6.035  11.109  0.0441 -0.0657  0.0212
 3543W        W19617  10.842   0.961   0.132 -0.2116  0.1303  0.0865
 3544W        W19618  17.945  15.364   1.082  0.1641 -0.0660  0.0678
 3545W        W19619  10.092   2.678  14.144  0.0105  0.0703  0.0126
 3546W        W19620   8.749   9.861  11.685 -0.1013 -0.0355  0.0025
 3547W        W19621   6.998   5.935  14.196  0.0605 -0.0609  0.0545
 3548W        W19622   9.155   1.754  10.203  0.0313  0.2044 -0.0417
 3549W        W19623  15.146  11.110   3.659  0.0358 -0.1418  0.1379
 3550W        W19624   2.853   6.763   1.784 -0.0416 -0.0749 -0.0293
 3551W        W19625   9.074  16.851  11.001  0.0939 -0.1308 -0.2397
 3552W        W19626  11.289   2.021   3.820 -0.0595  0.6707  0.3924
 3553W        W19627   8.501  12.398   2.454  0.1027 -0.1596  0.0829
 3554W        W19628   3.829  13.550  11.950  0.0740 -0.1584 -0.4011
 3555W        W19629   0.106  16.602   3.187 -0.0229 -0.1380 -0.0286
 3556W        W19630  16.293   8.560   3.881 -0.0443  0.3000 -0.1546
 3557W        W19631   9.234  12.568   3.858  0.2315  0.2344  0.1787
 3558W        W19632   0.936  10.882  14.355 -0.0860  0.1897  0.0298
 3559W        W19633   6.024   4.792   3.193  0.2881  0.2863 -0.0135
 3560W        W19634  13.651  12.299  12.608 -0.0820 -0.0495  0.1552
 3561W        W19635  11.014   1.961  12.637  0.3833 -0.3123 -0.0524
 3562W        W19636  12.140  12.878  14.322  0.2198 -0.1083 -0.0458
 3563W        W19637  15.657   4.284  10.643  0.0609  0.0609 -0.1438
 3564W        W19638  12.650   3.787   5.111 -0.0705 -0.0298 -0.0273
 3565W        W19639   7.553  18.745   1.499  0.0269 -0.1111  0.0504
 3566W        W19640   8.718  12.504  12.258 -0.1900  0.1950 -0.2062
 3567W        W19641  14.176   5.459  11.811  0.0132 -0.2185 -0.5045
 3568W        W19642  17.118   9.954   2.663  0.0247 -0.2879 -0.0040
 3569W        W19643  17.641  15.476  10.089  0.2161  0.0548  0.0267
 3570W        W19644  12.201  12.038  10.191 -0.1911  0.1020  0.1491
 3571W        W19645  18.982   5.731   2.107 -0.0161 -0.0793 -0.0245
 3572W        W19646   2.276  11.466  10.697 -0.2257  0.1225 -0.3868
 3573W        W19647  11.958  14.950  13.164  0.2996  0.2896 -0.0857
 3574W        W19648   3.602   4.079  14.842 -0.2837 -0.0495 -0.0420
 3575W        W19649   1.150   4.078  14.326  0.1551  0.1216 -0.2522
 3576W        W19650   1.316  16.441  12.590  0.0489 -0.2035 -0.0801
 3577W        W19651   8.688  16.971   2.004 -0.0956 -0.0062 -0.2393
 3578W        W19652   6.985  15.743  11.140 -0.0306 -0.1367  0.0997
 3579W        W19653  12.129   4.744   4.516 -0.2933  0.0571 -0.0178
 3580W        W19654  15.327  15.039   2.572 -0.0256 -0.0722 -0.2474
 3581W        W19655  19.021  11.657   3.844 -0.0197 -0.2618  0.0864
 3582W        W19656  18.652   4.344   2.490  0.1695 -0.0616 -0.0158
 3583W        W19657  10.760  12.957   4.547  0.1914 -0.0492 -0.0369
 3584W        W19658   6.364   8.994   2.726  0.0012 -0.1197  0.0438
 3585W        W19659   3.980   9.288  13.579 -0.1620 -0.1735  0.0973
 3586W        W19660  13.849   3.670   4.955  0.1477  0.2242 -0.5484
 3587W        W19661   8.594  16.513   1.197 -0.0108  0.0862  0.1537
 3588W        W19662  11.439   5.688  11.352 -0.2587  0.3480  0.0064
 3589W        W19663  18.756   3.463  12.375 -0.0607 -0.0472 -0.2194
 3590W        W19664   9.828  13.504   4.405  0.3639  0.1942 -0.3872
 3591W        W19665  12.461   3.613   3.233 -0.1157  0.2305 -0.1207
 3592W        W19666  10.232   6.176   4.972  0.0833  0.2175  0.3618
 3593W        W19667   8.714   4.234  12.884  0.2364 -0.1680 -0.1738
 3594W        W19668   0.488  16.425  13.545  0.1078 -0.2029 -0.0584
 3595W        W19669   3.254   6.944   2.538 -0.0140  0.2501  0.1868
 3596W        W19670   3.366   6.798   1.563  0.0909 -0.0570  0.4164
 3597W        W19671   5.475   1.488   4.154  0.0209  0.1493  0.4176
 3598W        W19672  18.985  15.989  10.959  0.1538 -0.0622  0.2879
 3599W        W19673   2.224  11.375  12.362 -0.1168  0.0061  0.1495
 3600W        W19674  19.237   0.079   3.237  0.1286  0.3882 -0.1793
 3601W        W19675  15.409   7.277  11.519 -0.1414 -0.2654  0.0233
 3602W        W19676  15.726   6.805   0.263  0.1387 -0.0084  0.2390
 3603W        W19677  15.878  15.030  13.115 -0.3592 -0.4105  0.0894
 3604W        W19678   1.768   1.235  11.622 -0.1211  0.0438  0.1230
 3605W        W19679  18.741  12.480   3.719  0.1671 -0.1533 -0.3609
 3606W        W19680   9.340   9.666  11.131 -0.1663  0.0853  0.1381
 3607W        W19681   4.241  15.997  14.281  0.0031 -0.1782 -0.0963
 3608W        W19682  17.362   3.534   2.372  0.1882 -0.1020 -0.2948
 3609W        W19683  18.124   7.300   2.600 -0.1880  0.0762  0.2097
 3610W        W19684   8.203   0.769   2.765 -0.0278  0.1644 -0.0627
 3611W        W19685  17.970  12.324  13.338 -0.0779 -0.0564 -0.1211
 3612W        W19686   6.053   3.499   3.479 -0.0512 -0.1776  0.1395
 3613W        W19687   1.673   9.836   0.320  0.1362 -0.0746 -0.1611
 3614W        W19688  16.043  17.924  13.941  0.0394  0.0755  0.1675
 3615W        W19689  12.022   0.168  14.340 -0.0683 -0.0381  0.2792
 3616W        W19690   5.655  17.568  10.741 -0.1374  0.1515  0.0516
 3617W        W19691  14.055  17.222  15.006  0.1421  0.1381  0.0305
 3618W        W19692  15.726   7.359  10.560 -0.0381  0.0580  0.2178
 3619W        W19693  10.599   4.557   1.738 -0.0736 -0.0391 -0.1388
 3620W        W19694   4.495   0.686  14.886  0.0971  0.1719  0.1082
 3621W        W19695  14.492  10.768   4.597  0.2461  0.1038 -0.2973
 3622W        W19696   3.217   5.299  13.427  0.0810  0.0841 -0.0446
 3623W        W19697  15.957   3.915   3.508  0.0999  0.2595  0.1105
 3624W        W19698   7.029   0.725  12.511  0.2552 -0.1785  0.0576
 3625W        W19699  12.894  14.086   4.326 -0.1290  0.1409  0.0664
 3626W        W19700  14.881  11.852   3.950 -0.2103 -0.1468 -0.0700
 3627W        W19701   0.209  12.616   1.262  0.0783  0.0184  0.1260
 3628W        W19702   7.561   1.196   5.231  0.0443 -0.0581  0.0440
 3629W        W19703  10.619   1.754  13.093 -0.1701  0.2678  0.3580
 3630W        W19704  19.054  15.690   4.475  0.0606 -0.1182  0.0329
 3631W        W19705  13.888   0.185   3.180  0.0152  0.0573  0.0969
 3632W        W19706  15.925   5.841   2.635  0.1455  0.0245 -0.2888
 3633W        W19707   3.139   1.621  11.719 -0.0715  0.0948  0.2726
 3634W        W19708  11.661   9.929   1.266  0.0221  0.2594 -0.3341
 3635W        W19709  16.052  14.384   1.200  0.4479  0.2921 -0.0285
 3636W        W19710  12.742   2.866   4.816  0.2863  0.1071 -0.0036
 3637W        W19711  16.707   7.409  11.952  0.0931 -0.2635  0.2136
 3638W        W19712  11.324   5.927  12.478 -0.0912  0.0789 -0.1832
 3639W        W19713  16.883   2.429  12.948 -0.1165 -0.1281 -0.0245
 3640W        W19714  19.053  14.031  12.317 -0.2373  0.1837 -0.3569
 3641W        W19715  12.929  18.939   2.651 -0.2703  0.1293  0.0558
 3642W        W19716  15.041  15.998   4.432 -0.2975 -0.0958  0.3442
 3643W        W19717   2.354  19.228  14.200 -0.0564  0.0280  0.0203
 3644W        W19718   0.826  14.330   1.241  0.1021 -0.0024  0.0748
 3645W        W19719   0.690  14.339  14.414 -0.0786  0.0688 -0.0683
 3646W        W19720  18.564   5.148   3.491 -0.1673  0.2587  0.1344
 3647W        W19721  14.198  13.742   3.345  0.2060  0.2635 -0.0030
 3648W        W19722   2.012   6.149  13.338 -0.2263 -0.3127  0.1808
 3649W        W19723   4.090  17.746  14.755  0.0272  0.1725 -0.0202
 3650W        W19724   3.113   0.518   9.634 -0.0661  0.3719  0.2886
 3651W        W19725   9.775   0.096  10.455 -0.0508 -0.2427 -0.0882
 3652W        W19726  15.101  13.610  14.269  0.1828  0.1234  0.1214
 3653W        W19727  10.725  13.569   1.472  0.0717  0.3765 -0.2336
 3654W        W19728   6.842  10.497   1.138 -0.0764 -0.0951 -0.0669
 3655W        W19729  11.149   1.994   2.409 -0.1346  0.0382  0.0323
 3656W        W19730   0.960  12.630  12.448 -0.3323  0.5065  0.3422
 3657W        W19731   2.875   0.540  12.047  0.2949 -0.0927  0.2627
 3658W        W19732   1.471   5.546   4.261  0.1806  0.0212  0.0077
 3659W        W19733  13.851   1.057   2.414 -0.1386  0.3493 -0.0287
 3660W        W19734   2.840   8.448   1.801  0.0585 -0.1078  0.0228
 3661W        W19735   8.799   1.724   2.784 -0.1176  0.1581 -0.4171
 3662W        W19736   0.324  17.064   0.633  0.0905  0.1142  0.0773
 3663W        W19737   1.281   4.116   4.034 -0.3460  0.0685 -0.1972
 3664W        W19738   1.650  17.654  11.492  0.2559  0.0174  0.2095
 3665W        W19739   4.931   9.214  12.975 -0.2537 -0.0371  0.1244
 3666W        W19740  12.659   8.607  13.449 -0.0810  0.1502  0.0387
 3667W        W19741   1.443   4.729  14.767 -0.0437  0.0300 -0.1028
 3668W        W19742  15.029   2.327  13.694 -0.0583  0.3384  0.0560
 3669W        W19743   9.516  12.764  12.876  0.1187  0.1488 -0.1390
 3670W        W19744  19.271   6.117  11.710  0.3291 -0.0573 -0.0034
 3671W        W19745   5.782   9.802   5.606  0.1172 -0.0397 -0.1614
 3672W        W19746   5.424  10.696   4.144  0.3215 -0.0269  0.2150
 3673W        W19747   9.160  19.022   2.462  0.1937 -0.0882 -0.0374
 3674W        W19748   5.122  17.257   4.540  0.2376  0.1119  0.1119
 3675W        W19749   4.919   3.392   2.087 -0.0352  0.1734 -0.2113
 3676W        W19750   6.825   3.986   3.930  0.0313 -0.0529  0.4312
 3677W        W19751  14.677  17.916   1.016  0.1469  0.1722  0.2374
 3678W        W19752  15.888  16.163  11.318  0.0815  0.0875 -0.2241
 3679W        W19753   6.694   0.962  11.806 -0.0862  0.2154  0.3638
 3680W        W19754   5.793   9.458   4.000  0.2147 -0.2205 -0.0453
 3681W        W19755  12.488  15.817  10.129  0.1151  0.0336  0.3168
 3682W        W19756  15.550   0.299   8.948 -0.1858  0.0335  0.0340
 3683W        W19757  13.397  16.379  13.315 -0.0352 -0.1178 -0.0744
 3684W        W19758   0.158  11.093  12.026 -0.0686 -0.2630  0.0523
 3685W        W19759  15.833  13.857  14.830  0.2048  0.1661 -0.3420
 3686W        W19760   1.172  17.938   3.635  0.1258  0.3338  0.2046
 3687W        W19761  15.647   5.371   3.265 -0.2229  0.1774 -0.0580
 3688W        W19762  16.436  13.476   9.670  0.0374 -0.3003  0.0967
 3689W        W19763   9.119   8.111  11.889 -0.0126 -0.0108  0.2116
 3690W        W19764  12.776  13.403  13.563  0.0299 -0.0648  0.1377
 3691W        W19765   4.046   3.775  14.122  0.1366 -0.2676 -0.3415
 3692W        W19766   4.913  19.152   1.539 -0.2286 -0.3023 -0.1032
 3693W        W19767   3.140  10.716  11.482 -0.0672 -0.1041 -0.0266
 3694W        W19768   5.239  13.592   0.210 -0.1858 -0.2385 -0.2785
 3695W        W19769   4.729  13.039  14.786  0.1893  0.0550 -0.0805
 3696W        W19770   1.501   2.771   2.894 -0.0381  0.0026 -0.0870
 3697W        W19771  14.318   1.074  12.002  0.1416  0.0059  0.2317
 3698W        W19772  18.178   7.879  14.626 -0.1777 -0.4516 -0.1945
 3699W        W19773  15.713   4.386   3.669 -0.2155  0.0497  0.0894
 3700W        W19774  18.971   1.081   3.640 -0.1542  0.2808  0.0172
 3701W        W19775  16.875  13.694  12.689  0.0421 -0.0875 -0.4091
 3702W        W19776   4.000  15.755  13.153 -0.0955 -0.0305 -0.0631
 3703W        W19777   0.010   0.183   3.743 -0.2158 -0.0677  0.1343
 3704W        W19778  16.364   6.877   1.543 -0.2673 -0.1369  0.3603
 3705W        W19779   0.142   4.614   5.307 -0.0301  0.2412  0.0490
 3706W        W19780   8.907   2.066   4.621  0.3396  0.0952 -0.1402
 3707W        W19781  13.529   6.050  13.908  0.2355  0.0307 -0.2219
 3708W        W19782   0.269  18.456   2.352 -0.2128  0.1530 -0.1878
 3709W        W19783  15.613  18.926   3.566 -0.0409  0.2819  0.0461
 3710W        W19784  13.502   7.138  12.295  0.0550 -0.2427 -0.1005
 3711W        W19785  18.817  17.523  11.623 -0.0351 -0.3696  0.2111
 3712W        W19786   8.084  15.827  14.677 -0.1301 -0.2013 -0.1063
 3713W        W19787  14.846   9.565  11.578  0.1950  0.1197  0.1096
 3714W        W19788   2.518   7.152   1.738 -0.0313 -0.0011  0.1277
 3715W        W19789   6.172  18.642  11.937  0.1012 -0.1035 -0.0764
 3716W        W19790   0.195  17.682   5.068 -0.0861  0.0370  0.0422
 3717W        W19791   8.676   4.158   4.591 -0.3740 -0.2335 -0.0283
 3718W        W19792   4.228  13.253  14.737 -0.1711 -0.1890 -0.2984
 3719W        W19793   2.094  11.918   2.069  0.2222 -0.2747  0.2628
 3720W        W19794   8.310   6.349   4.445 -0.3057 -0.0257 -0.3948
 3721W        W19795  13.987   8.129  14.680 -0.0649 -0.3377  0.0208
 3722W        W19796  11.256  15.496  14.234 -0.2948 -0.0419 -0.1574
 3723W        W19797   3.924   0.054  13.524  0.0491 -0.1355 -0.1481
 3724W        W19798   9.112  11.731   1.088  0.0302  0.1427 -0.1161
 3725W        W19799   1.174  10.337   4.570  0.0632  0.0953  0.0806
 3726W        W19800   2.331  16.432  10.519  0.1871 -0.3248  0.0675
 3727W        W19801  17.875   4.926   0.352 -0.0893 -0.0232 -0.1519
 3728W        W19802  18.428   1.040   2.243 -0.0473 -0.1716  0.0836
 3729W        W19803  16.959  12.023   5.400  0.0742  0.2652  0.0216
 3730W        W19804   1.932  12.625  11.891  0.1372 -0.1101  0.1992
 3731W        W19805  14.252  17.615  13.430 -0.0265 -0.1167  0.2003
 3732W        W19806   6.523   5.160  13.040 -0.0597 -0.1676 -0.3803
 3733W        W19807  13.523   1.719  11.317  0.2687 -0.0150 -0.0406
 3734W        W19808   2.334  11.379   3.242 -0.0610 -0.2376 -0.0119
 3735W        W19809  16.810  11.055  14.488  0.1826 -0.1590  0.3240
 3736W        W19810   7.803  13.069  11.215  0.0342  0.1178  0.1526
 3737W        W19811  14.251  18.631  10.915 -0.1891  0.2036  0.3984
 3738W        W19812   8.215  18.932   5.037  0.2762  0.0720  0.4338
 3739W        W19813   0.977   6.704   4.819  0.2682  0.0289  0.0095
 3740W        W19814  17.378   3.679   2.952  0.0692  0.0915 -0.1210
 3741W        W19815   2.397  12.083   2.858  0.1215  0.0874  0.1765
 3742W        W19816  17.914  17.724   0.642 -0.0291 -0.1655  0.0627
 3743W        W19817   8.749  15.242   1.344 -0.1331 -0.2825  0.0017
 3744W        W19818   1.472  12.533  11.710  0.0140 -0.0348 -0.2155
 3745W        W19819  13.788  13.052   3.838  0.0338 -0.0403  0.2316
 3746W        W19820  18.159  17.003  13.492  0.2322 -0.0321 -0.1238
 3747W        W19821  17.710   8.346  10.852  0.0992 -0.0263 -0.1440
 3748W        W19822  17.930   7.680   3.373 -0.0307  0.1578  0.4287
 3749W        W19823   2.266   9.472  12.759  0.2529 -0.2166 -0.1544
 3750W        W19824   9.572  12.820   5.346 -0.1858  0.2509  0.0447
 3751W        W19825  15.306  10.757  12.812 -0.2388  0.3021  0.1298
 3752W        W19826   5.862   7.685   5.038 -0.1716  0.1464  0.5501
 3753W        W19827   3.939  10.530  14.277 -0.2308 -0.1976 -0.0631
 3754W        W19828  17.021  14.947  11.145 -0.2896 -0.0442  0.1975
 3755W        W19829   0.001   4.729   0.708 -0.4291 -0.0419 -0.1073
 3756W        W19830  15.246   0.215  12.483  0.1749  0.1565 -0.1396
 3757W        W19831  12.202  11.020   1.303  0.2208  0.1862  0.1649
 3758W        W19832   4.502   4.295   4.506  0.1758  0.1335  0.1489
 3759W        W19833  10.278  17.451   1.520 -0.4437 -0.2969  0.1821
 3760W        W19834  17.924   9.816   3.959  0.1488 -0.1358 -0.1942
 3761W        W19835  15.821  15.503  12.971 -0.4754 -0.1147  0.0952
 3762W        W19836  15.992  13.570   3.096 -0.2178 -0.3586 -0.2160
 3763W        W19837  11.655   0.232   2.600 -0.2478 -0.1294  0.0933
 3764W        W19838  15.373   0.148  10.510  0.3694  0.3944 -0.0754
 3765W        W19839  10.109   3.697  12.459 -0.1734 -0.0552  0.1994
 3766W        W19840   0.539  11.064   3.306 -0.2960 -0.4505  0.1257
 3767W        W19841  13.471  18.640   4.821  0.1103 -0.0577 -0.0116
 3768W        W19842   4.782  18.720  11.950 -0.0918  0.1265 -0.4081
 3769W        W19843  14.010  16.197  11.292 -0.2121 -0.3724  0.2271
 3770W        W19844   3.488   7.501  12.429  0.2315 -0.4203  0.0341
 3771W        W19845   1.943   3.976   1.117 -0.3180  0.1403  0.1065
 3772W        W19846   4.720   7.154  14.299 -0.2794  0.0552 -0.3046
 3773W        W19847   4.592   3.374   0.726 -0.3759 -0.0006 -0.1880
 3774W        W19848   3.208  13.858   0.537  0.1126 -0.2122 -0.0522
 3775W        W19849  12.189   7.908   4.752 -0.1752  0.3593  0.3237
 3776W        W19850  14.039   1.732   0.485  0.3981  0.0126 -0.0407
 3777W        W19851  12.183   6.798   0.550  0.2307 -0.0654  0.1766
 3778W        W19852   4.416   8.345  12.247 -0.0858  0.1805  0.2834
 3779W        W19853  18.948  12.410  10.881  0.1384  0.2039 -0.4640
 3780W        W19854  18.091  16.030   4.465  0.1136 -0.2060 -0.0201
 3781W        W19855  18.409  12.348   2.912 -0.0450 -0.3204 -0.2064
 3782W        W19856   4.353  13.955   5.129  0.1084 -0.0634 -0.1071
 3783W        W19857   7.902  16.640  11.498  0.2814 -0.2376 -0.0398
 3784W        W19858  11.387   3.722  14.755 -0.1719  0.0621 -0.0771
 3785W        W19859   2.206   1.030  13.362 -0.0330  0.0140  0.3244
 3786W        W19860  14.438   8.459   4.551  0.1377  0.3086  0.0630
 3787W        W19861   5.965   1.932   2.650  0.0139  0.2608 -0.3119
 3788W        W19862   7.880  13.735   5.072 -0.0577 -0.4226  0.0701
 3789W        W19863  18.097  15.236   3.607 -0.0639 -0.0159  0.4203
 3790W        W19864   1.878  16.818   2.858 -0.1175 -0.3034 -0.1878
 3791W        W19865  16.164   3.626   5.439  0.2464 -0.1610  0.0401
 3792W        W19866   9.076  13.465   1.444  0.0070 -0.1005  0.1420
 3793W        W19867   8.781   5.528  12.529 -0.1161  0.0675  0.0279
 3794W        W19868   4.518   5.199   3.259  0.0027 -0.2138 -0.2882
 3795W        W19869   7.219   4.366   0.363  0.0543  0.2049 -0.0054
 3796W        W19870  14.259   7.581   1.051 -0.0681  0.0052 -0.0189
 3797W        W19871  18.024   8.886  14.123  0.1229  0.1615  0.2667
 3798W        W19872   5.764   6.013   5.466  0.2924 -0.1342  0.1013
 3799W        W19873  13.333  15.097   2.270  0.0592 -0.3277  0.0414
 3800W        W19874  12.014  12.019   9.626 -0.4021  0.0748 -0.0195
 3801W        W19875  16.266  15.125  12.218 -0.0943  0.2381 -0.0881
 3802W        W19876   6.949  16.283   3.841  0.0663  0.1929  0.0514
 3803W        W19877   3.391   8.177  13.152  0.2536  0.2476  0.3298
 3804W        W19878   1.203  12.025   0.986 -0.2408  0.0922 -0.3458
 3805W        W19879   8.279  13.409  14.819  0.1821 -0.0745  0.2405
 3806W        W19880  13.431  18.783   1.239 -0.0503 -0.3104 -0.0301
 3807W        W19881  15.374   0.766   5.044 -0.2113 -0.1556 -0.0019
 3808W        W19882  18.482  14.140  10.588 -0.2668 -0.4400 -0.1177
 3809W        W19883   6.423   1.696  13.851 -0.1799  0.2026  0.2412
 3810W        W19884   0.573   1.991   1.905  0.0594 -0.1323 -0.0587
 3811W        W19885   4.721   2.789  11.467 -0.1264 -0.1599  0.0924
 3812W        W19886   5.755  16.663   0.088  0.4512 -0.2387 -0.1524
 3813W        W19887  12.604   4.356  11.408  0.0467  0.0163 -0.0427
 3814W        W19888   0.062  10.618  12.196  0.1551 -0.0915  0.0953
 3815W        W19889   4.737  10.764  14.532  0.0126  0.1388 -0.0600
 3816W        W19890  13.350  12.817  14.374 -0.3017 -0.2438 -0.2359
 3817W        W19891   2.634   8.574  14.956 -0.0520  0.1645  0.0208
 3818W        W19892  16.351   7.800   5.063  0.0702 -0.1056  0.1004
 3819W        W19893  16.861   7.174  11.400 -0.0955 -0.3260 -0.1220
 3820W        W19894  10.380   9.412  10.521  0.1344 -0.0911 -0.0631
 3821W        W19895  11.114   3.836  10.901  0.0420 -0.0431 -0.1503
 3822W        W19896  11.132  18.480  12.644  0.0302  0.3367  0.0484
 3823W        W19897  12.426  14.869   1.257 -0.0725 -0.0758  0.0759
 3824W        W19898  18.051   8.522   0.707  0.0657  0.1442 -0.1831
 3825W        W19899  10.462  19.074  13.652 -0.1687  0.0314  0.0529
 3826W        W19900  18.168  17.415   3.046 -0.0119 -0.1420 -0.3017
 3827W        W19901   3.151   2.305   0.226 -0.2126 -0.2372 -0.2696
 3828W        W19902   0.201  12.668  11.765 -0.0388  0.1900  0.2788
 3829W        W19903   1.396   7.262   0.211 -0.2680  0.1143  0.2752
 3830W        W19904  13.726   1.216  13.581 -0.1590  0.1839 -0.1724
 3831W        W19905  10.091  17.721   1.893  0.1935  0.0158  0.1519
 3832W        W19906   5.768  17.864  14.069 -0.0094 -0.1737  0.5561
 3833W        W19907  13.354   9.455  12.032 -0.0191  0.1866 -0.0986
 3834W        W19908   1.369  16.727   0.370  0.3327  0.0225  0.1203
 3835W        W19909  16.305  11.414   3.201  0.1308  0.0687 -0.0507
 3836W        W19910  18.778  14.679   3.091 -0.0072  0.1997  0.0880
 3837W        W19911  11.009  11.291   1.788  0.0936 -0.2084  0.2184
 3838W        W19912   0.409  17.621  12.648 -0.1768 -0.4381  0.2011
 3839W        W19913  15.481  18.056  14.221  0.0263 -0.0454 -0.0097
 3840W        W19914  15.019  11.918   2.861  0.1341 -0.0873 -0.0170
 3841W        W19915   1.643   5.646  15.004  0.2303 -0.1754 -0.2605
 3842W        W19916   0.386  13.903  11.598 -0.1850  0.0582 -0.2415
 3843W        W19917   0.611  11.092   0.728 -0.0424  0.0151 -0.3188
 3844W        W19918  12.204  18.221  11.109  0.0805  0.1401 -0.3313
 3845W        W19919  14.563   6.839  13.915  0.2190 -0.0835 -0.1161
 3846W        W19920   4.708   5.720   0.305  0.0159 -0.0057  0.0734
 3847W        W19921   2.265  10.569  12.918 -0.3669 -0.0034 -0.1911
 3848W        W19922  14.916  12.078   9.849  0.0998  0.1874  0.2782
 3849W        W19923  15.874  18.388  14.123  0.1266  0.2390 -0.0849
 3850W        W19924   4.103  17.933  13.387 -0.0359  0.2015 -0.0155
 3851W        W19925   0.390   4.950   1.344 -0.0159  0.2238  0.0282
 3852W        W19926  15.938  15.096   1.933  0.0268  0.2945  0.2309
 3853W        W19927   4.749   2.232  12.992  0.1510 -0.1257 -0.2366
 3854W        W19928  14.489  10.509   0.027 -0.2036 -0.4452 -0.2040
 3855W        W19929   4.250   4.544   4.095  0.3292 -0.0430  0.1683
 3856W        W19930   7.977   7.905   0.007  0.2278 -0.0307 -0.4617
 3857W        W19931  15.367   1.415   3.137 -0.2046  0.1620  0.1492
 3858W        W19932  17.850   5.787  12.038 -0.2492  0.1025  0.1242
 3859W        W19933  10.427  10.317  12.121  0.1177  0.0044  0.3075
 3860W        W19934  18.865   6.705   2.695  0.2990  0.2011 -0.0169
 3861W        W19935   3.729  11.725   2.964  0.1354 -0.2348  0.1328
 3862W        W19936   4.446  14.149   2.883 -0.0034 -0.0635  0.3025
 3863W        W19937   9.248   9.552  11.628  0.0797 -0.1846  0.0427
 3864W        W19938  14.681  17.529   0.125  0.3514  0.0997  0.2150
 3865W        W19939  14.854   9.320   1.258 -0.2011 -0.0363  0.0516
 3866W        W19940   5.220   1.656   1.236 -0.0895  0.1066 -0.0336
 3867W        W19941   6.112  15.493   0.180 -0.0054  0.0442  0.0747
 3868W        W19942  13.294  11.949  13.379  0.0350  0.1029  0.0925
 3869W        W19943   8.258  11.166   3.743 -0.1205 -0.4075 -0.0455
 3870W        W19944   8.709  11.413   2.850 -0.3272 -0.2975 -0.2856
 3871W        W19945  14.559   8.941   2.055  0.1160  0.1446 -0.0281
 3872W        W19946  11.230  13.681  12.084 -0.0396  0.6561  0.1286
 3873W        W19947   7.204  16.853   5.385 -0.0845 -0.0165  0.2201
 3874W        W19948  12.509  18.455  12.375  0.0502  0.0251  0.1259
 3875W        W19949  16.814  12.582   9.835  0.0918 -0.1860  0.0124
 3876W        W19950   9.191   7.724  14.892 -0.2315 -0.4621  0.0996
 3877W        W19951   0.766  18.542   4.409  0.0716  0.2384  0.0110
 3878W        W19952   7.842   1.510   3.913 -0.1634  0.1718  0.0710
 3879W        W19953   1.959  14.019  14.283 -0.1909  0.1636 -0.1406
 3880W        W19954  15.172   5.825   3.312 -0.2430 -0.0843  0.1087
 3881W        W19955  16.877  15.441   2.817 -0.1379 -0.1681 -0.1186
 3882W        W19956  18.799  16.433   3.819 -0.2085 -0.0181  0.1168
 3883W        W19957   8.587  18.959   2.810  0.1767  0.2125 -0.0949
 3884W        W19958   0.046  11.520   0.340  0.1369 -0.2566 -0.0108
 3885W        W19959  10.553  12.093  12.702 -0.0772  0.0296  0.2835
 3886W        W19960   7.716  19.032   4.492  0.2197  0.4340  0.0037
 3887W        W19961   8.798   4.992  15.004  0.3020  0.2633  0.0880
 3888W        W19962   7.415  16.476  12.648  0.4227  0.2572 -0.1486
 3889W        W19963   3.050  11.412  13.007  0.0258  0.0366 -0.0253
 3890W        W19964   6.667  15.188   2.577 -0.2339 -0.1716  0.0491
 3891W        W19965  14.231  10.364  12.188  0.0991  0.1228 -0.1555
 3892W        W19966   0.912  14.229  10.163 -0.3160  0.0188  0.3853
 3893W        W19967   1.685  10.923   1.975 -0.0715 -0.3931  0.1194
 3894W        W19968   3.324   5.447  12.974 -0.0023 -0.1717  0.1134
 3895W        W19969   2.026  16.214  13.262 -0.0478  0.1835 -0.3250
 3896W        W19970  16.229   1.848  10.832 -0.1792  0.2239  0.0904
 3897W        W19971   6.086  16.218   2.678  0.0656 -0.2082  0.1020
 3898W        W19972   1.415   4.660  12.781 -0.0668 -0.0714 -0.0503
 3899W        W19973   8.086  19.255  13.518  0.2806 -0.2335  0.3322
 3900W        W19974   8.094  10.218  12.985 -0.2828  0.2717 -0.2802
 3901W        W19975  11.374   6.002   4.411  0.0047 -0.0287 -0.1085
 3902W        W19976   4.134   4.525   0.210  0.1645 -0.5669 -0.3373
 3903W        W19977   7.236   7.782   2.676 -0.0107 -0.0284  0.2422
 3904W        W19978   6.759   0.376  13.717  0.0946 -0.0360  0.0627
 3905W        W19979  18.353  14.600   1.965  0.1924 -0.0232  0.1316
 3906W        W19980   9.046   5.306  11.293  0.1101 -0.0507 -0.4492
 3907W        W19981  11.834   2.497  12.643 -0.1529  0.3104 -0.2484
 3908W        W19982   2.199  15.359  12.902  0.0276 -0.3166 -0.3000
 3909W        W19983  18.333   9.507   1.392  0.1393 -0.1159  0.1346
 3910W        W19984   3.975  12.108   2.150  0.1998 -0.0072  0.2549
 3911W        W19985   3.005   3.280   2.599  0.1059 -0.0083 -0.1207
 3912W        W19986  10.599   0.201   4.158  0.1236 -0.2550  0.0032
 3913W        W19987   4.724  13.123  10.725 -0.1428  0.2273  0.1660
 3914W        W19988   6.496  10.859   5.174 -0.1428 -0.2317  0.5506
 3915W        W19989   0.317   2.646   3.918  0.1718  0.0833 -0.0607
 3916W        W19990  10.602  11.317   4.047 -0.0905  0.0566 -0.0963
 3917W        W19991  13.013   5.965  13.712  0.0264  0.0897  0.2169
 3918W        W19992  14.100  12.045   1.266  0.0583 -0.1363  0.1076
 3919W        W19993  19.060   5.625   0.619 -0.0780 -0.1585  0.0374
 3920W        W19994  13.412   7.622  14.655  0.0471 -0.0983 -0.1595
 3921W        W19995   1.415   4.677  10.992 -0.0560 -0.0538  0.1980
 3922W        W19996  19.083   3.957   4.223 -0.0533  0.0759 -0.1693
 3923W        W19997  19.097   8.095   4.331  0.1367 -0.0967  0.2040
 3924W        W19998   0.798  10.003  13.002 -0.0354 -0.0812  0.4074
 3925W        W19999  14.180   8.873  12.558 -0.0166  0.1009 -0.2839
 3926W        W20000   9.788  11.331   5.018  0.1818 -0.2051 -0.1605
 3927W        W20001   8.168   0.426   2.305  0.1825  0.0517  0.2993
 3928W        W20002   7.636   1.894  12.243  0.1654 -0.1974  0.2483
 3929W        W20003   9.267   4.358   3.819 -0.2219 -0.2719  0.1591
 3930W        W20004   6.418   6.602  14.652  0.2436 -0.2749 -0.0546
 3931W        W20005   4.555   5.417  14.516  0.0203 -0.0897  0.0898
 3932W        W20006   4.951   7.001   2.282  0.0824  0.2130 -0.2262
 3933W        W20007   8.423   5.012   4.947  0.2337  0.1400 -0.0249
 3934W        W20008   0.750   5.961   2.213  0.0925 -0.2442  0.0969
 3935W        W20009   2.664  12.113   2.109 -0.0785  0.0650  0.1453
 3936W        W20010  18.748  17.932  10.495  0.1529  0.0294 -0.1695
 3937W        W20011   9.769   6.060   0.028  0.0397  0.5524  0.1806
 3938W        W20012  15.081  12.242   0.837 -0.5132 -0.1666 -0.0833
 3939W        W20013   8.448   3.786   4.219 -0.0694 -0.0347  0.0915
 3940W        W20014  13.210  13.825  12.167  0.2272  0.0086 -0.4183
 3941W        W20015  16.390   9.281   5.280 -0.0891  0.1164 -0.0278
 3942W        W20016   0.691   0.391   9.434 -0.0959  0.0354 -0.1527
 3943W        W20017  18.513  17.742   2.997 -0.1708 -0.1533 -0.0809
 3944W        W20018   5.116   1.774  13.738 -0.1550  0.2265  0.0230
 3945W        W20019  16.708   1.200  12.965  0.0331 -0.0399 -0.1548
 3946W        W20020  15.200  14.750  13.654 -0.0444  0.1446  0.2814
 3947W        W20021  11.816  10.356   1.451 -0.1038 -0.1369 -0.0016
 3948W        W20022   0.465   2.476  14.944 -0.3183  0.2132  0.1404
 3949W        W20023   8.860   6.488  12.816  0.0336 -0.4474 -0.0001
 3950W        W20024   4.625   6.114   0.004  0.3068  0.2296 -0.4670
 3951W        W20025   7.074   6.591  11.257 -0.2265 -0.2754 -0.2005
 3952W        W20026  18.281  10.602  10.775 -0.1188 -0.0400  0.0151
 3953W        W20027  17.297   9.308  11.083  0.1034 -0.0239 -0.0196
 3954W        W20028   1.447  14.358  11.924 -0.1484  0.4384  0.0441
 3955W        W20029   6.788  18.240  11.059  0.1670  0.2144  0.1792
 3956W        W20030   5.980   5.272   4.944 -0.1532 -0.3406  0.2422
 3957W        W20031   0.577   9.051   1.682 -0.0781 -0.0704  0.2579
 3958W        W20032  18.821  14.068   3.659  0.3690 -0.3283 -0.1254
 3959W        W20033   2.079  18.543  13.722 -0.2745  0.2391  0.1102
 3960W        W20034  16.449   8.562   0.624  0.0842  0.0548  0.0178
 3961W        W20035   7.577   0.118  10.751 -0.0265 -0.2905 -0.3054
 3962W        W20036  13.992   0.598  10.165 -0.1999 -0.0205  0.0349
 3963W        W20037  17.062   3.320   3.125  0.0452 -0.2229  0.0158
 3964W        W20038   1.282   3.688  14.572  0.1874 -0.0917 -0.1548
 3965W        W20039   2.113   9.676   9.933  0.3275 -0.2782 -0.0585
 3966W        W20040   2.415   8.399   2.713 -0.4284 -0.1295  0.0255
 3967W        W20041   0.883  12.647   4.481  0.1970  0.3369 -0.0005
 3968W        W20042  13.715   3.321   3.819  0.0994  0.0487 -0.1058
 3969W        W20043  13.907   3.526  12.232 -0.2534  0.0044 -0.0860
 3970W        W20044   1.343  11.568  13.334  0.2190  0.1256  0.1010
 3971W        W20045  17.089   4.797  10.041  0.2627 -0.1609  0.1106
 3972W        W20046   1.816  15.900   2.336  0.2410  0.0885 -0.0596
 3973W        W20047  11.449   4.018   2.183 -0.0332 -0.0113  0.0709
 3974W        W20048   2.538   9.737   1.932  0.0575 -0.1668  0.2086
 3975W        W20049  16.593  12.559  14.430 -0.1945 -0.1116 -0.3389
 3976W        W20050  12.550   9.064   3.923 -0.2378  0.0060  0.0672
 3977W        W20051   8.101   9.414  11.248 -0.2759  0.1300  0.1742
 3978W        W20052   4.607   0.191  12.143 -0.0366 -0.0214  0.1559
 3979W        W20053  11.609   5.575  11.842  0.0533 -0.0236  0.0685
 3980W        W20054  14.268   9.357  11.380  0.1885 -0.2214  0.0318
 3981W        W20055  14.119   1.647   3.576  0.2593  0.1087 -0.0613
 3982W        W20056   1.159  18.727  11.720 -0.0665 -0.2692  0.1230
 3983W        W20057  18.043  17.550   3.923 -0.1092 -0.0970  0.1457
 3984W        W20058  18.048   9.798  10.315 -0.0650  0.3469  0.0152
 3985W        W20059   2.166   6.842   3.582 -0.0193 -0.3195 -0.3516
 3986W        W20060   0.631  14.135  10.562 -0.4607 -0.2118 -0.0302
 3987W        W20061  12.737  10.463  12.293 -0.2619 -0.0214 -0.0618
 3988W        W20062  18.636  17.638  13.144  0.1907  0.2751 -0.0030
 3989W        W20063   7.524   4.713   2.694 -0.1671 -0.1733  0.7424
 3990W        W20064  14.049   1.592   2.087 -0.0167 -0.0385 -0.3327
 3991W        W20065  15.956   6.183   4.746  0.1941  0.1222  0.1707
 3992W        W20066  18.578  15.784  13.703  0.2441  0.0593 -0.0118
 3993W        W20067  10.010  19.131  13.895 -0.2916 -0.2381  0.1027
 3994W        W20068   8.969  12.661   2.557  0.0118 -0.3782  0.1849
 3995W        W20069   5.454  10.285  13.547  0.2160 -0.3033  0.2638
 3996W        W20070  15.391   9.676  11.549  0.1789  0.1420  0.1042
 3997W        W20071   2.257   2.568   3.857  0.0333  0.1152  0.0464
 3998W        W20072  19.255  16.324   1.823  0.1459 -0.0761 -0.0361
 3999W        W20073   4.894   9.198  12.439 -0.0494 -0.1151 -0.0003
 4000W        W20074  18.978   1.374   0.268 -0.0133  0.1759 -0.1812
 4001W        W20075   3.551   6.626   0.963  0.0621 -0.1059  0.6386
 4002W        W20076   7.211  13.723  11.032 -0.2254 -0.0173 -0.1687
 4003W        W20077  10.927   2.880   0.539 -0.2327 -0.2057 -0.1255
 4004W        W20078  15.447   0.520   2.495  0.2419 -0.0687 -0.0931
 4005W        W20079   3.613  15.311   4.078  0.0876 -0.0402 -0.0640
 4006W        W20080  15.377   9.209   4.373  0.0704 -0.0645  0.0545
 4007W        W20081  10.165  12.863   4.003  0.0272 -0.3044 -0.0212
 4008W        W20082   3.338   7.386   1.766  0.1960 -0.0218  0.2832
 4009W        W20083   9.861   1.696  14.522 -0.0929  0.3066 -0.0543
 4010W        W20084  19.093   3.131   2.216 -0.1464 -0.0643 -0.0702
 4011W        W20085   4.128   0.278  10.044  0.1295 -0.0155  0.1144
 4012W        W20086   5.694   5.665   2.107  0.2398  0.0251 -0.0599
 4013W        W20087   8.977  16.796   3.836 -0.5839  0.0038  0.1770
 4014W        W20088   7.442  16.034  13.812 -0.0676 -0.0444  0.3201
 4015W        W20089   7.332  11.862   5.216  0.1878  0.1379  0.1296
 4016W        W20090  12.417   9.948  14.447  0.0565  0.4058  0.0039
 4017W        W20091   0.891  18.621  13.566 -0.3194 -0.3773  0.1805
 4018W        W20092   9.650   7.227   5.349 -0.0825 -0.1905 -0.0284
 4019W        W20093  16.444   1.659   3.264 -0.1122  0.1172 -0.1180
 4020W        W20094   9.347   5.995   1.918 -0.0999 -0.2103 -0.0198
 4021W        W20095  15.109  17.375  13.655 -0.3234 -0.0696  0.1396
 4022W        W20096  14.093   2.684   4.185 -0.0431  0.1119 -0.0864
 4023W        W20097  12.805   6.926   0.175  0.2247 -0.0936  0.0595
 4024W        W20098  10.361  14.537  13.946  0.1063 -0.2309  0.1144
 4025W        W20099  15.277  15.674  12.199 -0.3158  0.0058  0.0625
 4026W        W20100  12.231   0.081   1.129  0.1915  0.1172 -0.1054
 4027W        W20101  14.294  12.491   4.522  0.3776  0.1279 -0.2037
 4028W        W20102  18.061   8.930  13.192  0.1671  0.1965  0.0686
 4029W        W20103  17.908   4.003  12.518 -0.0504  0.1079  0.3368
 4030W        W20104  16.931   1.665  12.924 -0.1897  0.1594 -0.1544
 4031W        W20105   5.196   2.961   3.088 -0.1978  0.2141 -0.2810
 4032W        W20106   8.827  13.431  10.894 -0.0566  0.2423  0.0264
 4033W        W20107   6.738  14.438   1.149  0.1330  0.1198 -0.3651
 4034W        W20108   6.466   7.296  12.227  0.1727  0.2992 -0.1587
 4035W        W20109  18.395  18.527   4.772 -0.1300  0.2948  0.1348
 4036W        W20110  11.074  15.269  10.206 -0.0247  0.2493 -0.0846
 4037W        W20111  17.600   9.704   0.259  0.3186  0.0165 -0.1917
 4038W        W20112  13.956  12.748  12.677  0.0842  0.3222 -0.1125
 4039W        W20113  19.015   7.286  12.736  0.1819  0.2012  0.0145
 4040W        W20114   7.140  13.073  14.706 -0.0518 -0.2759  0.0812
 4041W        W20115  14.090  17.226  13.841  0.0285  0.4207  0.1798
 4042W        W20116   4.048   7.879   0.759 -0.0779 -0.2134 -0.2057
 4043W        W20117  12.808  12.215  14.177  0.0441  0.1767  0.0759
 4044W        W20118  15.873   6.784  12.279  0.2632 -0.1286 -0.1810
 4045W        W20119   9.361   6.546  11.263  0.4152  0.4760  0.1917
 4046W        W20120   4.149   3.210   4.378 -0.1681  0.2987 -0.0857
 4047W        W20121   0.258  14.139  14.048  0.2564 -0.1784 -0.1632
 4048W        W20122  17.696  13.704   3.724 -0.0540  0.1398  0.1894
 4049W        W20123  10.894   8.297  15.049  0.0747 -0.1378 -0.0479
 4050W        W20124   8.223  10.636  11.826 -0.0770  0.0027  0.0355
 4051W        W20125  11.963  15.429   0.698 -0.0581 -0.0265 -0.0188
 4052W        W20126  16.382  17.479   2.658 -0.0059  0.2879  0.0940
 4053W        W20127   4.120  13.711   0.092  0.1194  0.2648 -0.1814
 4054W        W20128  13.294  19.080   2.266  0.0468  0.1636  0.4560
 4055W        W20129  10.552  18.018  13.297 -0.0212  0.0457 -0.2536
 4056W        W20130   6.433   6.602  13.791 -0.1145 -0.3686  0.0554
 4057W        W20131   2.170   1.282   3.848 -0.1654  0.0302  0.0420
 4058W        W20132   9.295   4.689  12.769 -0.2771  0.0521  0.3191
 4059W        W20133  11.017  18.378  11.645 -0.0596 -0.0327  0.2827
 4060W        W20134  13.203   7.762   5.105  0.0191  0.1101 -0.1315
 4061W        W20135   1.849   1.469   5.757  0.1950 -0.2871  0.4100
 4062W        W20136  11.530  10.502   1.881 -0.2094  0.1233 -0.3862
 4063W        W20137   7.438   7.753   1.329 -0.0052  0.0460 -0.3826
 4064W        W20138  12.426  11.755  11.510  0.0607  0.2061  0.0317
 4065W        W20139  19.097  14.428  12.724 -0.1441  0.1841  0.5282
 4066W        W20140  19.125   9.270  10.819  0.1891 -0.1156 -0.1390
 4067W        W20141  16.713   6.125  13.690  0.1069 -0.0186  0.1267
 4068W        W20142  10.572  18.607   2.371  0.0002  0.3674  0.0548
 4069W        W20143  15.275  12.918   3.171  0.1910  0.2081 -0.1169
 4070W        W20144   7.362   1.259   4.707  0.0245  0.0790  0.0042
 4071W        W20145  16.209  17.309   3.109  0.0694  0.1101  0.0953
 4072W        W20146  16.565   0.390   3.250  0.0860  0.1717  0.0993
 4073W        W20147  18.852   3.261   2.814 -0.1631 -0.0073 -0.2293
 4074W        W20148  10.697  18.374   1.934 -0.0914  0.1288  0.5163
 4075W        W20149  13.909  17.085   4.547 -0.4163  0.1790 -0.1507
 4076W        W20150   3.351  12.546  14.396  0.0803  0.1541  0.0484
 4077W        W20151   7.064  15.290   1.717 -0.1033  0.1403  0.0364
 4078W        W20152  19.122   0.235  12.875 -0.0627  0.0834 -0.0358
 4079W        W20153  16.860  18.123   3.861  0.4926 -0.0910  0.3396
 4080W        W20154  10.634   5.399  13.019 -0.3232 -0.0466 -0.1344
 4081W        W20155   5.339  12.579   2.384  0.1641  0.2429 -0.1603
 4082W        W20156  13.694  18.603  10.088 -0.1515 -0.0405  0.1204
 4083W        W20157   8.577  11.248   4.631 -0.1058  0.2509  0.1539
 4084W        W20158   6.196   9.099   3.209  0.1104  0.1144  0.2196
 4085W        W20159   1.426  11.246   0.485  0.0250 -0.1806 -0.0472
 4086W        W20160  16.350  13.855  11.468 -0.2308 -0.1263  0.1811
 4087W        W20161   4.873   7.681   4.831  0.0085 -0.1568 -0.2349
 4088W        W20162  14.677   2.884  14.618 -0.0319  0.0681  0.1362
 4089W        W20163  18.716  13.248   2.964 -0.0537 -0.4414  0.0368
 4090W        W20164  11.752   5.821   2.492  0.1295 -0.1055 -0.1179
 4091W        W20165   7.710   2.789   9.856 -0.0230  0.0322 -0.1262
 4092W        W20166  14.743   0.540  13.843  0.0616 -0.2094  0.0734
 4093W        W20167   2.370  10.452  10.898 -0.1345 -0.1967 -0.1134
 4094W        W20168  18.185  18.130   0.243 -0.1504  0.3165  0.0925
 4095W        W20169   1.781  16.075   4.230 -0.0336  0.4567 -0.1086
 4096W        W20170  15.045   7.942   1.301  0.0743  0.2027  0.2536
 4097W        W20171   8.741  16.998   2.880 -0.2360  0.0347 -0.0569
 4098W        W20172   3.220  10.610   2.029  0.0562 -0.2374  0.1732
 4099W        W20173   6.227   8.299   4.972  0.1428 -0.2688  0.1141
 4100W        W20174   7.484  17.020  12.613  0.1691  0.0613  0.0204
 4101W        W20175  15.339  18.907   1.565 -0.0664  0.1049  0.0788
 4102W        W20176   0.749   8.454   1.069  0.2908  0.1444  0.1087
 4103W        W20177   1.753  16.657   3.930 -0.2075  0.0472  0.1484
 4104W        W20178  17.031   9.320  10.604 -0.1331 -0.0261 -0.0374
 4105W        W20179   9.130  11.237   1.203 -0.3045 -0.3766 -0.0682
 4106W        W20180   9.824   5.732   3.896 -0.0280 -0.0121 -0.0261
 4107W        W20181  14.275  17.120  13.379  0.1852  0.1163  0.0170
 4108W        W20182  11.832   1.687  12.644 -0.2717 -0.1012 -0.0770
 4109W        W20183   4.494  18.138   1.362  0.2024  0.1711  0.0193
 4110W        W20184  19.097  17.788   1.131 -0.1928  0.0636  0.0381
 4111W        W20185   4.187  11.150   4.689  0.1048 -0.3649 -0.0604
 4112W        W20186   9.443   5.792  11.855 -0.1860  0.4674  0.2208
 4113W        W20187  12.807   7.450   5.260  0.0601  0.3130  0.0693
 4114W        W20188   0.304  18.674   1.775  0.1525 -0.0680 -0.1928
 4115W        W20189  12.404   6.636  13.684 -0.4835 -0.1306 -0.0694
 4116W        W20190   7.465   0.228   5.144  0.0283  0.2092 -0.1014
 4117W        W20191   3.470   1.680  13.170 -0.1231  0.1285 -0.1792
 4118W        W20192  12.309   2.660  12.250 -0.0938 -0.1089 -0.0352
 4119W        W20193  15.898   9.966   1.830 -0.0077  0.0834  0.0997
 4120W        W20194  10.140  11.434  13.998 -0.0304  0.1537  0.0363
 4121W        W20195   6.464  10.759   0.184  0.0547  0.0628 -0.1358
 4122W        W20196   9.572  14.473   2.470  0.0297  0.5216 -0.1777
 4123W        W20197  18.222   5.430  12.204 -0.5026 -0.1275  0.0474
 4124W        W20198   7.454  18.142   2.211  0.0215 -0.1333  0.1466
 4125W        W20199   1.177  17.832  13.520 -0.2771 -0.1225  0.0336
 4126W        W20200   4.214  16.878   2.945 -0.1036  0.0396  0.0862
 4127W        W20201   0.373   2.212   2.356  0.2232 -0.2648 -0.0768
 4128W        W20202  18.068   1.759   5.120  0.2190 -0.2071 -0.1680
 4129W        W20203  13.612   8.270  13.418 -0.0356 -0.1821 -0.0654
 4130W        W20204  16.961   1.207   4.467  0.3711  0.2139 -0.0605
 4131W        W20205   2.685  13.244   3.013  0.0007  0.0803  0.2380
 4132W        W20206  14.645  10.779  11.015 -0.1192  0.0791 -0.0736
 4133W        W20207  18.807  15.946  14.589 -0.0194 -0.2363 -0.0249
 4134W        W20208   7.535   0.703   4.350  0.2777  0.1631  0.3535
 4135W        W20209  11.866   1.781  14.461 -0.0314  0.1798  0.0457
 4136W        W20210   5.338  12.883   1.759  0.0411  0.0756  0.0461
 4137W        W20211   3.079   9.165  12.284 -0.2739 -0.0292  0.4051
 4138W        W20212  16.881   2.651   4.853  0.1471 -0.0367 -0.2141
 4139W        W20213   0.672  13.700  10.325 -0.0828  0.3451  0.1634
 4140W        W20214  13.978  16.036   5.379 -0.0332  0.2536  0.2307
 4141W        W20215   7.429  10.215  14.818  0.1009  0.2905  0.0831
 4142W        W20216  18.404   9.522  13.673  0.3190 -0.1322  0.2455
 4143W        W20217   7.685  15.319   3.771 -0.0045  0.0303  0.1597
 4144W        W20218  17.629  11.379  12.375  0.3229 -0.0911  0.1273
 4145W        W20219   4.080  10.310   1.916  0.0814 -0.1336  0.0367
 4146W        W20220   0.848  19.097  11.671 -0.0887  0.0583 -0.2056
 4147W        W20221  16.899   2.266  12.054 -0.1621  0.0312  0.2681
 4148W        W20222   3.496   5.122  14.677  0.0350 -0.1915 -0.0206
 4149W        W20223   0.921   4.848  10.693  0.0126  0.2380  0.1062
 4150W        W20224   4.546  12.983  10.228 -0.1462 -0.2158 -0.0229
 4151W        W20225  14.332   0.518   3.514  0.1247  0.0946 -0.1750
 4152W        W20226   9.078  14.596   0.531  0.1695  0.4082  0.1095
 4153W        W20227  11.870   7.652   3.898 -0.4644 -0.1905 -0.0772
 4154W        W20228  17.516  14.075   9.452 -0.1482  0.2019 -0.2706
 4155W        W20229  15.142   8.100   4.116 -0.1116  0.0083 -0.3678
 4156W        W20230  13.676   6.866  11.896  0.2120  0.0944  0.1068
 4157W        W20231  18.818   4.862   1.133  0.0170 -0.0330 -0.1741
 4158W        W20232   5.832   5.649   4.525  0.0412 -0.0431  0.1047
 4159W        W20233   9.956  17.291  13.203  0.0559  0.0251  0.2424
 4160W        W20234   0.093   8.858  13.682 -0.0799 -0.0662  0.0814
 4161W        W20235   4.407   8.349  11.556  0.0443 -0.2399 -0.1822
 4162W        W20236   9.742  18.765  14.888 -0.1591 -0.0707 -0.2050
 4163W        W20237   5.981   0.136   5.904  0.1012  0.3484  0.1814
 4164W        W20238   7.683   3.189   1.196  0.0632 -0.0916 -0.4331
 4165W        W20239   7.674  10.119   1.945 -0.4573  0.0033 -0.0300
 4166W        W20240  18.413  13.827   2.540 -0.1210 -0.1199 -0.1041
 4167W        W20241  15.433  16.215  11.217  0.1365  0.1381 -0.1891
 4168W        W20242   7.883  11.318  11.142 -0.2507 -0.3564 -0.0536
 4169W        W20243   1.319  19.182   3.801  0.3171 -0.1215  0.1087
 4170W        W20244  11.643   5.351  10.985  0.0115  0.0278 -0.0888
 4171W        W20245   9.488  17.550  11.000 -0.2458 -0.1941  0.1463
 4172W        W20246   9.945   1.229  13.135 -0.3313 -0.0386 -0.2629
 4173W        W20247  16.751   5.899   4.238 -0.2021  0.3321 -0.3550
 4174W        W20248  17.626   6.553   1.489  0.1949  0.2113  0.1184
 4175W        W20249   1.962  17.965  11.015 -0.0150 -0.1340 -0.0045
 4176W        W20250   9.759   0.059   0.074 -0.0674  0.1316 -0.2755
 4177W        W20251  11.037   1.346   3.100  0.0883  0.0148  0.1088
 4178W        W20252   4.304   9.921   0.148  0.0140  0.2278  0.0429
 4179W        W20253   9.713   6.900   1.888  0.0594 -0.0460  0.0164
 4180W        W20254  11.010   8.425  11.560 -0.1232 -0.1030  0.0955
 4181W        W20255  18.821  14.371   2.280 -0.0992 -0.5420 -0.1827
 4182W        W20256   0.467   6.192  14.147  0.1450 -0.0403  0.0765
 4183W        W20257  14.808  11.700   2.052 -0.1202  0.4251 -0.0159
 4184W        W20258   7.867  15.120   4.216 -0.1839 -0.1857 -0.1849
 4185W        W20259   9.534   3.976   3.406 -0.1242  0.1652 -0.0551
 4186W        W20260  15.090   2.142  10.659  0.1130 -0.2904 -0.0511
 4187W        W20261   5.262   0.749   1.721 -0.2371  0.0478 -0.3337
 4188W        W20262  13.412  13.297   4.143 -0.0393  0.0500 -0.0304
 4189W        W20263  15.713   7.181  14.004 -0.0930  0.2377  0.0588
 4190W        W20264  11.369  14.436   3.448  0.0707 -0.4879  0.0482
 4191W        W20265  18.655   4.734   4.227 -0.1726  0.3367  0.1561
 4192W        W20266  13.700  17.916  12.026 -0.0476 -0.1579 -0.1702
 4193W        W20267  15.788   6.341   2.725 -0.0382 -0.1942  0.0175
 4194W        W20268   1.755  14.840   5.037  0.2299  0.0644 -0.3426
 4195W        W20269  12.358   8.464  11.417 -0.1025  0.1430 -0.0445
 4196W        W20270   7.767   7.969  13.863  0.0720  0.2037 -0.0386
 4197W        W20271   4.051   5.648  11.238 -0.2311 -0.0894 -0.1287
 4198W        W20272  19.015   6.757   1.404  0.1966 -0.0069  0.4558
 4199W        W20273   4.946   9.017  15.026 -0.1646  0.0093  0.0923
 4200W        W20274  10.521   6.259   5.516 -0.0656 -0.1826 -0.2037
 4201W        W20275  10.691  10.280   3.183  0.3816  0.1018 -0.3369
 4202W        W20276   6.008   6.822  13.297 -0.0013  0.2851  0.4200
 4203W        W20277  12.591   6.144   4.633  0.2450 -0.3464  0.1057
 4204W        W20278   9.058   6.330  11.945  0.1607 -0.0235 -0.0638
 4205W        W20279  12.131   2.625   0.057 -0.1475  0.1220  0.1371
 4206W        W20280   2.227   2.181  14.185 -0.1218 -0.5456  0.3868
 4207W        W20281   3.639  18.063  13.296 -0.2567  0.3026 -0.0391
 4208W        W20282   6.160   9.928   3.174 -0.2229 -0.3180  0.1175
 4209W        W20283  13.048   5.872   0.497 -0.2574  0.0217 -0.1183
 4210W        W20284   8.161  15.849   4.557  0.3379 -0.0677  0.1470
 4211W        W20285  18.330   0.791  13.121  0.2003 -0.1376 -0.0928
 4212W        W20286   0.610   7.221   1.520 -0.1282  0.2115 -0.3637
 4213W        W20287  17.904   9.080  14.601 -0.0480  0.1488  0.1221
 4214W        W20288  11.047   0.391  12.071 -0.1340  0.0554  0.0288
 4215W        W20289   7.503   3.325   3.644  0.0668 -0.2353 -0.2063
 4216W        W20290   4.049   4.965  14.989 -0.1610 -0.0441 -0.2470
 4217W        W20291  17.015   2.606   2.133  0.4037  0.0196 -0.1582
 4218W        W20292   7.391  10.978  13.904 -0.1641  0.4528 -0.0450
 4219W        W20293   6.112   1.052  12.356 -0.0501  0.0817  0.0550
 4220W        W20294  18.107   3.775  13.718 -0.0296  0.0546 -0.0724
 4221W        W20295  13.231   7.736   4.017 -0.4542 -0.3344 -0.1373
 4222W        W20296   9.128  14.692   2.713 -0.0804 -0.2525 -0.1353
 4223W        W20297  12.139   7.873   3.473  0.3417 -0.2380  0.1263
 4224W        W20298  14.182  14.168   3.649  0.0966 -0.1136  0.0691
 4225W        W20299  16.991   0.339   1.776  0.0594 -0.1878  0.2081
 4226W        W20300  16.808   6.266   3.074  0.3687  0.0788 -0.1149
 4227W        W20301   8.994  15.213  13.582  0.3151  0.1014  0.2217
 4228W        W20302  11.823   0.017   0.710  0.0414 -0.5456  0.3302
 4229W        W20303  14.795  14.452   0.324 -0.0386  0.0422  0.1529
 4230W        W20304  18.859   5.719   2.573 -0.2434 -0.0835  0.3767
 4231W        W20305  18.464   3.061   0.713  0.0102 -0.0090 -0.0287
 4232W        W20306  17.410  14.540   0.075  0.1668  0.3617  0.1941
 4233W        W20307  16.792   8.898   4.047  0.3785  0.2391  0.4663
 4234W        W20308  15.805   1.157   3.080 -0.3047 -0.2150  0.0687
 4235W        W20309   2.548   0.487   9.941  0.0384  0.1651  0.0753
 4236W        W20310  10.433  16.502  10.788  0.6285 -0.1331  0.0394
 4237W        W20311  18.524   9.975  10.038 -0.1344 -0.0540  0.3281
 4238W        W20312  14.805  16.879   2.207  0.3096 -0.1874 -0.1653
 4239W        W20313   5.454  14.231  13.904 -0.0548  0.2381 -0.2711
 4240W        W20314  18.356   2.070   0.752  0.0582  0.1406 -0.0338
 4241W        W20315  14.044   9.170   1.883  0.2911  0.4663 -0.0141
 4242W        W20316   2.520  18.470   0.305 -0.0198  0.1358  0.0089
 4243W        W20317   3.709  10.458   3.089  0.0828  0.4018 -0.2604
 4244W        W20318  11.663  15.440   1.079  0.2918 -0.1037 -0.3342
 4245W        W20319  12.387  16.726   3.095 -0.0078 -0.0908  0.0317
 4246W        W20320  14.775  19.049   2.397 -0.1540  0.1864  0.2062
 4247W        W20321   5.441  13.626  11.106  0.1331 -0.0559 -0.1518
 4248W        W20322   9.937  10.189   4.660 -0.1551 -0.6189  0.2172
 4249W        W20323   2.720   3.032  10.498  0.1505  0.1054  0.2920
 4250W        W20324  18.870  15.020   4.669 -0.1334 -0.0727  0.1273
 4251W        W20325  10.317   1.504  12.753 -0.0117 -0.0528  0.1718
 4252W        W20326   3.711   9.562  14.583 -0.3024  0.3361 -0.2416
 4253W        W20327  17.922  13.975   2.474  0.1418  0.1572  0.0307
 4254W        W20328   7.455  13.030   5.297  0.1968 -0.1752  0.0596
 4255W        W20329  14.961   8.810  13.732 -0.2289 -0.3023  0.2810
 4256W        W20330   0.114  17.380  13.862  0.2754  0.0695 -0.0836
 4257W        W20331  17.715  15.764  14.413 -0.1133  0.2818 -0.2446
 4258W        W20332   0.174  13.098   0.429 -0.1349  0.0382 -0.1458
 4259W        W20333  14.476   9.483   2.148 -0.0514  0.3632  0.0210
 4260W        W20334  18.333   0.893   2.715 -0.2335 -0.0146 -0.3908
 4261W        W20335  15.405  18.561   3.220 -0.3143  0.0542  0.1056
 4262W        W20336  16.539   4.205   1.641 -0.2066 -0.1342 -0.1932
 4263W        W20337   9.286  14.405   3.968 -0.0528  0.0741  0.2681
 4264W        W20338   5.100  10.722   1.205 -0.2910 -0.0373  0.0989
 4265W        W20339  14.023   1.792   9.506  0.0372  0.3876  0.0575
 4266W        W20340  14.784  12.197   4.378 -0.2312  0.0786  0.1473
 4267W        W20341   2.580  14.193   4.059  0.0004  0.1603  0.0163
 4268W        W20342   0.639  13.903   0.831  0.0601  0.1117  0.0785
 4269W        W20343  16.356   0.031   0.490  0.0159  0.1308  0.0004
 4270W        W20344  16.477   1.933  11.310  0.0250 -0.1682  0.1535
 4271W        W20345  11.239   6.522   4.238 -0.0153  0.1822 -0.2110
 4272W        W20346   9.244   3.484   4.259  0.0841 -0.2232  0.2157
 4273W        W20347  17.257  16.667  10.321  0.3740  0.0584 -0.1598
 4274W        W20348   6.362   9.318  13.781  0.0426  0.0486  0.5162
 4275W        W20349  18.396   9.649  12.363 -0.1461 -0.0967 -0.0226
 4276W        W20350  14.608  16.483  14.386  0.4572  0.0073  0.0392
 4277W        W20351  10.343   8.660  11.915  0.1836  0.0503  0.0738
 4278W        W20352   5.059  16.429  11.378 -0.0951  0.0312 -0.3301
 4279W        W20353   8.375   4.079  14.221 -0.0949 -0.1565  0.2061
 4280W        W20354   0.761   2.106  13.648  0.1621  0.0119  0.0819
 4281W        W20355   5.362  18.020   4.212 -0.1091 -0.4323  0.0904
 4282W        W20356   6.275  14.413  12.030  0.0452 -0.1272  0.0909
 4283W        W20357   8.831  12.343   3.055  0.0944  0.2968  0.3643
 4284W        W20358   6.702   7.682   3.551  0.2402  0.1053  0.0105
 4285W        W20359  11.100  10.287  13.122  0.0079  0.1139  0.0701
 4286W        W20360  18.576   1.332   2.745 -0.3763 -0.3188 -0.1595
 4287W        W20361   1.487   1.436   3.442 -0.3960  0.1077 -0.1040
 4288W        W20362  15.868  16.305   5.454 -0.1478 -0.5187 -0.1152
 4289W        W20363  17.296  18.766  11.613  0.0213  0.1641 -0.2606
 4290W        W20364   2.073   6.149   4.719 -0.1992  0.0725  0.0214
 4291W        W20365   6.727   0.960  11.185 -0.0095 -0.1464 -0.1793
 4292W        W20366   0.819  10.451   9.949 -0.0629 -0.0994  0.1648
 4293W        W20367   7.951   9.599  12.147 -0.3618  0.2234  0.2548
 4294W        W20368   9.252   0.405   3.682  0.0033  0.1903 -0.2717
 4295W        W20369   1.679   0.231  10.243  0.0443 -0.1025  0.0873
 4296W        W20370   8.117  17.739  10.029 -0.4835 -0.0348 -0.2556
 4297W        W20371   1.464   5.930   2.288 -0.1203  0.1180 -0.0218
 4298W        W20372   8.123   5.166   6.086  0.0243  0.1247 -0.3110
 4299W        W20373  18.992   3.557  15.016 -0.1615  0.1589 -0.2886
 4300W        W20374  18.865  11.802   1.941  0.3123  0.0962 -0.2612
 4301W        W20375   8.610   2.788   0.094 -0.4035  0.3282 -0.0400
 4302W        W20376  13.539   4.379  12.830 -0.4680 -0.2932  0.1751
 4303W        W20377  13.293   1.972  13.327 -0.0536  0.1745 -0.1499
 4304W        W20378  10.219   5.355  11.501 -0.0496 -0.0749 -0.2763
 4305W        W20379   2.538   6.452   2.050  0.1208  0.1093 -0.1559
 4306W        W20380   7.880   2.275   5.378 -0.0576 -0.2515  0.0245
 4307W        W20381   8.874   9.660   2.557  0.0016 -0.1530 -0.3854
 4308W        W20382   6.736   9.777   2.710  0.1576 -0.0147  0.0887
 4309W        W20383   0.819   2.558   4.017  0.3938 -0.0687 -0.0703
 4310W        W20384   0.509  13.136   5.215  0.2758 -0.1108 -0.0699
 4311W        W20385  18.401   4.810   5.632 -0.1949 -0.0862  0.1536
 4312W        W20386  11.654  14.476  13.059 -0.1165  0.1801 -0.0221
 4313W        W20387   2.342   7.618   3.178 -0.3443  0.0438 -0.3041
 4314W        W20388   0.112  17.027  12.246 -0.1054  0.2487  0.2638
 4315W        W20389  17.819   1.039  13.133 -0.0071  0.4285 -0.1391
 4316W        W20390  11.430  11.716  12.963 -0.2672 -0.2078  0.0116
 4317W        W20391   5.391  14.062  14.386  0.0574 -0.1293  0.0810
 4318W        W20392  14.803  14.382  14.203 -0.3268 -0.0391 -0.3190
 4319W        W20393   8.508  18.514   1.619 -0.2181  0.2069 -0.1195
 4320W        W20394   0.996  16.031  14.213 -0.1488  0.1885 -0.0876
 4321W        W20395   6.590  10.268   2.913  0.0181 -0.1363 -0.1052
 4322W        W20396  12.408   8.323   1.117  0.0195  0.2596 -0.0296
 4323W        W20397   2.101  10.575   0.720  0.4299  0.0202  0.1593
 4324W        W20398   8.695   6.705   3.539  0.1642 -0.2559 -0.0199
 4325W        W20399  10.605   9.442   4.644 -0.0642 -0.1172  0.1477
 4326W        W20400  10.830  11.489  10.928  0.2189  0.0399 -0.2812
 4327W        W20401   3.191  16.029   4.258 -0.3349 -0.2016  0.2298
 4328W        W20402  18.220   7.467  10.939 -0.0733  0.2266  0.1261
 4329W        W20403  18.413   7.837  13.746  0.2075 -0.0816 -0.2195
 4330W        W20404  15.745   6.633   4.215 -0.2248  0.4612 -0.0627
 4331W        W20405  15.140  13.785   3.328  0.0299 -0.1221  0.2977
 4332W        W20406  18.607   7.762  11.946  0.1076 -0.3817  0.0167
 4333W        W20407  11.191   9.370   0.050  0.2212  0.1488  0.3547
 4334W        W20408   1.767  13.751  13.820  0.0632 -0.0377 -0.2713
 4335W        W20409   2.241   3.955  14.197  0.1969  0.1147  0.0438
 4336W        W20410  12.011  12.249  13.480  0.2114 -0.0825 -0.0587
 4337W        W20411   8.614   6.278   5.423  0.0451 -0.2637 -0.0521
 4338W        W20412  14.109   6.724  14.886  0.3574  0.4066  0.2155
 4339W        W20413   1.350   2.209  12.408 -0.1195  0.3570  0.0574
 4340W        W20414  18.384  14.938   3.989  0.1449 -0.0283 -0.2228
 4341W        W20415   6.177  13.518   2.683  0.0390 -0.0651  0.1568
 4342W        W20416  17.869  10.327  14.393  0.4374 -0.1345 -0.0773
 4343W        W20417   7.469   3.398   9.799 -0.1114 -0.0751  0.4965
 4344W        W20418  15.294  16.793   2.361 -0.1906 -0.4365  0.2601
 4345W        W20419  12.762   2.777  10.767 -0.0705 -0.6483  0.2519
 4346W        W20420  15.663   9.040  14.844 -0.0635 -0.2942  0.1624
 4347W        W20421  15.947   3.093   4.606  0.0744 -0.2794  0.2174
 4348W        W20422  17.284   6.798   0.108  0.1369 -0.0577 -0.1934
 4349W        W20423   5.533  10.627  14.678 -0.1049  0.0707  0.0090
 4350W        W20424  12.333  10.136   4.777  0.2600  0.1010 -0.0696
 4351W        W20425  12.735   8.950   2.974 -0.1342 -0.4364 -0.0389
 4352W        W20426   1.791  10.575  13.828  0.1774  0.0472  0.0003
 4353W        W20427  16.808  16.891  12.161 -0.0102 -0.0084 -0.1282
 4354W        W20428  10.302  15.591   1.143 -0.1086 -0.2828 -0.0532
 4355W        W20429  16.676  10.592  11.284  0.0112  0.2786  0.0508
 4356W        W20430   4.956  17.234   5.537 -0.0243  0.1461  0.2352
 4357W        W20431   7.617   1.855   3.027 -0.0462  0.1783 -0.0812
 4358W        W20432   7.244  12.084   4.175  0.1579 -0.1810  0.2319
 4359W        W20433   4.748   4.467  12.599  0.2869 -0.1560 -0.1233
 4360W        W20434  15.390  15.014   1.984  0.0888 -0.0223  0.0976
 4361W        W20435   7.375   7.241   4.531  0.1765 -0.3139  0.0453
 4362W        W20436  15.487   3.692  11.337 -0.0504 -0.0214 -0.1228
 4363W        W20437  14.399   1.841   4.485  0.0541  0.2239  0.1519
 4364W        W20438  12.519   1.060  12.878 -0.2949 -0.0259 -0.0513
 4365W        W20439  14.237   8.885  11.602 -0.1070  0.1045  0.1013
 4366W        W20440   0.102   7.063   0.288  0.0831  0.2575  0.0183
 4367W        W20441   1.301   0.494  11.296 -0.1374 -0.1052 -0.1759
 4368W        W20442   7.588   1.058  11.740 -0.0427 -0.2178  0.0337
 4369W        W20443   3.246  10.471  13.521  0.1494 -0.2929  0.0342
 4370W        W20444   5.489   9.512   0.603  0.1055 -0.0409 -0.0070
 4371W        W20445  12.729  17.121  10.250  0.1360 -0.1699 -0.1097
 4372W        W20446   2.990   6.286   3.919 -0.0938 -0.0172 -0.0247
 4373W        W20447  12.191   5.956   1.643  0.2983  0.0694  0.0526
 4374W        W20448  16.791   7.928  13.536  0.0013 -0.1195 -0.1979
 4375W        W20449  12.844  14.448  13.533  0.1179 -0.5476 -0.1067
 4376W        W20450  17.391   6.462  12.535 -0.3008 -0.4229  0.0481
 4377W        W20451  12.413   9.951   4.275 -0.3401  0.3141  0.0375
 4378W        W20452  16.240   8.835   3.424 -0.4925 -0.3048 -0.0363
 4379W        W20453   3.094  16.613  13.814 -0.2299 -0.1817 -0.2130
 4380W        W20454  10.097   5.229   2.188 -0.1329 -0.1013 -0.3022
 4381W        W20455  12.515  16.912  13.447  0.1641 -0.0634  0.0067
 4382W        W20456   4.320  10.624  13.900 -0.1068  0.2163 -0.1893
 4383W        W20457  11.293   0.897  10.353 -0.0454 -0.1591  0.2723
 4384W        W20458   7.031   4.098   3.003 -0.0888 -0.3032 -0.0132
 4385W        W20459  16.902   6.290  14.398 -0.1570 -0.0325  0.1710
 4386W        W20460   0.375  13.364   4.308 -0.3982  0.0758  0.3383
 4387W        W20461  10.787  13.526   6.462 -0.0298  0.0929 -0.2912
 4388W        W20462   8.208   7.262  14.207 -0.1842  0.0540 -0.2262
 4389W        W20463  19.081   7.684   5.718 -0.1687  0.3272  0.3199
 4390W        W20464   4.251  12.273   5.045  0.0374 -0.2404  0.0766
 4391W        W20465   0.568  15.813   1.979 -0.1228  0.0424  0.4318
 4392W        W20466  14.081   4.922  12.223 -0.0305 -0.6532  0.0820
 4393W        W20467   8.790  12.311  14.193  0.0551  0.2312  0.1487
 4394W        W20468   5.367  18.000  13.536  0.3361 -0.1208 -0.3235
 4395W        W20469   0.001   7.595   2.140  0.1882 -0.2416  0.2336
 4396W        W20470  17.881   4.987  11.391 -0.4424  0.1730  0.1263
 4397W        W20471  16.716   7.603   2.365  0.2942  0.0321 -0.3000
 4398W        W20472   4.975  16.811  14.674  0.1090 -0.0625 -0.1700
 4399W        W20473  13.137   6.629   3.250 -0.4490 -0.0645  0.1078
 4400W        W20474  18.219   3.899   1.827 -0.1877 -0.3488  0.1562
 4401W        W20475  12.596   0.804   2.226  0.2757  0.0853  0.1420
 4402W        W20476   6.442   1.361   3.870 -0.2725  0.1451 -0.0122
 4403W        W20477  15.170  15.389   1.143  0.1955 -0.0132 -0.0261
 4404W        W20478   5.449  11.094  11.512 -0.2870 -0.3572 -0.1258
 4405W        W20479  12.342   7.265   5.711 -0.1295 -0.0935 -0.1002
 4406W        W20480  16.751  16.472  10.431  0.2269 -0.0394 -0.1314
 4407W        W20481   5.075   6.389   3.232 -0.2258 -0.1255  0.2256
 4408W        W20482   4.582   6.996   0.564  0.1891 -0.2709 -0.1705
 4409W        W20483  15.722   2.717   1.021  0.4444  0.1561 -0.1275
 4410W        W20484  12.820   8.541   0.066  0.0526 -0.2172  0.2560
 4411W        W20485  16.026  17.465  13.876 -0.0126  0.6847 -0.0578
 4412W        W20486   5.565  13.954  12.698  0.2587  0.0517 -0.0094
 4413W        W20487   9.958   5.904   3.133 -0.1449  0.1121 -0.0237
 4414W        W20488  17.468  13.597  13.680 -0.2435 -0.1356 -0.1898
 4415W        W20489   0.961   3.747   0.854  0.0791  0.1087 -0.2047
 4416W        W20490  10.637   1.408   0.283  0.1952 -0.1407  0.1582
 4417W        W20491  17.819   9.328  10.615 -0.1111 -0.2379 -0.0779
 4418W        W20492  16.764   8.433  13.725  0.2229  0.3562 -0.4457
 4419W        W20493  18.304  14.844  10.111 -0.3846 -0.0085 -0.0775
 4420W        W20494  16.117   6.436  14.573  0.1191 -0.2840  0.3704
 4421W        W20495  13.526   7.520  11.906  0.0371 -0.1299  0.3212
 4422W        W20496   7.771   3.729  12.694 -0.2087  0.4173 -0.1484
 4423W        W20497   7.399  17.622   1.005 -0.1438 -0.1809  0.1114
 4424W        W20498  15.420  11.336  13.805  0.1205  0.0130  0.0039
 4425W        W20499  14.648   8.610   5.546  0.2562 -0.4086 -0.3099
 4426W        W20500   2.738   7.115  14.300  0.0668  0.0765 -0.0524
 4427W        W20501   0.385   9.970  10.735  0.1235  0.1175  0.1285
 4428W        W20502  17.221  17.013   1.197 -0.0519  0.0864  0.1372
 4429W        W20503  16.170   6.121   5.162  0.1840 -0.1885 -0.2030
 4430W        W20504  15.626   1.981   0.990  0.0643 -0.4644 -0.2159
 4431W        W20505   1.710  15.797   3.424 -0.0110 -0.2865  0.0383
 4432W        W20506  15.855  16.719   2.442 -0.0707  0.1226  0.1539
 4433W        W20507   1.408   4.474  11.613  0.2474 -0.0351 -0.0634
 4434W        W20508   8.542  12.074  14.673  0.0941  0.0294  0.3354
 4435W        W20509   3.702   0.055   1.344 -0.0521 -0.0806  0.1948
 4436W        W20510  11.302  16.423  12.653 -0.0478  0.3497 -0.1349
 4437W        W20511   4.392   6.384   1.560 -0.0318 -0.3502  0.1305
 4438W        W20512  10.638   1.481   5.429 -0.1431  0.0721 -0.0854
 4439W        W20513   9.063   4.037   4.260  0.5315  0.1926 -0.0037
 4440W        W20514   6.099  13.249   1.447 -0.1111  0.3162 -0.0651
 4441W        W20515   3.183  16.062  11.173 -0.0664 -0.2699  0.1752
 4442W        W20516  19.163   5.223   3.439 -0.0896 -0.1171 -0.1151
 4443W        W20517  10.890  17.078   0.091  0.0702  0.2515  0.1804
 4444W        W20518   3.314  15.253   3.102  0.1234  0.1424 -0.0089
 4445W        W20519   6.325   0.210   5.096 -0.0523 -0.4365 -0.1675
 4446W        W20520   5.940  18.042  13.398  0.5273 -0.5139 -0.0459
 4447W        W20521   0.390  17.398   1.036 -0.2167 -0.0582  0.0790
 4448W        W20522   0.304   0.460   4.078  0.1748 -0.1152 -0.1904
 4449W        W20523   8.757   2.815   2.717  0.3962  0.0524 -0.0663
 4450W        W20524   2.927   7.077  10.156  0.1807 -0.1356  0.3495
 4451W        W20525  13.915   6.439   4.493  0.1507 -0.3694 -0.0265
 4452W        W20526   5.028   9.258  11.239  0.0498 -0.0737 -0.0577
 4453W        W20527  16.962  16.989  12.645  0.3796 -0.2875 -0.1100
 4454W        W20528   5.118   5.944   3.416  0.0156  0.4568 -0.0351
 4455W        W20529   7.888  14.134  12.208  0.1818 -0.1360 -0.0006
 4456W        W20530   0.200  12.825  11.315 -0.3363  0.1220  0.0835
 4457W        W20531   5.721   8.529   0.497  0.0629 -0.0963 -0.0692
 4458W        W20532  12.462   2.054   0.807 -0.1945 -0.0239  0.0883
 4459W        W20533   4.591   1.228  13.124 -0.2372  0.0391  0.0026
 4460W        W20534  13.888  18.878  14.196 -0.3321 -0.0825 -0.0446
 4461W        W20535  18.060  14.475  10.489 -0.1782 -0.1794 -0.2198
 4462W        W20536  10.640  16.611  12.665 -0.0445 -0.0126  0.0364
 4463W        W20537   9.933  18.804  14.352  0.0851 -0.0370  0.2128
 4464W        W20538  18.119  16.493  11.332 -0.0164  0.2813 -0.0068
 4465W        W20539  18.485   9.196  13.280 -0.0124 -0.1714  0.1313
 4466W        W20540   4.939  16.943  12.109 -0.4364  0.3062  0.3675
 4467W        W20541   9.036   7.704   2.755 -0.1837 -0.0216  0.0870
 4468W        W20542   4.131   6.905   3.551 -0.0951  0.0206  0.0689
 4469W        W20543  17.432  19.132  13.445 -0.0189  0.1259  0.1054
 4470W        W20544   1.789  16.034   5.537  0.1495 -0.1109 -0.0984
 4471W        W20545  14.985   5.072  14.074  0.0550  0.2331 -0.2227
 4472W        W20546  10.603  18.396  14.821  0.0635  0.0891  0.2881
 4473W        W20547  15.229  11.631   1.863  0.1013 -0.1511 -0.1039
 4474W        W20548  10.905  13.554   4.313 -0.1246 -0.2053  0.0041
 4475W        W20549   6.487  13.439   4.659  0.2623 -0.0589  0.1737
 4476W        W20550   0.098  10.284   5.150 -0.1109  0.0315  0.0564
 4477W        W20551  10.010  17.094   5.011  0.0243 -0.3424  0.3151
 4478W        W20552  13.259   7.244   5.383 -0.0574  0.0532  0.0673
 4479W        W20553  11.751  14.769  14.365  0.0095  0.2689 -0.1682
 4480W        W20554  10.566   4.093   1.843 -0.0015 -0.1576 -0.0151
 4481W        W20555  17.614  12.761  12.707  0.3775 -0.0540  0.3130
 4482W        W20556  17.207  15.586  12.903  0.4503 -0.1373 -0.3724
 4483W        W20557   4.357   0.578   2.025  0.3364 -0.0308 -0.4376
 4484W        W20558  12.362  10.515   3.604  0.1808 -0.2058 -0.0719
 4485W        W20559  16.809  14.451   0.770 -0.0386 -0.3085 -0.2188
 4486W        W20560   7.356   6.374   5.783  0.2023 -0.1625 -0.0019
 4487W        W20561   2.414  14.818   0.726  0.1336  0.4411 -0.0884
 4488W        W20562  10.682   5.464  12.180 -0.0360 -0.1909  0.0550
 4489W        W20563   4.145   6.056  13.527 -0.1450  0.1881 -0.3572
 4490W        W20564   6.303  17.418   2.670 -0.2368 -0.1048 -0.1714
 4491W        W20565  16.578  14.816   9.504 -0.3507 -0.0321  0.0106
 4492W        W20566  13.096  17.044   1.433  0.0480  0.3127 -0.0209
 4493W        W20567  18.250  13.048  13.841 -0.3273 -0.3790  0.1865
 4494W        W20568   3.411   6.625  14.945  0.0944  0.1853 -0.1413
 4495W        W20569  10.943   8.994  11.405  0.1211 -0.1259 -0.6026
 4496W        W20570  11.608   4.066  10.802 -0.1359  0.1407 -0.2942
 4497W        W20571  12.628   7.692   3.366 -0.1088 -0.3081 -0.1116
 4498W        W20572   5.619   9.666   4.469  0.2055  0.2266  0.2288
 4499W        W20573  13.558  18.119  11.305  0.0490  0.0528  0.0828
 4500W        W20574   5.280   4.110  10.301  0.0612 -0.3356  0.2869
 4501W        W20575  18.590   0.178  14.182 -0.0912 -0.2032 -0.1136
 4502W        W20576   1.408  19.041  10.282 -0.2140  0.0163 -0.2720
 4503W        W20577  15.297  11.840  13.974  0.2683  0.0586  0.0669
 4504W        W20578   7.679   2.825   4.424 -0.0023  0.0217  0.0528
 4505W        W20579  18.287  18.627  13.414 -0.1583 -0.1745 -0.1871
 4506W        W20580  10.574   1.132  13.735 -0.2562  0.3356 -0.1724
 4507W        W20581   7.966  18.119   2.301 -0.0591  0.0996 -0.1204
 4508W        W20582  15.094  12.656   4.300  0.2814 -0.2528 -0.2933
 4509W        W20583   9.958   3.581  11.991  0.3573  0.2805  0.1049
 4510W        W20584  11.142  18.833  11.937  0.2849 -0.2373  0.3777
 4511W        W20585  16.040   7.201   3.482  0.1881  0.2327 -0.1025
 4512W        W20586   0.710  11.498  11.702 -0.4444  0.1985  0.3489
 4513W        W20587  17.087   0.995  11.962  0.3646  0.0508 -0.1885
 4514W        W20588   6.994   5.595   5.717  0.3202  0.0152  0.1657
 4515W        W20589   2.544  11.689  14.025  0.0996 -0.2550 -0.1501
 4516W        W20590  18.266  16.187  13.465 -0.1522 -0.0522  0.2112
 4517W        W20591   9.846   2.815   0.417  0.0532  0.1666 -0.0499
 4518W        W20592  16.366   5.195   1.878  0.0163  0.1573  0.0932
 4519W        W20593  14.033  14.596   3.567  0.1990 -0.1139  0.0255
 4520W        W20594   9.574   5.222   4.326 -0.1496 -0.2180  0.3644
 4521W        W20595  16.586   9.960  11.105 -0.1349 -0.0078  0.0582
 4522W        W20596  17.603  18.636   1.736 -0.1178 -0.1438 -0.2338
 4523W        W20597  12.319   3.241   0.258  0.3502  0.0535  0.0667
 4524W        W20598  12.357   6.534   2.688 -0.0466  0.1179  0.1157
 4525W        W20599   7.703  18.983   3.979 -0.3303 -0.3413 -0.0658
 4526W        W20600  17.114   0.639  13.894 -0.1992  0.2898  0.0466
 4527W        W20601  16.309   0.833  12.262 -0.0313  0.0977  0.0781
 4528W        W20602   2.459   9.770  12.419  0.0026 -0.2350  0.0136
 4529W        W20603  13.237   9.978   4.303 -0.2534 -0.0746  0.0841
 4530W        W20604   0.289  12.024  12.406  0.0193 -0.0031  0.1817
 4531W        W20605  15.098   4.099  13.278  0.0778 -0.0968 -0.3045
 4532W        W20606   1.801  11.970  14.059 -0.1762  0.2041  0.1711
 4533W        W20607   8.994  18.857  11.659 -0.1044 -0.2098  0.0981
 4534W        W20608  12.163   2.512  10.632  0.0374  0.0925  0.3319
 4535W        W20609  10.506   0.623  14.638 -0.1899  0.1397  0.0590
 4536W        W20610  17.493   1.494   0.684 -0.0352  0.0479 -0.4102
 4537W        W20611  11.364   4.835  10.889  0.0914  0.1362 -0.1643
 4538W        W20612  16.659  17.482  10.016 -0.2410  0.0119 -0.0814
 4539W        W20613   0.423   7.491  11.079  0.1837 -0.2936  0.1477
 4540W        W20614  17.405  16.468   0.595 -0.1684  0.3305 -0.3716
 4541W        W20615   4.133  12.262  14.919  0.0723  0.1239  0.2009
 4542W        W20616   6.239   8.218  14.821 -0.1594  0.2026 -0.0761
 4543W        W20617  18.048   4.432  14.612  0.0163 -0.1684  0.0172
 4544W        W20618   5.186  14.272   4.467 -0.3210  0.1593  0.0608
 4545W        W20619  14.028  12.304  13.639 -0.1913  0.2691  0.1258
 4546W        W20620   2.947  17.123  13.045 -0.1689  0.1865  0.0901
 4547W        W20621  16.325  18.672   0.416  0.0210 -0.0932 -0.0893
 4548W        W20622  11.995   3.955   1.727  0.2176  0.0315  0.0231
 4549W        W20623   3.209  11.551   2.917  0.0185  0.0138 -0.2940
 4550W        W20624   9.376  12.948   2.761 -0.0357  0.1130  0.3321
 4551W        W20625   7.828  18.975   3.435  0.0196  0.0881 -0.1578
 4552W        W20626  17.013   1.141   2.132 -0.0970 -0.3876  0.0807
 4553W        W20627   8.766  10.763  14.657 -0.1903 -0.0677  0.1679
 4554W        W20628   6.639  15.776  10.071 -0.4779 -0.2066  0.0293
 4555W        W20629  13.356   5.295   1.461  0.2288 -0.0900  0.3710
 4556W        W20630  12.820   3.359  12.090 -0.0800 -0.2942 -0.0871
 4557W        W20631   3.909  10.706   3.856  0.1093  0.0409 -0.3997
 4558W        W20632   5.052  16.024   3.944 -0.1602 -0.2408  0.4466
 4559W        W20633  18.441   3.071  10.050 -0.1128 -0.2324 -0.3444
 4560W        W20634  18.993   9.710   3.556  0.1086 -0.0176 -0.0465
 4561W        W20635   6.136  14.412   0.532  0.2076  0.1543 -0.4358
 4562W        W20636   0.864  19.223  14.840  0.1559 -0.0487  0.1412
 4563W        W20637  10.076   2.283   2.533 -0.1488  0.0824  0.0111
 4564W        W20638   5.386  17.497   0.276 -0.3017  0.1141  0.0590
 4565W        W20639   0.860   2.182   2.288  0.2870 -0.3423  0.0050
 4566W        W20640  14.215  19.067  12.932 -0.3658  0.0943  0.0007
 4567W        W20641  13.301  10.433  12.360 -0.0874  0.1993 -0.1258
 4568W        W20642   1.596  15.232   4.746  0.1002  0.1144 -0.0356
 4569W        W20643   0.842   1.707  13.380  0.1103 -0.1690 -0.1197
 4570W        W20644  10.076  10.171   9.948 -0.1226  0.0844  0.3111
 4571W        W20645  18.519   0.943  10.346 -0.0356  0.1175 -0.1554
 4572W        W20646  15.601  18.368  12.909  0.1153 -0.1725 -0.1264
 4573W        W20647  16.234   8.390   0.131 -0.0644 -0.0264 -0.2016
 4574W        W20648  16.911   0.548   9.111  0.0009 -0.0892  0.1733
 4575W        W20649   2.423  17.743   0.841 -0.2265  0.1253 -0.0709
 4576W        W20650   6.641   1.646  13.351  0.0697 -0.0279 -0.3665
 4577W        W20651   7.231  10.197  12.184 -0.1392 -0.0979 -0.3454
 4578W        W20652   0.537  13.198   9.966  0.1438  0.1926 -0.1260
 4579W        W20653  17.922  11.016   0.063 -0.1416  0.2095  0.1522
 4580W        W20654   6.981   2.948   0.545  0.0561 -0.4143  0.1285
 4581W        W20655   6.154   3.474  13.295 -0.1796  0.1018  0.1786
 4582W        W20656   0.245   4.994   3.686 -0.1101 -0.0896  0.0030
 4583W        W20657   1.033  12.017   2.763 -0.0097 -0.2328 -0.2345
 4584W        W20658   8.241  12.471  14.816  0.4352 -0.5589  0.0164
 4585W        W20659   1.007   2.571   1.610 -0.1838 -0.1721  0.0440
 4586W        W20660   2.079  15.421   3.515  0.0043  0.1238  0.3157
 4587W        W20661   0.578  11.567   0.510  0.0727  0.1490 -0.1603
 4588W        W20662  15.997   2.652   4.109  0.0769  0.5673 -0.0368
 4589W        W20663  16.347  15.968   4.097  0.1103 -0.1304  0.0851
 4590W        W20664  13.255  13.560  11.226 -0.1260 -0.0821 -0.1774
 4591W        W20665   9.721  17.666  11.735 -0.0856 -0.0890  0.0609
 4592W        W20666   4.095   1.884   0.772  0.0827 -0.0144  0.1965
 4593W        W20667   3.452   5.507   2.413 -0.1194 -0.1610 -0.1052
 4594W        W20668   0.087   5.862  14.344  0.2117  0.2571 -0.1847
 4595W        W20669   2.939   6.163   1.156 -0.0090 -0.3011 -0.0874
 4596W        W20670  11.209   4.089  13.164  0.1915 -0.3099  0.3472
 4597W        W20671  17.445   4.999   5.740 -0.1825  0.2988  0.1366
 4598W        W20672  17.681   3.266  15.001 -0.2629  0.1376  0.0300
 4599W        W20673   0.843  12.763   9.925  0.0688 -0.0238  0.0970
 4600W        W20674   5.550   2.187  13.998  0.3556 -0.1526 -0.0454
 4601W        W20675  15.852   9.272   0.375  0.0710 -0.1955  0.3492
 4602W        W20676  18.489  18.707  13.956  0.1458  0.0234 -0.3216
 4603W        W20677   0.501   9.175  14.465  0.2389 -0.0221  0.1803
 4604W        W20678   2.601   8.485   1.089 -0.3292  0.2036  0.1675
 4605W        W20679  17.060   1.798   1.461 -0.1189  0.0890 -0.0592
 4606W        W20680  16.095   8.272   2.661 -0.1502 -0.0677  0.0384
 4607W        W20681   4.946  10.584   4.306 -0.1578 -0.2531  0.0635
 4608W        W20682  15.320  10.021  15.012  0.2127  0.1498 -0.0517
 4609W        W20683  11.252  12.653   4.199  0.1733 -0.1558 -0.1264
 4610W        W20684   7.072   5.271   1.388  0.0951  0.0922  0.0727
 4611W        W20685   1.912  16.363  10.825  0.0629  0.2987  0.1080
 4612W        W20686  13.027  10.579   0.577 -0.0347  0.3736 -0.1582
 4613W        W20687   5.313   9.064   0.906  0.0907 -0.1419  0.1040
 4614W        W20688   3.982   6.828  13.674  0.3757 -0.0639  0.1173
 4615W        W20689   7.991   8.474  13.664  0.0087  0.0979  0.0443
 4616W        W20690  18.592   3.929  13.316  0.2203 -0.5365 -0.0663
 4617W        W20691  14.141   0.848   4.045  0.2247  0.4489  0.4318
 4618W        W20692  11.510  13.813  11.180 -0.0692 -0.0213  0.0800
 4619W        W20693  10.210   5.976   3.543 -0.1303 -0.2341  0.1099
 4620W        W20694   8.366   9.752  13.680 -0.0386 -0.2815  0.1995
 4621W        W20695  17.404   7.974  10.460  0.0111  0.3220 -0.1278
 4622W        W20696  10.214  19.286  12.643 -0.0057 -0.3094 -0.1152
 4623W        W20697  16.092  12.776  14.572 -0.2329  0.2847 -0.2359
 4624W        W20698  17.060   2.637   4.370  0.2006 -0.1288  0.1790
 4625W        W20699   1.274  14.395  12.432  0.0757 -0.0899  0.0139
 4626W        W20700  12.865   6.215  11.758 -0.0865  0.5889 -0.5053
 4627W        W20701  14.205  14.825   2.982  0.0693 -0.0756 -0.4300
 4628W        W20702  15.982   2.392  13.242  0.0074 -0.1181  0.0171
 4629W        W20703   8.559  11.802  10.629 -0.0183  0.0836  0.0190
 4630W        W20704  13.302   7.199   4.348 -0.4050 -0.0569 -0.2286
 4631W        W20705   2.398  10.885   4.587 -0.1789 -0.1457  0.2245
 4632W        W20706   3.368   8.678  13.106  0.0957 -0.0622  0.0150
 4633W        W20707   4.660   3.806   2.909 -0.3077 -0.5432  0.2027
 4634W        W20708   8.799  13.954   5.064  0.1094 -0.0366  0.0669
 4635W        W20709  13.010   2.482  11.749 -0.2712  0.0809  0.0159
 4636W        W20710  18.800  14.207   0.003 -0.1250  0.1580  0.0693
 4637W        W20711   5.294  15.305  13.707  0.0363 -0.2841 -0.0948
 4638W        W20712  11.551  18.363   3.926  0.2655 -0.1737 -0.0213
 4639W        W20713  12.309  18.885   0.162 -0.1653 -0.0249 -0.0955
 4640W        W20714   7.631  11.250  11.605  0.0425  0.2639  0.4014
 4641W        W20715   8.913  13.101   3.894 -0.1796 -0.0022  0.1198
 4642W        W20716  10.168   3.833   2.525 -0.2567  0.2081 -0.1960
 4643W        W20717  13.943   7.268  11.843 -0.0351  0.0184 -0.0520
 4644W        W20718   7.245  14.540   1.294 -0.0618  0.0638 -0.2583
 4645W        W20719  18.798  12.737   4.167 -0.2540 -0.1852 -0.0531
 4646W        W20720   3.970  13.248   4.547  0.2221  0.1063  0.0625
 4647W        W20721   0.667  10.661   0.512  0.3153  0.0706 -0.0668
 4648W        W20722   4.500   4.710   3.291 -0.1963  0.0773  0.0038
 4649W        W20723  13.244  18.982  12.902  0.4401 -0.0582  0.0681
 4650W        W20724  14.809  18.257  10.337 -0.0460  0.2148 -0.0228
 4651W        W20725  17.343   5.686  13.370 -0.3223 -0.0481  0.1269
 4652W        W20726   8.395  13.867   2.750 -0.0079  0.1423 -0.1506
 4653W        W20727  10.761  11.546   4.799  0.0681 -0.1705  0.0733
 4654W        W20728   8.528   3.557  11.193 -0.1168 -0.0738  0.1045
 4655W        W20729   0.302  15.021   4.396  0.1636 -0.0569  0.1075
 4656W        W20730  12.618  16.326   1.350  0.1082 -0.0410  0.0564
 4657W        W20731   1.007  14.273  12.042 -0.0701 -0.3186 -0.1295
 4658W        W20732   9.259   8.681  11.352  0.4487 -0.0349  0.0642
 4659W        W20733  10.275   7.999  12.615  0.0343  0.0803  0.2585
 4660W        W20734  13.938   8.757   0.800 -0.0817  0.1775 -0.1694
 4661W        W20735  10.172  17.501  14.956  0.0301  0.3190  0.0726
 4662W        W20736  15.989  12.655  14.058  0.0008  0.1352 -0.0979
 4663W        W20737  16.823  12.165   1.236  0.0994 -0.1540  0.4602
 4664W        W20738  11.955  14.679   4.687  0.4068  0.1603 -0.0054
 4665W        W20739   7.856  15.028   3.378  0.0125  0.3107 -0.0317
 4666W        W20740   0.032   3.533   1.016  0.1783  0.0725  0.0051
 4667W        W20741   0.843  15.753   1.448  0.0038 -0.5690  0.2448
 4668W        W20742  16.316  13.066   4.861 -0.4806 -0.1601  0.0570
 4669W        W20743   1.670  13.250   9.746 -0.1120  0.2495 -0.1405
 4670W        W20744   8.973   1.291  10.261  0.4041  0.0482  0.1291
 4671W        W20745  14.174   6.091   5.340 -0.0888  0.1826 -0.2118
 4672W        W20746   6.443   7.744   1.499  0.2369 -0.0500 -0.0027
 4673W        W20747   6.880  12.441  11.399  0.5093  0.0008  0.0949
 4674W        W20748  17.833  15.755   2.310  0.1788  0.3423 -0.0349
 4675W        W20749  15.641  12.020  15.001  0.3018 -0.1044 -0.1389
 4676W        W20750   9.452   4.566   1.963 -0.0374  0.1187  0.0683
 4677W        W20751  17.587  11.509  13.838 -0.2026 -0.2048 -0.1072
 4678W        W20752  18.340   3.406   5.279 -0.2109 -0.0287 -0.1096
 4679W        W20753   1.751  11.294  13.601 -0.0371  0.1037  0.0297
 4680W        W20754  12.831  17.339   1.073 -0.1768 -0.0449  0.0990
 4681W        W20755   8.146   2.566  10.468 -0.1672  0.1983 -0.0166
 4682W        W20756   4.983   9.822  11.333 -0.1246  0.1401 -0.4079
 4683W        W20757   5.970   6.118   0.009 -0.0311 -0.0964 -0.1871
 4684W        W20758   4.029   0.402  11.346 -0.0758  0.0850 -0.2325
 4685W        W20759   8.041   9.064   5.793  0.4746  0.2960 -0.1750
 4686W        W20760  14.227   3.483   9.450  0.2509 -0.0391  0.0777
 4687W        W20761   1.794  17.259   3.067  0.0358  0.0500  0.0300
 4688W        W20762  11.594   8.835  13.910 -0.3087 -0.0729 -0.0398
 4689W        W20763  12.004   2.436   4.043 -0.2566 -0.1343 -0.1290
 4690W        W20764   4.539   0.373   5.295 -0.1724 -0.1371 -0.1171
 4691W        W20765  18.968  17.864   5.207 -0.1030  0.0048  0.0978
 4692W        W20766   9.107   2.177   0.527  0.2589 -0.2085 -0.2135
 4693W        W20767   0.851   5.930   0.877 -0.1788 -0.0614 -0.0592
 4694W        W20768   0.032   3.597   0.511 -0.1037 -0.0601  0.2126
 4695W        W20769  11.050   3.106  14.732  0.0035 -0.3032  0.2081
 4696W        W20770  12.361   4.422   3.716 -0.0091 -0.0176  0.1616
 4697W        W20771   7.962   3.193   4.590  0.0393 -0.3384 -0.2559
 4698W        W20772  11.355   6.346   5.162  0.0982 -0.0411  0.1282
 4699W        W20773  16.904  16.189  14.707  0.1795  0.0463  0.2280
 4700W        W20774  17.419  16.399   1.611  0.2287 -0.3341  0.4908
 4701W        W20775  14.266   8.418   3.146  0.0315  0.1372  0.1658
 4702W        W20776   9.393  15.068  10.110 -0.0728 -0.2502 -0.2302
 4703W        W20777   0.262   4.008   5.329  0.1016 -0.0747  0.1346
 4704W        W20778   0.104  10.488   0.457  0.2890  0.0608 -0.1065
 4705W        W20779   8.890  18.933   4.501  0.1119  0.0367  0.0124
 4706W        W20780   5.162   1.923  11.485 -0.1326  0.1283  0.0186
 4707W        W20781   8.609   0.805   1.541  0.2927 -0.2105  0.2334
 4708W        W20782   3.299  13.079  12.424  0.1103 -0.1635 -0.2217
 4709W        W20783  17.673   1.553  11.170 -0.2303  0.0362  0.1723
 4710W        W20784  12.069   7.533  13.222 -0.0561  0.1381  0.0265
 4711W        W20785   0.086   6.661   1.047 -0.1007  0.1014  0.2385
 4712W        W20786   0.822  12.228   0.815 -0.1620 -0.0386  0.0082
 4713W        W20787   9.834  13.533  11.076 -0.2360  0.2881 -0.0174
 4714W        W20788   9.924  14.923  11.690 -0.0682  0.0976  0.0071
 4715W        W20789   7.556  14.976   1.329 -0.4387 -0.0795  0.2682
 4716W        W20790  10.468   3.292  10.404  0.0102 -0.0131 -0.0663
 4717W        W20791   9.955  12.462   4.120  0.2908  0.0460 -0.0705
 4718W        W20792  13.837  16.046  10.407 -0.0923  0.0025  0.4216
 4719W        W20793   4.949  14.424   1.292  0.0621  0.0733 -0.2281
 4720W        W20794  11.742  12.352   3.292  0.3360 -0.0058 -0.0801
 4721W        W20795   9.879  10.713   2.937 -0.1432 -0.1504 -0.1707
 4722W        W20796  13.176  10.304   0.144  0.0529 -0.0716 -0.1144
 4723W        W20797   4.401   1.665   2.524 -0.0333  0.2708  0.2152
 4724W        W20798   8.078  11.631   1.414  0.0152 -0.1607 -0.1152
 4725W        W20799  14.789  12.408   3.091 -0.0844 -0.2225 -0.1176
 4726W        W20800  11.498   3.432  12.438  0.1632  0.0938 -0.0424
 4727W        W20801   3.410  18.833   2.093 -0.0616  0.2063 -0.0082
 4728W        W20802   8.948  17.359  15.005  0.0360  0.0213 -0.2146
 4729W        W20803   0.226   8.885   2.017  0.2041  0.0805  0.2352
 4730W        W20804  12.224  17.389  13.418 -0.0912 -0.1543 -0.0160
 4731W        W20805  12.069   4.881   2.214  0.0224  0.1778  0.3079
 4732W        W20806   7.002  18.414   1.316 -0.1526 -0.1927 -0.2296
 4733W        W20807   4.658  18.653   2.657 -0.0179 -0.1061  0.1648
 4734W        W20808   4.911  15.067   2.154 -0.1780  0.4250 -0.0755
 4735W        W20809   0.561   5.323   4.057  0.1066  0.4198  0.1394
 4736W        W20810  12.798  10.077  11.235 -0.0286  0.2528 -0.2110
 4737W        W20811   4.175  11.999  12.541  0.0727  0.2446 -0.3986
 4738W        W20812   4.914   5.136  11.440  0.1715  0.1123 -0.0629
 4739W        W20813   6.920  11.854  11.189  0.1942 -0.1199 -0.1132
 4740W        W20814   5.275   9.040   0.382  0.2344  0.1568 -0.0417
 4741W        W20815   0.599   7.450  12.467 -0.1869  0.0342  0.0831
 4742W        W20816  11.450   3.976   1.321 -0.0392  0.1912 -0.1531
 4743W        W20817   2.230   3.029  11.789  0.0903  0.0521  0.0014
 4744W        W20818  15.612   2.926  10.486  0.0734  0.1278 -0.2648
 4745W        W20819  11.771   3.094  13.161  0.0540  0.0835  0.3467
 4746W        W20820  13.745   3.885   2.743 -0.3059 -0.1149 -0.4456
 4747W        W20821  18.239   1.145  10.704  0.0425 -0.2254  0.2016
 4748W        W20822   7.701  16.761  14.348  0.1742  0.3201  0.2980
 4749W        W20823   1.782   8.219   0.443  0.1793 -0.0616  0.2385
 4750W        W20824  10.898  11.693  13.602  0.1573  0.0560 -0.0198
 4751W        W20825  16.380  16.682  14.289 -0.0663  0.1957  0.1647
 4752W        W20826   2.962   5.097  12.361 -0.0456 -0.1956  0.2372
 4753W        W20827  15.764   2.312  11.297 -0.0066 -0.0245 -0.1917
 4754W        W20828   5.261   9.554  12.194 -0.0136 -0.3191 -0.1547
 4755W        W20829   6.340   9.062  12.410  0.0657 -0.4348 -0.2646
 4756W        W20830   6.842   6.579   3.740 -0.0350 -0.3552 -0.2372
 4757W        W20831   1.080   2.974   2.598  0.3489  0.2511 -0.1787
 4758W        W20832  12.001   6.618   5.504 -0.1345  0.1306 -0.1118
 4759W        W20833   7.792   5.235   1.168 -0.1857  0.0900 -0.0449
 4760W        W20834  12.850  15.886   0.302 -0.1370  0.3845 -0.0872
 4761W        W20835   3.122  17.567  10.540  0.3096  0.2790 -0.1719
 4762W        W20836  13.736   3.022  14.575  0.2166  0.0704 -0.1144
 4763W        W20837   4.873   4.170   2.674 -0.3916  0.2811 -0.4283
 4764W        W20838   5.141   0.679  11.549  0.1374  0.1370 -0.1821
 4765W        W20839  12.687  11.460  12.284 -0.1805  0.0491 -0.1024
 4766W        W20840  18.030  10.275   1.293  0.1509 -0.0927 -0.0331
 4767W        W20841   9.999   8.574  12.769  0.0227 -0.3313  0.1401
 4768W        W20842   8.774   9.357   1.297 -0.1921 -0.1105  0.1061
 4769W        W20843  10.837  14.332  11.585  0.1344 -0.2742 -0.1772
 4770W        W20844  16.821  11.434   3.309  0.4344 -0.4390 -0.1753
 4771W        W20845  10.122   6.724   3.826  0.1216  0.2190  0.0363
 4772W        W20846   9.746  18.280  14.715  0.3308  0.1693  0.1349
 4773W        W20847  10.009  15.020  15.041  0.3464  0.3772 -0.1272
 4774W        W20848  17.074  14.896  13.946 -0.2571 -0.0068  0.0764
 4775W        W20849   9.173   4.971  13.919  0.0901 -0.0303  0.1059
 4776W        W20850  18.844  10.465   5.563  0.1691 -0.1830  0.0023
 4777W        W20851  18.867  10.199  13.347 -0.0562 -0.0834 -0.1638
 4778W        W20852   4.134   6.656  12.099 -0.0706 -0.0694  0.0674
 4779W        W20853   0.474   8.614  13.282 -0.1381  0.0004 -0.3466
 4780W        W20854  10.334  15.808   4.321  0.1685  0.1045  0.1327
 4781W        W20855   2.159  10.619  12.379 -0.0490  0.1472 -0.1954
 4782W        W20856  14.230   1.447  11.714  0.2523 -0.0915  0.5806
 4783W        W20857   8.464  14.184   3.129 -0.2490  0.1771  0.1366
 4784W        W20858   4.455   8.703   3.621 -0.0858  0.1592 -0.0311
 4785W        W20859  14.780  11.611   2.574  0.1796 -0.3611  0.0388
 4786W        W20860   9.791   7.246   4.474  0.0568 -0.1071 -0.0366
 4787W        W20861   7.749  13.208   3.665 -0.1873  0.1431 -0.2226
 4788W        W20862  18.560  17.797   1.343 -0.0815  0.2230  0.0347
 4789W        W20863   7.998   0.570   3.159  0.2253  0.2466  0.1271
 4790W        W20864  16.248  15.038  11.718 -0.1620 -0.3847  0.1730
 4791W        W20865  13.728  11.438   3.542  0.1446  0.2310 -0.0306
 4792W        W20866   2.473  10.242  15.040 -0.2027  0.0346 -0.0995
 4793W        W20867   6.876  16.992  14.595 -0.3456  0.1243 -0.0483
 4794W        W20868  13.740  14.616   4.121 -0.3531 -0.0876  0.0553
 4795W        W20869  11.748   4.087  14.722  0.0998  0.0629  0.2149
 4796W        W20870   1.607   0.640   3.212  0.1075  0.2447 -0.0211
 4797W        W20871   3.471   2.694  14.897 -0.0291  0.0843  0.0252
 4798W        W20872  10.093   3.094   2.896 -0.2129 -0.0141 -0.2379
 4799W        W20873   6.376  14.586   1.617  0.0784  0.2782  0.0070
 4800W        W20874   7.621  13.877   1.767  0.0823  0.1892  0.3064
 4801W        W20875  10.211   9.963   5.351 -0.0882  0.0234 -0.1319
 4802W        W20876  18.924  12.205   3.002  0.0967  0.1204  0.0124
 4803W        W20877  12.100  14.798  12.211  0.0312 -0.1075  0.3189
 4804W        W20878   8.892  12.784   6.394  0.1491  0.0468 -0.1758
 4805W        W20879  14.632   8.506   5.054  0.4332 -0.0444  0.2648
 4806W        W20880   9.206  17.378   5.850 -0.0458  0.0152  0.1336
 4807W        W20881  13.252  10.540   1.445 -0.1518 -0.0402  0.0578
 4808W        W20882   7.144  17.385  14.833 -0.1681  0.0590  0.0620
 4809W        W20883   1.409  11.988  11.671 -0.1930 -0.0076  0.2297
 4810W        W20884   6.734  13.340  13.139 -0.0328 -0.2819  0.0583
 4811W        W20885  18.357  18.567   2.350  0.4320 -0.3428 -0.0248
 4812W        W20886   8.532   4.570   0.820  0.1259 -0.1536  0.0445
 4813W        W20887  18.149   6.509  10.601 -0.1913 -0.0510 -0.0250
 4814W        W20888   9.939   8.761  13.669  0.0178 -0.0596 -0.1007
 4815W        W20889  14.955   5.791   0.607  0.0201 -0.1198 -0.1559
 4816W        W20890   1.751  18.315   5.082  0.0644  0.1321  0.3637
 4817W        W20891   0.260   0.129   2.811 -0.1252 -0.2129  0.0502
 4818W        W20892   2.619   3.655  12.902  0.0234  0.0119  0.2192
 4819W        W20893   0.115   9.710  12.079 -0.3522 -0.0741 -0.1496
 4820W        W20894   7.579   5.088   3.962 -0.2259  0.0431 -0.0486
 4821W        W20895   2.494   4.119   1.892 -0.0710  0.0257 -0.0182
 4822W        W20896   6.223   3.320  15.008  0.0243 -0.1124 -0.0084
 4823W        W20897  16.338  14.625   4.276 -0.0389 -0.0605 -0.0056
 4824W        W20898   5.722  10.643   2.062 -0.1938 -0.1437 -0.2770
 4825W        W20899  12.088   5.291   6.238  0.1307  0.3248  0.0198
 4826W        W20900   4.200  14.571   4.027 -0.2276 -0.2933  0.1401
 4827W        W20901  18.147   7.039  10.637 -0.0358 -0.0142  0.0046
 4828W        W20902  14.780   7.845   2.733 -0.0437  0.3286 -0.2188
 4829W        W20903  16.959  16.125   3.420  0.1590  0.0142 -0.1933
 4830W        W20904   4.906   7.283   3.069 -0.1403  0.2007 -0.0745
 4831W        W20905   5.768  13.639   5.283 -0.1035 -0.1246  0.1812
 4832W        W20906   5.750   3.744  13.471  0.2031  0.0952  0.0874
 4833W        W20907   2.221   0.117  10.115 -0.0133  0.2172  0.2357
 4834W        W20908   7.884  13.022   1.835 -0.4141 -0.5656 -0.3383
 4835W        W20909   5.184   1.171   0.347 -0.1190 -0.0072 -0.1706
 4836W        W20910   9.420   5.582  11.381 -0.0479 -0.2292 -0.1402
 4837W        W20911  10.691   6.813   0.573  0.0144  0.2262  0.1545
 4838W        W20912   9.072  11.420  14.120 -0.1757 -0.0911 -0.1150
 4839W        W20913   5.583   3.044  11.921 -0.0762 -0.2200  0.1440
 4840W        W20914   7.616  11.078  12.371 -0.1821  0.0601 -0.2504
 4841W        W20915   2.477  14.191  12.226 -0.3781 -0.0726  0.5015
 4842W        W20916  12.937  18.258  12.358  0.0214  0.5555  0.1627
 4843W        W20917   9.664   9.969  11.896 -0.1181 -0.3905  0.2652
 4844W        W20918   1.430   2.840   3.398 -0.0985  0.0609 -0.1631
 4845W        W20919  16.875  18.261  14.168  0.2331  0.1726 -0.2495
 4846W        W20920   9.039  17.707   4.043 -0.1383  0.2397 -0.0391
 4847W        W20921  16.861   1.861  10.410 -0.0845 -0.3390  0.0504
 4848W        W20922   3.969   1.206  12.357 -0.0508 -0.0828 -0.0235
 4849W        W20923   6.300   3.933  11.919 -0.1796  0.0838 -0.3736
 4850W        W20924  14.995  10.203  12.811  0.3058 -0.2253 -0.2239
 4851W        W20925   8.792  12.828  10.733  0.1749  0.4516  0.2151
 4852W        W20926   0.930  18.825   1.145  0.1361  0.0250  0.1299
 4853W        W20927  12.539  17.083   5.134 -0.0158 -0.3116  0.3466
 4854W        W20928   3.347  11.952   4.150  0.2172 -0.2837 -0.1669
 4855W        W20929   4.031   2.828   4.723  0.2094  0.0754 -0.0761
 4856W        W20930  18.616   3.185  12.803 -0.1424 -0.3229 -0.1966
 4857W        W20931   2.556   3.746   2.867 -0.0372 -0.1569  0.1620
 4858W        W20932  15.048  18.166  13.926  0.0063  0.1312 -0.0764
 4859W        W20933   7.233   3.824   2.629 -0.2208 -0.0663 -0.0884
 4860W        W20934  16.193  18.363   1.871  0.2344  0.1482 -0.2664
 4861W        W20935  17.433   9.544   3.121 -0.0214  0.1715 -0.2512
 4862W        W20936   2.003  12.509  13.999  0.3504 -0.1563  0.0031
 4863W        W20937  15.553  18.003   1.179 -0.2080 -0.0760 -0.3856
 4864W        W20938   6.908   4.994  10.368  0.0614 -0.2779 -0.0446
 4865W        W20939   3.171  19.097  13.405  0.2892  0.1446  0.2642
 4866W        W20940  10.269  12.163   0.988  0.0535 -0.0653 -0.0735
 4867W        W20941   5.921  12.247   9.831 -0.1716 -0.3329 -0.0170
 4868W        W20942   8.261   8.455   3.921  0.1286 -0.0752  0.1137
 4869W        W20943  12.401   4.358   5.132  0.1180  0.1540 -0.1119
 4870W        W20944  18.847  15.831   2.401  0.1824 -0.1863  0.0523
 4871W        W20945  12.912   0.142   3.352 -0.0357  0.0922  0.4520
 4872W        W20946  15.116  10.485  13.830  0.0329 -0.1170 -0.0449
 4873W        W20947   3.564  11.453   3.394 -0.3367  0.0843 -0.1275
 4874W        W20948  12.070   6.225  12.536  0.5280 -0.1007 -0.0361
 4875W        W20949   7.987   3.375   2.274 -0.0074 -0.1936 -0.1628
 4876W        W20950  10.040  16.419   1.823  0.0361  0.0798 -0.1210
 4877W        W20951  14.015  14.278  13.987  0.2043 -0.1220 -0.2199
 4878W        W20952  16.720   0.003   2.727 -0.0068  0.2933  0.0625
 4879W        W20953  10.160  15.636  13.791 -0.1958 -0.3776 -0.2768
 4880W        W20954   4.110   1.668   5.847  0.3123 -0.0735 -0.0402
 4881W        W20955   1.986  19.268  15.057  0.2775 -0.0210 -0.4133
 4882W        W20956   5.309   9.698  14.874 -0.0401  0.0122  0.1057
 4883W        W20957  14.335  11.628  11.105 -0.3854 -0.0038 -0.3138
 4884W        W20958  16.359  15.504   2.779  0.0146 -0.1478  0.1125
 4885W        W20959   1.841  18.130  10.342 -0.1144  0.0328 -0.1812
 4886W        W20960  10.118   5.043   2.637  0.1734  0.1556  0.0218
 4887W        W20961  18.804  13.363  12.931 -0.0110 -0.0117  0.1935
 4888W        W20962   5.842   3.130   2.597  0.2022  0.0421 -0.2339
 4889W        W20963  15.403  18.097   4.068 -0.2620 -0.0227 -0.2031
 4890W        W20964   7.421   3.226   3.132 -0.1376 -0.0219  0.2125
 4891W        W20965  11.670   9.071   4.943 -0.0674  0.0857 -0.0017
 4892W        W20966  13.213  18.878  10.231  0.2391  0.1781  0.3899
 4893W        W20967  11.547  12.520   0.063  0.1736  0.0688 -0.0637
 4894W        W20968   1.584   0.562   4.342 -0.1046 -0.0828  0.2016
 4895W        W20969  10.711  14.050  10.854 -0.0908 -0.0067 -0.0547
 4896W        W20970   5.645   0.334   1.909 -0.3140 -0.0021 -0.0063
 4897W        W20971   3.326   2.955  13.268  0.2493  0.0189 -0.0130
 4898W        W20972  15.605   9.907   3.485  0.3486  0.0630  0.3056
 4899W        W20973   1.116  18.320  11.387  0.2949 -0.3662 -0.0622
 4900W        W20974   8.255   6.411  14.495  0.1217 -0.0228  0.2220
 4901W        W20975   5.397  10.055  11.548  0.5382 -0.0337 -0.0357
 4902W        W20976   9.616   0.810  14.160 -0.1988 -0.2767  0.0295
 4903W        W20977   1.932  18.710   4.720 -0.2365 -0.0436 -0.1904
 4904W        W20978  14.097  11.197  10.362  0.0901  0.1448 -0.1114
 4905W        W20979   3.518  11.868  13.789 -0.3198 -0.2266 -0.1036
 4906W        W20980   5.715   6.489  13.015 -0.0192 -0.2627 -0.0297
 4907W        W20981   8.952  16.625  10.592  0.0577  0.1804  0.0045
 4908W        W20982   0.670  17.397   2.468 -0.0032 -0.0943 -0.1366
 4909W        W20983   1.559  13.772   9.704 -0.2206  0.1351  0.1037
 4910W        W20984   7.194  13.882  14.614 -0.1486  0.0994 -0.1046
 4911W        W20985  13.314  11.083  11.323  0.3215  0.4008  0.4996
 4912W        W20986  15.871  16.595   0.377 -0.0093  0.0734  0.0919
 4913W        W20987   9.477  18.514   4.010 -0.3415 -0.2315 -0.1135
 4914W        W20988   2.914  13.896  10.255  0.1960 -0.1968  0.1205
 4915W        W20989  15.333   4.547  11.513  0.3239 -0.1940 -0.1005
 4916W        W20990   1.847  13.868   2.856 -0.0367 -0.1123 -0.0625
 4917W        W20991   4.771   8.516  13.496  0.1740 -0.0799  0.0099
 4918W        W20992   5.855  18.926   2.520 -0.0113  0.2788 -0.1272
 4919W        W20993  10.467  18.869  12.848  0.0972 -0.1012 -0.0704
 4920W        W20994   9.383   0.884   4.426  0.1281  0.3594 -0.0155
 4921W        W20995   5.200  11.928   2.920 -0.0364  0.2449  0.2602
 4922W        W20996   1.690  18.999   4.012 -0.0157 -0.1859  0.0709
 4923W        W20997   6.702  15.202   2.060  0.0168 -0.2250 -0.1736
 4924W        W20998  18.099   3.594   1.115 -0.1322  0.4021 -0.2704
 4925W        W20999   9.274   9.393   1.193 -0.1021  0.1442 -0.0835
 4926W        W21000  11.940  11.687   1.692 -0.0083  0.1638 -0.1795
 4927W        W21001   8.394   3.196   2.613 -0.2316 -0.0845  0.1439
 4928W        W21002   8.635   8.622  14.275 -0.1664  0.3928 -0.2076
 4929W        W21003  14.697  15.616   1.015  0.0699  0.4371  0.2422
 4930W        W21004   2.303  16.144   0.003 -0.1174  0.4118  0.0521
 4931W        W21005   6.919   3.352   9.781  0.0957 -0.0268 -0.3915
 4932W        W21006  18.892   9.714  13.600 -0.2219 -0.3947  0.0229
 4933W        W21007  13.843  13.045  11.936 -0.2657  0.0903 -0.0234
 4934W        W21008  16.514   5.991  12.942 -0.0801 -0.2698 -0.2169
 4935W        W21009  13.108  15.487  14.156 -0.0889  0.0761 -0.3414
 4936W        W21010   5.878   4.951   4.511  0.0461 -0.0463  0.1486
 4937W        W21011  16.727   4.104  14.342  0.0711  0.1732 -0.0477
 4938W        W21012   5.157   6.942   1.094  0.2896 -0.0937  0.0352
 4939W        W21013   1.637  18.986   0.274 -0.3011  0.1425 -0.2979
 4940W        W21014   2.058  15.094   4.616  0.2205 -0.2960  0.0733
 4941W        W21015  18.961  12.993  12.489 -0.2340 -0.1356  0.0269
 4942W        W21016   5.211   6.355  12.701  0.0081  0.1871 -0.0576
 4943W        W21017  15.074   0.376  10.918  0.1064  0.1471  0.0784
 4944W        W21018  13.774  19.100  14.621  0.1925 -0.1357  0.1442
 4945W        W21019  10.419  13.645   3.522  0.4155 -0.2857  0.0666
 4946W        W21020   6.653  16.968   4.409  0.0181 -0.0709  0.0691
 4947W        W21021   6.029   4.570   4.862 -0.3073 -0.0233  0.1174
 4948W        W21022   5.699  15.043   2.244  0.0735  0.1188  0.0724
 4949W        W21023  14.332   5.691  13.673 -0.0866 -0.2038 -0.2050
 4950W        W21024   3.570  10.143   2.695  0.2559 -0.0984  0.0563
 4951W        W21025   2.503   7.187   9.901 -0.2322  0.2801  0.2945
 4952W        W21026   6.837   1.228   0.723  0.1441 -0.3364  0.0269
 4953W        W21027   0.938  10.349  14.262  0.2996 -0.0924  0.1397
 4954W        W21028   4.826   7.949  14.731 -0.0167 -0.0882 -0.2213
 4955W        W21029   5.374  17.668  11.645 -0.1146  0.2281 -0.2411
 4956W        W21030  18.149  18.362  10.715  0.4665  0.3814  0.1658
 4957W        W21031  18.752  14.330  13.783 -0.1333  0.2937 -0.2262
 4958W        W21032  17.404  12.303  13.854  0.2652 -0.0629 -0.2435
 4959W        W21033  18.420  14.309  13.395 -0.1193 -0.0475  0.0078
 4960W        W21034  10.460  12.122   5.884  0.0173  0.1867  0.3017
 4961W        W21035   5.083   9.909  13.641 -0.1298  0.0441  0.1485
 4962W        W21036  16.626  15.732   3.664  0.1060  0.1268 -0.3312
 4963W        W21037   3.798   1.531  14.036 -0.1779  0.1000  0.1740
 4964W        W21038   7.269   9.177   1.747  0.2168 -0.0925  0.1562
 4965W        W21039  10.187  15.663  11.238 -0.4050 -0.1211 -0.2427
 4966W        W21040  18.291  17.836   9.888 -0.1998  0.2671 -0.4943
 4967W        W21041   1.695   4.329   1.548 -0.3152  0.1961 -0.2406
 4968W        W21042  12.004   0.871   4.188  0.1240  0.0422 -0.0869
 4969W        W21043   6.104   9.263   0.204  0.0502 -0.2985 -0.0210
 4970W        W21044   5.384   6.706  14.764  0.0407 -0.3351  0.1735
 4971W        W21045  15.411  16.033   3.021 -0.0719 -0.0034  0.0420
 4972W        W21046   0.124  11.994  11.691  0.1951 -0.0526 -0.0022
 4973W        W21047  14.660  19.051  13.629 -0.0822 -0.1015  0.0009
 4974W        W21048   3.982  18.460   3.059  0.0031  0.1566 -0.0576
 4975W        W21049  16.345  13.750  10.438 -0.1591  0.3713 -0.1751
 4976W        W21050  12.668  18.896  10.465  0.1915  0.2263 -0.1625
 4977W        W21051   8.401   4.619   2.146 -0.2459  0.2511 -0.0063
 4978W        W21052  12.846   8.354   1.354 -0.0906  0.0705 -0.1106
 4979W        W21053  18.774   0.079  12.522 -0.1817 -0.1723 -0.0766
 4980W        W21054   9.348  10.994   0.819 -0.0860 -0.4543 -0.0543
 4981W        W21055   9.057   2.293   3.393  0.1179 -0.3009 -0.1888
 4982W        W21056   7.656   9.410   2.469 -0.2922 -0.3692 -0.0722
 4983W        W21057  18.211  14.037   2.956  0.0379 -0.0865 -0.0050
 4984W        W21058   5.681   0.485   4.094  0.1309 -0.2565  0.1088
 4985W        W21059   9.921  12.049  11.428  0.2626 -0.3851 -0.3290
 4986W        W21060  11.565   9.074   2.835 -0.0388 -0.1049 -0.0029
 4987W        W21061  18.672  18.133   0.353 -0.1745  0.0540  0.1991
 4988W        W21062  10.900  13.849   4.799 -0.1067 -0.3216  0.0826
 4989W        W21063   7.203   7.533  11.817 -0.2370 -0.3610  0.1282
 4990W        W21064   2.533   3.508   4.467 -0.3274  0.0296 -0.3393
 4991W        W21065  17.492  18.320  11.907  0.0921 -0.0535 -0.1511
 4992W        W21066  18.295   0.594  14.976  0.0349  0.0590 -0.1501
 4993W        W21067   0.781   0.707   4.896 -0.0424 -0.1528  0.1165
 4994W        W21068   2.824   9.418  10.538  0.6560 -0.0518 -0.0256
 4995W        W21069   5.502   2.546   5.712  0.0572  0.2178  0.2032
 4996W        W21070   5.579  11.212   4.001  0.1095  0.0724  0.3487
 4997W        W21071   8.980   9.773   1.367 -0.0026  0.0074 -0.0107
 4998W        W21072  18.635  19.286   2.715  0.0737 -0.0809  0.3381
 4999W        W21073  14.119  17.362  12.993 -0.0815 -0.0667 -0.2333
 5000W        W21074   3.958   8.908   1.903 -0.2831 -0.1243 -0.1797
 5001W        W21075   9.217   7.593  13.193  0.1874  0.0061 -0.2016
 5002W        W21076  13.278   3.931   3.930  0.3649 -0.0900 -0.0304
 5003W        W21077  17.518   3.517  14.062 -0.0688 -0.1443 -0.1977
 5004W        W21078   0.091  14.913  14.718  0.1021  0.0038 -0.2258
 5005W        W21079  14.944   3.977   0.964 -0.0150  0.0670 -0.1726
 5006W        W21080   9.883  17.639   5.768  0.0136 -0.0330 -0.0983
 5007W        W21081  10.722  16.819   4.685 -0.1387  0.1522 -0.3116
 5008W        W21082  18.377   5.740   0.084  0.2257  0.0383  0.1793
 5009W        W21083   1.869  18.376  14.564  0.1824 -0.4046 -0.0208
 5010W        W21084  13.255   7.133   2.321 -0.1651  0.2113 -0.0924
 5011W        W21085  18.562   8.027   5.248  0.0367  0.0417  0.0522
 5012W        W21086  12.590   5.433  14.402  0.1135  0.3285 -0.4663
 5013W        W21087   0.676   7.596   3.422 -0.1147 -0.3412  0.1512
 5014W        W21088   6.733  15.281  12.893 -0.2561 -0.1721 -0.0114
 5015W        W21089  10.369   9.758   6.579 -0.1786  0.0876  0.4145
 5016W        W21090  13.816  17.910   4.045  0.0152 -0.1313 -0.6169
 5017W        W21091   0.387   8.843   3.858  0.2647 -0.1391  0.0262
 5018W        W21092   6.382   9.919  14.140  0.1341  0.2960 -0.3682
 5019W        W21093  18.894   3.073   9.877 -0.4506 -0.0416  0.4416
 5020W        W21094  10.636  13.687   0.653 -0.0495  0.2455 -0.0874
 5021W        W21095   3.508  18.259  10.219  0.0808  0.1626  0.0318
 5022W        W21096  12.596   7.688   1.885  0.1060 -0.2127  0.1110
 5023W        W21097  10.569  14.337   3.680 -0.4619 -0.3499 -0.1925
 5024W        W21098   3.772   0.040   0.111  0.3329  0.1937  0.0208
 5025W        W21099  16.942  17.497  14.028  0.3221 -0.0888 -0.1849
 5026W        W21100   5.156  18.135  13.990  0.1993 -0.2802 -0.0916
 5027W        W21101   9.387  14.388   3.389  0.0106  0.1338 -0.0812
 5028W        W21102  10.367  17.116   0.180 -0.1288  0.1033  0.0678
 5029W        W21103  18.613  18.276  13.703 -0.0860  0.1105 -0.2513
 5030W        W21104   2.263  16.494  12.595  0.1132 -0.1065 -0.1011
 5031W        W21105   1.360  15.709   2.619 -0.2509  0.3972 -0.1461
 5032W        W21106   2.894   9.627  12.500  0.2862  0.0324 -0.1765
 5033W        W21107  17.902   5.161   4.068 -0.0909 -0.0635  0.1516
 5034W        W21108  18.274   0.753   1.722 -0.0361 -0.1485  0.0217
 5035W        W21109  14.914  11.603  12.117 -0.0553 -0.3383  0.1571
 5036W        W21110   1.495   0.158  13.522  0.0115  0.1418  0.1316
 5037W        W21111  16.797  18.378   4.412  0.1881  0.2239  0.0514
 5038W        W21112  17.983  16.890  12.898  0.2863 -0.3158 -0.2423
 5039W        W21113   4.951  18.758   1.906 -0.0932  0.1874  0.0049
 5040W        W21114  17.552   7.931   9.517 -0.5158 -0.0647 -0.1552
 5041W        W21115  18.317  18.513  11.226  0.1672 -0.0885  0.0576
 5042W        W21116  19.246   3.988   2.220 -0.3636  0.2737  0.1379
 5043W        W21117  16.526  13.228   4.403  0.0419 -0.1455 -0.1199
 5044W        W21118   4.537  17.316  14.906 -0.0442 -0.1648 -0.0434
 5045W        W21119   2.000   3.725  11.387  0.3239  0.1948 -0.1003
 5046W        W21120  18.467   8.385  12.628  0.4558 -0.0145  0.0478
 5047W        W21121   5.326   0.183  14.746 -0.0192  0.3021 -0.0700
 5048W        W21122   2.898  10.772   1.221  0.0239 -0.0742 -0.3011
 5049W        W21123   2.327   7.285   1.291  0.2351  0.1024 -0.3097
 5050W        W21124  15.323   7.009   0.454 -0.4282 -0.2006 -0.0565
 5051W        W21125   0.582   8.786  10.347 -0.0826 -0.1556 -0.0776
 5052W        W21126  10.801  13.241  14.056 -0.4195  0.2545  0.0774
 5053W        W21127   1.823   3.305   4.511  0.2139 -0.0118  0.3065
 5054W        W21128   9.951  14.190   2.215  0.0472  0.4325 -0.4240
 5055W        W21129  12.341   1.007  14.246 -0.1694  0.0665  0.1272
 5056W        W21130  17.291   5.965  12.322  0.1811  0.4440 -0.1780
 5057W        W21131   2.069  11.388   3.986 -0.0056  0.1739 -0.0031
 5058W        W21132  18.955  14.838  10.541 -0.0593  0.1537  0.1885
 5059W        W21133   5.205   3.402  11.830  0.1437  0.2746 -0.1586
 5060W        W21134   9.665   5.657   2.126  0.0939 -0.1349 -0.3639
 5061W        W21135   4.452  18.063  12.285 -0.2112  0.0384  0.0407
 5062W        W21136  11.611   9.558  10.979  0.3365  0.0462 -0.0019
 5063W        W21137  12.128  18.078   9.378  0.2086 -0.1668 -0.0394
 5064W        W21138   3.470  13.822  12.137  0.0977  0.1148 -0.4976
 5065W        W21139  11.641   3.127   2.638  0.0358  0.0684 -0.2208
 5066W        W21140   4.383  13.542   1.434  0.1797 -0.2755 -0.0432
 5067W        W21141   1.847   4.643  11.482 -0.1332  0.1250  0.2268
 5068W        W21142  18.738   9.264   2.734  0.0378  0.1297 -0.0646
 5069W        W21143  13.290  16.631  10.129 -0.1316 -0.0075 -0.1799
 5070W        W21144   7.194  16.209  14.714  0.2368 -0.0089  0.0045
 5071W        W21145   9.786  10.916  14.393  0.0615  0.0592  0.0180
 5072W        W21146   2.300   4.549  14.990 -0.1660 -0.3504 -0.2949
 5073W        W21147   7.875   7.647   1.527  0.3403  0.1282  0.0652
 5074W        W21148   8.097   8.004   1.247 -0.2365  0.0187  0.2381
 5075W        W21149   6.143  14.882   2.553 -0.0838  0.0906 -0.1948
 5076W        W21150   5.433   7.388   2.504  0.1695 -0.0028 -0.1682
 5077W        W21151   9.984  10.642   4.847 -0.0531  0.1577  0.4063
 5078W        W21152   5.719   6.555  11.653 -0.2141  0.0285  0.0581
 5079W        W21153   5.536   4.850  14.290 -0.0508 -0.3846  0.0530
 5080W        W21154  15.205  12.436   2.897  0.0884  0.2784 -0.0173
 5081W        W21155   8.955   1.735   2.320 -0.2280  0.2413 -0.0151
 5082W        W21156  10.611   7.200   1.694 -0.2808 -0.5868  0.1010
 5083W        W21157   9.610   2.213  12.687  0.2791 -0.0551  0.2887
 5084W        W21158  12.950   1.519  13.450  0.1375  0.0492  0.0230
 5085W        W21159   6.990   0.707   3.509 -0.0564  0.0807  0.0415
 5086W        W21160   7.014   0.872   1.910 -0.1068 -0.1458  0.1518
 5087W        W21161   1.489  11.641   0.880  0.2831  0.0667 -0.1614
 5088W        W21162   3.069   1.949  12.122  0.2730  0.0860  0.1868
 5089W        W21163  11.431  12.273   4.569 -0.1003  0.1449 -0.1250
 5090W        W21164  18.589  16.726  14.844 -0.1233  0.1895 -0.0343
 5091W        W21165  17.705   7.210  14.987 -0.0064  0.2177  0.2841
 5092W        W21166  16.444   6.292  11.073 -0.1014 -0.0923 -0.1089
 5093W        W21167  13.068  15.516   1.276  0.1150  0.0519 -0.1323
 5094W        W21168  13.051  14.926  14.163  0.2298 -0.2191 -0.1900
 5095W        W21169   1.497  17.959   2.309  0.0681 -0.0450 -0.3514
 5096W        W21170   5.352  12.314   0.519  0.1009 -0.2410  0.0596
 5097W        W21171   2.638  11.010  13.138  0.1628  0.2219  0.2439
 5098W        W21172  15.558  16.938  13.312 -0.0068  0.3285 -0.1133
 5099W        W21173  18.738   5.151   5.723 -0.1572  0.0370  0.2390
 5100W        W21174   3.579  17.281   4.242 -0.3474  0.0489 -0.0335
 5101W        W21175   2.969   0.263  10.713  0.1827 -0.1388  0.1154
 5102W        W21176   6.985   9.970  13.564  0.0494  0.0575  0.0032
 5103W        W21177  16.541   7.561  13.853 -0.0953 -0.1720  0.2611
 5104W        W21178  16.541  16.962   1.853 -0.0319  0.3495  0.0749
 5105W        W21179   7.909  14.248  10.839 -0.2613 -0.0219  0.0324
 5106W        W21180  14.352  18.434   3.288  0.4187 -0.1155 -0.3247
 5107W        W21181  12.539   6.525   0.231 -0.1393  0.1594 -0.1369
 5108W        W21182  18.405   8.183  12.200 -0.3355 -0.1710 -0.0584
 5109W        W21183   2.659   2.096  11.400 -0.3139  0.1219  0.0414
 5110W        W21184   0.567   2.054  14.506  0.1549  0.1219 -0.4979
 5111W        W21185  13.085  15.352   2.861 -0.0544 -0.0473 -0.4869
 5112W        W21186  15.430   0.556   3.261  0.1288 -0.1550 -0.0092
 5113W        W21187   2.130   1.987  12.272 -0.1602  0.0867  0.3466
 5114W        W21188  11.010   5.662  11.673  0.3516  0.2186 -0.0684
 5115W        W21189   4.048  10.225  12.854  0.1305  0.0360 -0.2298
 5116W        W21190   5.278  19.139   2.819 -0.0723  0.0169 -0.2086
 5117W        W21191  14.487   2.367   4.520 -0.2499 -0.0675  0.0710
 5118W        W21192   2.773   3.079  13.003 -0.2066  0.0857  0.1644
 5119W        W21193   2.455   3.571   0.342  0.2154 -0.1965 -0.1700
 5120W        W21194   5.218   2.711   1.633 -0.1315 -0.2520 -0.2133
 5121W        W21195  13.321   1.355  14.317  0.3506 -0.0238  0.1881
 5122W        W21196  11.842   0.707   5.175 -0.1913 -0.1227  0.0097
 5123W        W21197   8.795   6.859   5.482  0.0576 -0.3495 -0.3925
 5124W        W21198  16.383   4.478  14.005 -0.0443  0.3467  0.2613
 5125W        W21199  18.182   8.461  10.972 -0.1350 -0.0914 -0.3316
 5126W        W21200  16.695  14.105  13.942 -0.2208  0.0605  0.3689
 5127W        W21201  14.430  15.786   1.529  0.1906  0.1881  0.0326
 5128W        W21202   8.712  12.299  11.832 -0.0172  0.1178  0.0628
 5129W        W21203  15.507  16.411   3.576  0.0225 -0.0670 -0.1135
 5130W        W21204   6.184   2.230   5.988  0.1855 -0.1036 -0.0792
 5131W        W21205   4.512   7.818   2.419 -0.3689  0.2489  0.1095
 5132W        W21206   4.485   3.995  13.785 -0.1108  0.1233  0.2610
 5133W        W21207   3.985   6.239  11.355 -0.0578  0.2105 -0.2606
 5134W        W21208   1.253  12.855  10.370 -0.0185  0.0219 -0.2047
 5135W        W21209   2.319   9.014   0.125  0.0467 -0.0283  0.3085
 5136W        W21210  10.323  13.278  11.031  0.0129 -0.0990 -0.1639
 5137W        W21211  12.600  17.406  12.982 -0.1895  0.2452  0.1707
 5138W        W21212  12.563  11.509   0.746 -0.2623 -0.1651 -0.0879
 5139W        W21213   5.005   9.293   5.279  0.2223 -0.1041 -0.0596
 5140W        W21214   1.206  14.004   1.079 -0.1386 -0.1529  0.3999
 5141W        W21215   0.711   5.715  13.547 -0.0393 -0.0382  0.2420
 5142W        W21216  10.953   2.134  11.003 -0.1704  0.0975 -0.1425
 5143W        W21217  16.625   0.882   2.284 -0.3358 -0.0139  0.1166
 5144W        W21218  11.500   0.421   2.159 -0.1662  0.1004  0.0506
 5145W        W21219   6.497   8.249  13.157  0.2206 -0.0653  0.1392
 5146W        W21220  12.892   4.051   1.221 -0.0672  0.0740  0.0365
 5147W        W21221   5.263   5.899   1.929  0.2755 -0.2020  0.0071
 5148W        W21222  17.547  17.542   1.170 -0.1844  0.3274  0.0665
 5149W        W21223   9.511   2.705  12.847  0.3298 -0.4651  0.2963
 5150W        W21224   2.719  18.328   2.114 -0.2421  0.0196  0.1267
 5151W        W21225  11.568   0.970   1.221 -0.1370  0.1191 -0.2351
 5152W        W21226  17.439   3.034   0.771 -0.0610 -0.1659  0.1259
 5153W        W21227  15.864   8.735   2.776  0.1104 -0.0257 -0.2434
 5154W        W21228   2.057   0.515   1.912 -0.0652 -0.1104  0.1195
 5155W        W21229   9.060  15.344   3.654  0.0801 -0.0099  0.1565
 5156W        W21230   3.030   7.452  14.657  0.2246  0.0602 -0.0891
 5157W        W21231   5.451  17.363   0.740 -0.1360  0.1432 -0.3089
 5158W        W21232   1.614   9.151   1.849 -0.1313  0.1117 -0.3859
 5159W        W21233  14.400  17.414  10.783  0.0259 -0.1214 -0.2313
 5160W        W21234  16.433  15.133   4.330 -0.0292  0.1743 -0.1856
 5161W        W21235   8.976  16.742   1.532  0.5409 -0.2279  0.1064
 5162W        W21236   1.053   6.580   0.518  0.0809  0.1423 -0.1146
 5163W        W21237   9.275  18.395   9.525  0.0105 -0.0548  0.0427
 5164W        W21238   8.971   8.220   0.000 -0.0879  0.3749  0.2227
 5165W        W21239  14.847  18.749   2.835 -0.2443  0.3105 -0.1448
 5166W        W21240  15.494  10.891  11.097  0.0829 -0.0124 -0.2743
 5167W        W21241  15.353  16.841   1.415 -0.0623  0.4106 -0.0910
 5168W        W21242   4.787   7.268  11.852 -0.2300  0.2161 -0.7123
 5169W        W21243  16.510  12.191  13.521  0.2177  0.0492  0.1028
 5170W        W21244  17.789  11.197   0.566  0.0063 -0.2590 -0.2044
 5171W        W21245   3.818  14.029   5.079  0.2831  0.1679  0.4009
 5172W        W21246   0.903   1.938  10.422  0.1125 -0.1032  0.3336
 5173W        W21247   7.816   3.750  10.097  0.6951 -0.0043  0.0204
 5174W        W21248  18.862  17.655  14.716  0.0905 -0.0383 -0.4637
 5175W        W21249  11.937   9.423   0.507 -0.0181  0.4987  0.3309
 5176W        W21250  14.203  13.888  11.920 -0.4620 -0.1865 -0.0023
 5177W        W21251  14.187   2.702   0.325  0.0098  0.1279  0.1434
 5178W        W21252   4.778  12.135  10.807  0.1274 -0.1233 -0.1804
 5179W        W21253  12.680  16.020  11.836  0.1574  0.1292 -0.0908
 5180W        W21254  15.886   5.993   6.075 -0.0365  0.0560 -0.0631
 5181W        W21255   6.375  16.594  14.560  0.1460 -0.2145  0.1374
 5182W        W21256   0.548   4.593  11.118 -0.0421 -0.0796 -0.0604
 5183W        W21257   7.533  13.652  12.297  0.1183 -0.1215 -0.1786
 5184W        W21258  12.694  11.944   2.359  0.0506 -0.0979  0.3536
 5185W        W21259   1.631   2.791   5.501  0.1607  0.0519  0.2157
 5186W        W21260   3.476   4.697   3.677 -0.0577  0.0302  0.3850
 5187W        W21261   7.151  14.787  11.428 -0.0101 -0.3769 -0.1070
 5188W        W21262   3.893  10.881   0.225  0.0534  0.3456  0.0884
 5189W        W21263   0.942  12.937   0.610  0.1276  0.2740  0.1258
 5190W        W21264  10.814   9.635   3.239 -0.0074 -0.0856  0.0993
 5191W        W21265  15.197   5.963   2.795  0.1349 -0.0404 -0.1341
 5192W        W21266  13.069  17.795  12.094 -0.0152  0.4186  0.4256
 5193W        W21267   7.850  17.657   3.898 -0.2950 -0.1981 -0.4147
 5194W        W21268  10.190  17.427  14.463 -0.1693  0.2540  0.1026
 5195W        W21269   6.297   6.249  14.365 -0.1995 -0.3627  0.1861
 5196W        W21270  10.436   9.633   2.329  0.0261  0.0789  0.1313
 5197W        W21271  14.455  16.372   0.213  0.3483  0.1541  0.2707
 5198W        W21272   0.194  10.451  11.660 -0.2605 -0.1630 -0.3206
 5199W        W21273   4.014  14.019  12.262  0.1223  0.0280 -0.0247
 5200W        W21274  12.998  10.595  13.726 -0.0693  0.4248  0.1864
 5201W        W21275  14.905  18.340   0.911  0.1049 -0.2721 -0.0306
 5202W        W21276  15.510  12.267  13.625 -0.3839 -0.0122  0.1735
 5203W        W21277  12.318   1.773   2.913  0.0509  0.2189  0.0070
 5204W        W21278  15.277  12.365   1.955 -0.0601  0.1656 -0.2378
 5205W        W21279  15.479   8.165   3.108  0.1466  0.1401  0.2203
 5206W        W21280   2.314  17.653   0.026  0.1496 -0.1578  0.0359
 5207W        W21281   2.496   0.049   4.115  0.0185  0.2723  0.2053
 5208W        W21282   6.725  19.257   4.856 -0.3206  0.0591  0.2082
 5209W        W21283   5.400   0.074   3.932 -0.0925  0.0194 -0.4119
 5210W        W21284  15.090  17.226  10.148  0.0349 -0.2654 -0.4162
 5211W        W21285  17.189  12.059   1.634 -0.2190  0.4272  0.0864
 5212W        W21286   2.112   6.517   2.707  0.0082 -0.4801 -0.3353
 5213W        W21287   4.062  11.939   5.448 -0.3583 -0.0321 -0.1540
 5214W        W21288  19.045  12.725  12.066 -0.3179  0.1913  0.1781
 5215W        W21289  18.341  12.091  10.797  0.3284  0.1797  0.0278
 5216W        W21290   2.661  14.733  14.555  0.1094  0.3733 -0.1083
 5217W        W21291   8.877   9.350   4.002 -0.2139 -0.1045  0.1703
 5218W        W21292   0.806  13.532   2.246  0.2257 -0.1690  0.0189
 5219W        W21293  11.336  13.408   2.173  0.1660  0.0304 -0.1734
 5220W        W21294   7.741  18.201   5.025 -0.4573  0.1999  0.0314
 5221W        W21295  15.744   9.527   1.077  0.1612  0.2244  0.1221
 5222W        W21296  14.771   8.179  13.942  0.1092  0.1841  0.0445
 5223W        W21297  10.516   8.660   2.104 -0.3720 -0.2254 -0.1419
 5224W        W21298  13.699   8.956  11.962 -0.1312 -0.3468  0.3177
 5225W        W21299   8.946  11.351   0.746 -0.2433  0.1572  0.0578
 5226W        W21300  13.991  14.677   0.744 -0.4297  0.1825  0.1827
 5227W        W21301   1.615   7.176  12.221  0.1983  0.0636  0.2058
 5228W        W21302  14.758   6.278   2.123  0.2071  0.0828 -0.0552
 5229W        W21303   0.617   6.779   2.570  0.1780  0.2706  0.2138
 5230W        W21304  12.076   0.480   0.836 -0.0843  0.0939 -0.2739
 5231W        W21305  12.587  18.344   0.092 -0.1299 -0.1994 -0.1937
 5232W        W21306   3.389   6.954  12.530 -0.0497  0.0967  0.1929
 5233W        W21307   7.567   1.998   4.047  0.2419  0.4326 -0.2618
 5234W        W21308   6.570  10.399   0.510 -0.2454 -0.0252 -0.2336
 5235W        W21309   1.874   4.265   4.155 -0.1619  0.0026 -0.0774
 5236W        W21310   1.241   2.603   1.199  0.0063  0.3314 -0.0110
 5237W        W21311   1.986  16.537   0.294 -0.0220 -0.2710  0.1274
 5238W        W21312   2.057   6.908  11.336  0.0555  0.2303  0.0032
 5239W        W21313  15.484  16.898   3.901  0.0322 -0.0174  0.2757
 5240W        W21314  15.429   6.040  10.632  0.1866  0.1866  0.1903
 5241W        W21315   3.074   7.726   0.049  0.2842  0.3121  0.1054
 5242W        W21316  10.454   8.124  14.176  0.0557  0.3277 -0.0606
 5243W        W21317  13.621  18.337   4.432 -0.1056  0.0460  0.2712
 5244W        W21318  13.666   1.242   5.209  0.1346 -0.0683 -0.0439
 5245W        W21319   2.061   7.638   2.694  0.1294  0.2210 -0.0471
 5246W        W21320  10.813  18.501  10.672  0.0895 -0.2202  0.3623
 5247W        W21321  11.462   6.651  12.256 -0.0018 -0.2639  0.1493
 5248W        W21322  18.513  14.640  10.583 -0.1617  0.1610  0.1224
 5249W        W21323  14.345   5.058   4.726 -0.1711  0.1234 -0.2286
 5250W        W21324  17.405   0.100   4.018  0.2765  0.3264 -0.2410
 5251W        W21325   2.154   2.147  10.720 -0.0865 -0.2572  0.1429
 5252W        W21326   2.488   7.134  12.766  0.0484 -0.1300 -0.2866
 5253W        W21327  13.657   6.045  11.229 -0.1542  0.4642  0.0822
 5254W        W21328   3.830  14.104  14.865  0.0276 -0.0002 -0.1617
 5255W        W21329  15.404   1.898   3.958  0.1628  0.1740  0.1324
 5256W        W21330   5.316   0.466   2.308 -0.2276  0.0399  0.0366
 5257W        W21331  17.756  11.818  12.135 -0.1867  0.2270 -0.0096
 5258W        W21332   0.742   7.896  12.715  0.1718  0.0032  0.3691
 5259W        W21333   7.940  14.978   4.754  0.0105 -0.2166  0.1011
 5260W        W21334   2.772   5.355  13.259  0.3372  0.1613 -0.2204
 5261W        W21335   7.607  12.655  11.366  0.2957 -0.0946 -0.1209
 5262W        W21336  10.201  16.948   4.508 -0.2761 -0.0120 -0.0048
 5263W        W21337   2.015   5.072   2.950  0.2317  0.1622 -0.1773
 5264W        W21338  14.727  14.414  11.397  0.1627 -0.2696  0.2347
 5265W        W21339  17.995  18.180   3.762  0.2335  0.0403 -0.0106
 5266W        W21340  14.479  10.854  10.420 -0.0557  0.3899 -0.0795
 5267W        W21341  12.092  16.714  10.996 -0.1854 -0.0655  0.3355
 5268W        W21342  10.033   0.313   1.633 -0.0455  0.1577  0.0711
 5269W        W21343  16.511  16.782  11.743  0.0081 -0.0100 -0.3021
 5270W        W21344   1.052   5.653  14.806  0.0308 -0.3301  0.1991
 5271W        W21345   0.649  17.537  15.021 -0.0070  0.1387 -0.2082
 5272W        W21346   6.764  10.057  12.439  0.1781  0.0285  0.0994
 5273W        W21347   7.099   5.452   2.212  0.0630  0.0519 -0.1144
 5274W        W21348  18.929  12.891  14.557  0.2421  0.0415  0.1549
 5275W        W21349   3.597   9.004  12.386  0.1292 -0.0693 -0.1777
 5276W        W21350   4.426  10.043  11.277  0.0087  0.0253  0.0826
 5277W        W21351   7.693  13.490   0.631 -0.0997 -0.0024  0.1237
 5278W        W21352  16.106   3.722  13.582 -0.1422  0.1696  0.0169
 5279W        W21353   8.529  18.568  12.337 -0.1494  0.0447  0.2645
 5280W        W21354   8.183   3.936   4.789  0.2127  0.2331 -0.2090
 5281W        W21355  17.254  17.561   5.065  0.4028  0.2214  0.0580
 5282W        W21356   9.439  16.159   4.252  0.0565 -0.4132 -0.3707
 5283W        W21357  10.701  14.013   1.673  0.2190 -0.1939  0.1548
 5284W        W21358  12.510   2.635   2.663  0.0666 -0.0053  0.0524
 5285W        W21359  12.402   0.004   3.463 -0.1998 -0.3495  0.1288
 5286W        W21360  15.357  19.057  14.874  0.0946  0.2555 -0.1570
 5287W        W21361   7.724   9.426  11.629  0.3093 -0.1990  0.0748
 5288W        W21362   9.635  18.899  10.518  0.1396  0.2178 -0.1027
 5289W        W21363   1.147  10.660  10.321 -0.2381  0.0248  0.0861
 5290W        W21364   9.220  12.232  14.593  0.1614 -0.0898  0.2896
 5291W        W21365   6.517   6.741  12.068 -0.1971 -0.1487  0.0794
 5292W        W21366   4.567   5.902  12.022  0.1889 -0.0794 -0.1245
 5293W        W21367   7.439   8.762  12.190 -0.0205 -0.3253 -0.2632
 5294W        W21368   2.981  12.548  11.655  0.4226 -0.3096 -0.0262
 5295W        W21369   2.422   3.891  12.482 -0.1753 -0.1298 -0.0733
 5296W        W21370   4.976   9.552  10.862 -0.0852 -0.0983  0.3061
 5297W        W21371   8.642   9.116   2.518 -0.3349 -0.1535  0.0198
 5298W        W21372  17.944  18.167  12.102 -0.0019 -0.0867 -0.0761
 5299W        W21373  14.212  10.309  12.677 -0.0272  0.3308 -0.2760
 5300W        W21374  18.378   1.711   3.891 -0.1537 -0.4872  0.1050
 5301W        W21375  11.328  11.044   3.440 -0.0471  0.0142  0.0405
 5302W        W21376  14.888  11.674  14.475 -0.1867 -0.2973 -0.2202
 5303W        W21377  14.549  10.717  11.629  0.1265 -0.0657  0.0339
 5304W        W21378   4.788   0.882   1.903 -0.0823  0.0828 -0.1327
 5305W        W21379   3.169  10.689  10.829  0.0095  0.0314  0.0787
 5306W        W21380   6.241   2.128   3.288  0.1976 -0.3695  0.1609
 5307W        W21381   9.612   2.394  13.301  0.2605 -0.2441 -0.0283
 5308W        W21382  14.741  13.555   0.639  0.0409 -0.1103 -0.2085
 5309W        W21383  10.228  17.305  10.502  0.1498  0.2080  0.2048
 5310W        W21384  17.294   9.275   0.308 -0.2080  0.0137  0.1419
 5311W        W21385  15.967   6.642  13.788  0.4110  0.1130 -0.0973
 5312W        W21386  17.500  12.273   2.335  0.1350  0.1217 -0.1569
 5313W        W21387   2.515   1.619  13.574  0.1811 -0.0229  0.0206
 5314W        W21388   6.032   8.666  11.076  0.1429  0.0719 -0.3160
 5315W        W21389   9.256  13.886   1.741  0.0977  0.0868 -0.0344
 5316W        W21390  11.704   0.408  11.296 -0.1745  0.0571  0.1151
 5317W        W21391   5.917   3.230   4.252  0.0155  0.1534  0.3194
 5318W        W21392   2.880   5.821  13.434 -0.0864 -0.1376 -0.0335
 5319W        W21393  15.361   6.483   2.963  0.1694  0.0096  0.1090
 5320W        W21394  13.888   7.509   2.890  0.1858  0.0235  0.1404
 5321W        W21395  11.600  10.720   2.386  0.2659 -0.0336 -0.0981
 5322W        W21396   9.791  18.123   1.122 -0.1177  0.1362 -0.0945
 5323W        W21397  18.005   7.790  14.166  0.0270 -0.2385 -0.1312
 5324W        W21398  10.184  18.762   5.681  0.1734 -0.0337 -0.3057
 5325W        W21399  17.099   3.499  11.336  0.0043  0.3550 -0.0743
 5326W        W21400   7.021   3.066   4.965 -0.5901 -0.2153  0.1919
 5327W        W21401   9.568  13.505   1.523 -0.0211 -0.0890  0.1624
 5328W        W21402   3.689  16.140  10.892 -0.0855 -0.0430  0.3482
 5329W        W21403  15.470   6.800  13.778 -0.0768 -0.1136 -0.1212
 5330W        W21404  13.329  18.734   1.865 -0.0469  0.1683  0.2231
 5331W        W21405  15.757   8.156   0.302 -0.0809 -0.6155 -0.0777
 5332W        W21406  13.025  18.479  13.653  0.1331  0.2753 -0.1090
 5333W        W21407   6.884  19.204  12.255 -0.0901  0.0004 -0.4240
 5334W        W21408   4.762   0.399   3.866 -0.0418  0.3218 -0.0062
 5335W        W21409   1.090   9.058   0.151 -0.1510  0.2086 -0.3302
 5336W        W21410  18.409   9.565   0.907 -0.1287 -0.1747  0.0852
 5337W        W21411  18.159   3.130  14.411  0.2272 -0.1189 -0.0430
 5338W        W21412   6.417  18.252   1.313  0.0604  0.1907 -0.0480
 5339W        W21413   5.982   1.860  14.034  0.1754 -0.1076  0.0924
 5340W        W21414  14.768   6.685   2.865 -0.0273 -0.2666  0.0278
 5341W        W21415   4.195   8.982   0.891 -0.0033 -0.4655 -0.1592
 5342W        W21416   4.137   8.818  11.459 -0.1790 -0.2469 -0.0787
 5343W        W21417   3.266  11.525  12.567  0.1426  0.3916  0.1611
 5344W        W21418   4.233   5.128   4.251 -0.1372 -0.1611 -0.2452
 5345W        W21419  12.831   0.320   0.346 -0.0415 -0.2367  0.2462
 5346W        W21420  12.026   9.736  14.826  0.1063 -0.2668  0.0088
 5347W        W21421   6.141   8.378   0.244  0.2546 -0.1208 -0.2855
 5348W        W21422   0.146  19.149  14.178 -0.3255 -0.0512 -0.1636
 5349W        W21423  11.756   9.355   1.836  0.0726  0.3005 -0.4731
 5350W        W21424   3.253   7.120  14.207  0.0123  0.1004  0.0807
 5351W        W21425   3.450  13.362   5.640 -0.1107  0.3434 -0.0440
 5352W        W21426  16.934  16.749   2.715 -0.0284  0.1464  0.1351
 5353W        W21427   5.163  12.391   1.528 -0.0674  0.1044  0.0252
 5354W        W21428  11.318  18.583  13.816  0.2578  0.0541  0.1073
 5355W        W21429   7.595  16.557   3.535 -0.3574 -0.2349 -0.0013
 5356W        W21430   2.604   1.204   4.997  0.2425  0.3292  0.2743
 5357W        W21431   5.598   1.212   4.544  0.2604 -0.0172 -0.1332
 5358W        W21432   5.836  10.308  11.439 -0.1641 -0.2186  0.0189
 5359W        W21433   4.240   5.527  13.484 -0.2951 -0.2718  0.1994
 5360W        W21434   6.783   9.744  14.603  0.0029  0.2172  0.1376
 5361W        W21435  10.918  15.331  13.492 -0.0113  0.0282  0.3068
 5362W        W21436   9.247  13.437   3.640  0.1189 -0.2438 -0.1599
 5363W        W21437   7.658  10.686   3.085 -0.0480 -0.1133  0.2316
 5364W        W21438   7.782   9.735  14.648  0.0824  0.3554 -0.2986
 5365W        W21439   4.897   5.610  11.148  0.0374 -0.3586  0.0181
 5366W        W21440  15.733   2.123   4.260  0.0252  0.0553  0.0254
 5367W        W21441   3.618   4.349  13.561 -0.0391  0.0549  0.4479
 5368W        W21442  12.493  17.520   4.954  0.2196  0.2154  0.1660
 5369W        W21443   4.463  18.919   1.728 -0.0214  0.2204  0.0279
 5370W        W21444  14.180  13.478   1.386  0.2474  0.0041  0.0493
 5371W        W21445  15.113  16.313   2.079 -0.3387  0.1843  0.3756
 5372W        W21446  10.310  16.411  12.984  0.2277 -0.3474 -0.0016
 5373W        W21447  10.336   8.941   1.738  0.0874  0.2496  0.0875
 5374W        W21448  13.795   7.685  12.710 -0.0384 -0.2399 -0.1062
 5375W        W21449   4.582  12.503   4.428 -0.0270  0.0492 -0.1722
 5376W        W21450  14.695  15.455  11.237  0.0239 -0.4554  0.0570
 5377W        W21451   1.238  15.418   3.136  0.1027  0.0557 -0.1451
 5378W        W21452  16.768   5.461  14.105 -0.2179 -0.0630  0.2408
 5379W        W21453   9.829  15.138   4.859  0.2019  0.0026 -0.1250
 5380W        W21454  16.593  11.036   3.031 -0.2764 -0.1448  0.1293
 5381W        W21455   2.308   8.992   3.552 -0.3317  0.0225  0.2320
 5382W        W21456   9.277   3.344  14.048  0.2030  0.4795  0.1387
 5383W        W21457  10.645  10.243  13.471  0.0851 -0.0289  0.0236
 5384W        W21458   1.252   3.261  10.681  0.1444 -0.0277  0.1296
 5385W        W21459   4.004   4.340  12.622  0.2093 -0.1091 -0.1720
 5386W        W21460   9.015   5.793  14.636 -0.0068  0.1234 -0.1222
 5387W        W21461  15.249  12.318  11.212 -0.1544  0.0525 -0.0220
 5388W        W21462   4.259   8.169  14.694  0.0060  0.0252 -0.3206
 5389W        W21463   9.291  12.162   0.887  0.1148 -0.2017 -0.0445
 5390W        W21464  15.702  12.200  14.059 -0.0016 -0.2259  0.1450
 5391W        W21465   1.408   3.389   0.939 -0.1888  0.0697  0.4005
 5392W        W21466   3.880   6.431   5.674  0.0587 -0.1704  0.1845
 5393W        W21467  12.525  11.579  13.620  0.5400  0.1244 -0.2031
 5394W        W21468  10.966  13.364   0.395 -0.1561 -0.0994 -0.0549
 5395W        W21469   8.475  10.029  14.136 -0.1175 -0.0633  0.1221
 5396W        W21470   6.778   2.235   1.283  0.2978 -0.2810 -0.2510
 5397W        W21471   3.489  14.448  12.843  0.0427  0.2317  0.1438
 5398W        W21472   1.954   8.089  10.701  0.4667 -0.1994  0.0172
 5399W        W21473   1.922   2.740  10.893 -0.1105  0.0420  0.0942
 5400W        W21474   2.435   2.451   2.497 -0.1232 -0.1791 -0.1073
 5401W        W21475   8.785   7.472  12.962  0.1549  0.1209  0.1211
 5402W        W21476   1.083   0.911  11.579  0.1356 -0.0455 -0.1218
 5403W        W21477  10.102  13.485   1.529 -0.1028 -0.0429  0.3340
 5404W        W21478   9.899  17.261   3.706  0.3748 -0.3106 -0.2481
 5405W        W21479   1.602   3.268   3.613  0.3770 -0.0966 -0.0105
 5406W        W21480   9.427   2.274   3.724 -0.1171  0.4243  0.1360
 5407W        W21481  16.240  17.056   1.035 -0.0237 -0.2670 -0.0205
 5408W        W21482   6.491  16.382  13.998 -0.0474  0.0481  0.3135
 5409W        W21483  18.516  10.830   1.827  0.1144 -0.1611  0.4917
 5410W        W21484   4.199   5.178   2.806  0.2514 -0.1328 -0.4128
 5411W        W21485  13.855   9.964  10.597 -0.0175 -0.1134  0.2234
 5412W        W21486  17.009   7.578  12.859 -0.1215  0.3499  0.1584
 5413W        W21487  13.344   0.942   2.310 -0.0425  0.1877  0.2485
 5414W        W21488   8.642   3.830   2.866 -0.1988  0.0002  0.2958
 5415W        W21489   7.193  14.134   1.063  0.2799  0.1874 -0.4341
 5416W        W21490   2.305  10.539   1.409  0.0309  0.0689  0.0199
 5417W        W21491  18.489   4.674   3.556 -0.1246 -0.0242 -0.0530
 5418W        W21492   5.026  11.460  11.523 -0.0723 -0.1735  0.2281
 5419W        W21493   7.487  13.354   1.672  0.0846 -0.0434 -0.0610
 5420W        W21494  17.085  19.109   0.043  0.3154  0.2015 -0.2372
 5421W        W21495  17.165  12.697   2.650 -0.0976  0.0308  0.0487
 5422W        W21496  17.187  17.954   1.101 -0.0090 -0.1422  0.1097
 5423W        W21497   6.493  13.450  14.643 -0.1660  0.0306 -0.0016
 5424W        W21498  12.131  10.597   4.286 -0.0160  0.2703 -0.2367
 5425W        W21499   8.080   9.980  11.163  0.0441  0.2675 -0.0728
 5426W        W21500   6.893  13.254   2.269  0.0894 -0.0433  0.2873
 5427W        W21501   1.136   7.377  14.830 -0.0374  0.0550  0.3837
 5428W        W21502   9.602   1.839  13.122 -0.0127 -0.4581 -0.0601
 5429W        W21503   5.806  17.497  14.402 -0.1619  0.1193 -0.3734
 5430W        W21504   6.510   6.071   3.239  0.0865 -0.1717 -0.0930
 5431W        W21505  11.883  17.449   0.872 -0.3001 -0.0084  0.2006
 5432W        W21506   3.290   0.642  11.781 -0.0954 -0.1440  0.2571
 5433W        W21507  15.076   6.026   1.062 -0.1726  0.0248  0.4730
 5434W        W21508   4.307   6.811  11.224 -0.0933 -0.1893 -0.1275
 5435W        W21509   6.819  14.191  13.463 -0.1953 -0.1822 -0.0605
 5436W        W21510  15.810   8.408   1.687 -0.4387 -0.0086  0.0550
 5437W        W21511  14.286   2.935   4.656  0.1782 -0.1274 -0.0764
 5438W        W21512  15.613   2.332   5.112 -0.1734  0.2741 -0.3617
 5439W        W21513   2.541   5.189   3.372  0.0214 -0.0759 -0.2779
 5440W        W21514   5.655  10.851  14.210  0.1733  0.1454 -0.0470
 5441W        W21515  11.756   7.164  12.296 -0.2532  0.0380 -0.0776
 5442W        W21516   3.222  18.824   4.176 -0.1466 -0.1195 -0.0512
 5443W        W21517  13.352   9.787  13.956  0.0375 -0.0567 -0.0218
 5444W        W21518  16.302  10.852   1.185 -0.0442 -0.0430  0.1221
 5445W        W21519   9.227  10.329   0.783 -0.0426 -0.0210 -0.2289
 5446W        W21520  12.324  12.306  11.384 -0.0200 -0.0436 -0.1171
 5447W        W21521   0.415   8.517  10.804  0.4078  0.0761  0.2495
 5448W        W21522  12.335   9.860  10.643 -0.0976  0.1157  0.3010
 5449W        W21523   2.151  17.980  12.120  0.1486 -0.0940  0.0544
 5450W        W21524  11.189  15.325   1.269  0.0589 -0.1039  0.1580
 5451W        W21525  18.621  18.666   3.360 -0.0053 -0.2736  0.3280
 5452W        W21526   6.962   5.044   2.418  0.2212 -0.1400 -0.1957
 5453W        W21527   0.947   4.974   2.078  0.2037 -0.0267 -0.2922
 5454W        W21528   2.872   6.019  12.211 -0.0392  0.0921  0.3986
 5455W        W21529  11.743   5.038   4.740  0.0656  0.1638  0.0357
 5456W        W21530  11.062  18.677   3.965 -0.0175  0.1112 -0.2393
 5457W        W21531  16.693  17.264  12.985 -0.1044 -0.0158 -0.0322
 5458W        W21532  16.982   9.476   2.875  0.0181 -0.5067  0.1484
 5459W        W21533   7.906  17.451   4.370  0.2180  0.1494 -0.3619
 5460W        W21534   7.611  14.587  12.228 -0.0284 -0.2865  0.1631
 5461W        W21535   7.471  10.556  13.616  0.0082 -0.0321  0.4059
 5462W        W21536   4.251  10.092  12.289  0.0819 -0.2631 -0.2966
 5463W        W21537  10.469   5.730  14.824 -0.1121 -0.0626 -0.0528
 5464W        W21538   8.770   8.118   1.872  0.3139 -0.0459 -0.3169
 5465W        W21539  10.568  18.885  14.706 -0.2058 -0.1981  0.1154
 5466W        W21540   1.756   6.204  14.230 -0.0458 -0.3320 -0.0442
 5467W        W21541  17.585   1.006   2.693 -0.4367  0.0157  0.1162
 5468W        W21542   1.151  11.465   1.860 -0.2231  0.0606  0.1653
 5469W        W21543  18.978   7.556   2.977 -0.1276  0.0565 -0.0016
 5470W        W21544  19.229  10.732   5.006 -0.0169  0.2023 -0.2792
 5471W        W21545   7.469  14.672   5.020 -0.1892  0.1921  0.0813
 5472W        W21546   6.157   7.591  14.859 -0.2181  0.0548  0.3338
 5473W        W21547   2.854   8.424   3.923 -0.0072 -0.1845 -0.2199
 5474W        W21548   4.164  15.233  13.156  0.3319  0.0469  0.2436
 5475W        W21549  11.447  11.638  14.285  0.1236  0.1287 -0.0142
 5476W        W21550   7.415   8.598   0.035 -0.1387 -0.1552  0.1041
 5477W        W21551   8.824   2.372   3.858 -0.0207 -0.1162  0.4449
 5478W        W21552   2.760  16.343   2.852  0.1307 -0.0822  0.0811
 5479W        W21553   5.996  15.958  11.415  0.1421 -0.0605 -0.0921
 5480W        W21554   4.409   4.113  11.537 -0.1113 -0.2542 -0.0314
 5481W        W21555   1.708   0.425  12.586 -0.2125  0.2114 -0.1428
 5482W        W21556   3.157   1.155   0.504  0.1802 -0.0533 -0.4390
 5483W        W21557   3.835  18.964  10.770 -0.0042  0.1172 -0.0545
 5484W        W21558   8.295  14.004   9.580  0.1517  0.0072 -0.0370
 5485W        W21559   3.307   9.925   4.846  0.0758  0.0561 -0.2182
 5486W        W21560  16.576  13.308  14.526  0.2042  0.0776  0.0600
 5487W        W21561   8.484   1.193  12.512  0.0546  0.2156 -0.1576
 5488W        W21562  11.154  13.519  13.869  0.0514 -0.1663 -0.0080
 5489W        W21563  10.087  17.537  13.612  0.1001 -0.0458  0.1423
 5490W        W21564  10.612  17.157   0.637  0.0121 -0.2813  0.1469
 5491W        W21565  12.357  14.673   2.583  0.0386  0.3914  0.1430
 5492W        W21566   2.053  10.712   3.534 -0.2716  0.0019  0.1599
 5493W        W21567   6.352  18.334   2.994 -0.0232 -0.4372  0.4008
 5494W        W21568  16.070  17.981  11.497 -0.1715  0.4197 -0.0385
 5495W        W21569   7.634  17.530  10.959 -0.0489 -0.0971  0.0747
 5496W        W21570  15.022   6.011  14.093  0.1816 -0.1620  0.0254
 5497W        W21571  14.667   6.146   2.658 -0.2311  0.0804  0.1145
 5498W        W21572   2.315  11.419   1.047 -0.4281  0.2087  0.2314
 5499W        W21573  12.132   8.895   3.092  0.1300  0.0398 -0.0766
 5500W        W21574  10.119   4.341   1.860  0.4229  0.0592 -0.1951
 5501W        W21575  17.656   8.022   5.725 -0.1089 -0.1874 -0.0913
 5502W        W21576  14.927  14.858   9.977 -0.1267  0.1132  0.0913
 5503W        W21577  14.904   3.356  14.827  0.1119 -0.1700 -0.0501
 5504W        W21578   3.868  18.097   5.716 -0.0608  0.2559 -0.1741
 5505W        W21579  17.902   2.737  12.053 -0.1068 -0.1108  0.0422
 5506W        W21580   9.980   2.078   5.548 -0.0669  0.1563  0.0363
 5507W        W21581   7.563   2.207   2.532 -0.2145  0.2152  0.0047
 5508W        W21582  16.545   2.596  12.310 -0.0307 -0.0524  0.0577
 5509W        W21583  11.815  10.529   9.695  0.1220  0.0371  0.3439
 5510W        W21584   1.762  12.946  10.449  0.1209  0.5382 -0.3191
 5511W        W21585   9.976   7.538   0.528 -0.0307  0.0636 -0.0689
 5512W        W21586  18.219  13.790  13.473 -0.3128  0.1201 -0.1474
 5513W        W21587   6.490  12.059  14.507  0.0277  0.0534  0.2469
 5514W        W21588  10.644   3.165  13.743  0.0259 -0.2135 -0.2598
 5515W        W21589   1.162  18.763   2.058  0.1275 -0.1104 -0.2361
 5516W        W21590  16.797  15.788  13.936 -0.3982 -0.0123 -0.0167
 5517W        W21591   8.304   7.962  14.536  0.2059  0.0386 -0.0986
 5518W        W21592   1.549   9.183   0.570 -0.1561  0.0785  0.2754
 5519W        W21593  16.088   6.745   2.466  0.0499 -0.3018  0.1694
 5520W        W21594   0.826  16.250   4.375  0.3268 -0.1297  0.1797
 5521W        W21595   3.972   9.694  11.522  0.3398 -0.1989  0.3360
 5522W        W21596   0.548   1.217   0.678 -0.1205  0.0359  0.0808
 5523W        W21597   6.389  10.731   0.923  0.0971 -0.1042  0.0668
 5524W        W21598   6.562  16.096  11.205 -0.2309  0.2375  0.0294
 5525W        W21599   4.463   2.451  12.679 -0.1558 -0.0293  0.0246
 5526W        W21600   2.450   9.507  10.898  0.2147 -0.0398 -0.1320
 5527W        W21601   6.356  18.679  11.068  0.0615  0.0049  0.0179
 5528W        W21602  18.137  18.678  12.674  0.0535 -0.4263  0.1530
 5529W        W21603   6.872   8.009  14.732 -0.0586  0.2163 -0.1949
 5530W        W21604   9.728   5.939   5.267  0.0119  0.0541 -0.0657
 5531W        W21605  12.006   7.006   2.575  0.2406  0.1335  0.2200
 5532W        W21606  16.111  15.496   2.180 -0.2205 -0.0729  0.2732
 5533W        W21607   3.026   7.940   1.834  0.0490 -0.0663  0.1606
 5534W        W21608  14.025   1.328  10.395 -0.0970 -0.1391 -0.1053
 5535W        W21609  11.831  13.791   0.247  0.0272 -0.3193  0.0294
 5536W        W21610   4.933   0.493   0.600 -0.0809 -0.3483 -0.1117
 5537W        W21611   8.470   0.235   0.442 -0.0413  0.0161 -0.4119
 5538W        W21612  12.324  11.570   1.404 -0.0108  0.2379 -0.3064
 5539W        W21613   6.023   7.823   4.130  0.1605  0.1529 -0.1860
 5540W        W21614  16.141  14.214   2.965 -0.2285 -0.0967 -0.0744
 5541W        W21615   6.161  14.699   3.359  0.0157  0.0699  0.0030
 5542W        W21616  10.970   1.514   4.202  0.3223 -0.1566 -0.1252
 5543W        W21617  11.050   8.717   2.099 -0.1902 -0.2207  0.1383
 5544W        W21618   8.549   6.383   1.566  0.3049  0.1116 -0.0720
 5545W        W21619  13.554   4.613   2.309 -0.2785  0.0408 -0.3447
 5546W        W21620  13.674   3.721  10.384 -0.0979  0.2657 -0.1990
 5547W        W21621  14.097  15.395   1.693 -0.0048  0.1860  0.0545
 5548W        W21622   7.372   3.301   4.144  0.1148 -0.1034 -0.3504
 5549W        W21623   0.480  16.547   3.718  0.2216  0.0668 -0.0106
 5550W        W21624   9.609  19.182  14.198  0.0291  0.0873  0.0915
 5551W        W21625   6.298  17.307  11.424 -0.1021 -0.1312  0.1646
 5552W        W21626   4.814   8.584   3.212  0.3560  0.1519  0.1321
 5553W        W21627   5.311  18.431   3.643 -0.0289 -0.2435 -0.2031
 5554W        W21628  18.645  16.509  12.670  0.0333 -0.1056  0.0326
 5555W        W21629   3.744   7.471   0.222 -0.3014  0.1218 -0.1811
 5556W        W21630   3.267   3.325   3.919 -0.0681  0.0517  0.1817
 5557W        W21631   1.456  13.785   5.040  0.2144  0.0142  0.2139
 5558W        W21632   0.258   2.949   2.655 -0.1024 -0.1479 -0.3880
 5559W        W21633  11.299   0.241   5.918 -0.0063  0.0525 -0.0857
 5560W        W21634  11.114   0.582   0.839 -0.2770  0.3567 -0.0541
 5561W        W21635  12.004   8.509   2.825 -0.0652 -0.1882  0.1860
 5562W        W21636  17.973  14.005  10.315 -0.0084 -0.2327  0.1260
 5563W        W21637   8.954  12.179   4.032 -0.0429 -0.1705 -0.0475
 5564W        W21638   9.228   2.126   9.726 -0.1163  0.1943 -0.2393
 5565W        W21639   0.543   4.744  11.603 -0.1766 -0.1385 -0.1494
 5566W        W21640   8.634  15.787  13.040  0.0127 -0.0690 -0.1641
 5567W        W21641   3.295  14.547   4.577  0.0459 -0.3712 -0.3277
 5568W        W21642   6.349   3.788  15.057  0.4875 -0.1449  0.5856
 5569W        W21643   0.224  17.810  10.394  0.1192 -0.0938  0.1358
 5570W        W21644   8.594  10.056   3.169 -0.2869 -0.1323  0.1045
 5571W        W21645   5.186  13.677  12.923  0.1136 -0.0766  0.1932
 5572W        W21646   3.398   1.863   3.915  0.0256 -0.1383  0.2067
 5573W        W21647  10.493  13.324   9.308  0.1569  0.2377 -0.0426
 5574W        W21648   8.179   8.311   5.129  0.1389  0.0395  0.0306
 5575W        W21649   1.108  14.756  11.173  0.2047  0.0899  0.3402
 5576W        W21650   8.789   8.206  14.567 -0.1415 -0.0326 -0.1417
 5577W        W21651   4.858   3.923   4.258 -0.4270 -0.1245 -0.1483
 5578W        W21652   0.127  12.071  13.577 -0.2069  0.0452 -0.1840
 5579W        W21653   6.308  11.829   4.383  0.0479 -0.3312  0.0394
 5580W        W21654  14.352   2.710  10.417  0.0210  0.1712 -0.2527
 5581W        W21655  17.558  11.671   2.247  0.1352 -0.1719 -0.2068
 5582W        W21656  12.141  10.970   3.631 -0.0241  0.0182  0.2294
 5583W        W21657   9.919   5.839  14.199  0.1206 -0.1515 -0.0321
 5584W        W21658  14.443  18.383   4.997  0.2148 -0.3009 -0.1896
 5585W        W21659   0.805   1.709  11.928  0.0635 -0.0891 -0.1436
 5586W        W21660   8.356  17.135   3.136  0.1360 -0.2603  0.0789
 5587W        W21661  12.759  16.660   1.745  0.0103  0.2012 -0.1564
 5588W        W21662  10.707   1.265  11.156 -0.2563 -0.2657  0.3170
 5589W        W21663  15.322  13.983   2.105 -0.2244 -0.0678  0.3139
 5590W        W21664  18.321  17.463  11.508  0.1911  0.1282 -0.4194
 5591W        W21665   6.531   9.333   2.439  0.2145 -0.1900  0.1987
 5592W        W21666   8.061   7.616  12.319  0.2443  0.2507 -0.2979
 5593W        W21667  18.318  18.016   1.746  0.2270  0.0244 -0.1214
 5594W        W21668   3.588  16.275   2.512  0.2086 -0.4816  0.0264
 5595W        W21669  16.381   7.616  12.564  0.0158  0.4671  0.3971
 5596W        W21670  11.317   4.426   4.184  0.1112 -0.0095 -0.2033
 5597W        W21671  14.296  12.993   4.039  0.1417 -0.4074 -0.1486
 5598W        W21672  12.973   0.976  11.528 -0.0683  0.1472 -0.0367
 5599W        W21673   7.941  17.414  13.785  0.1605  0.4653  0.0022
 5600W        W21674   6.814  12.038  10.099  0.1193  0.2360  0.4486
 5601W        W21675   6.470  14.442   3.076  0.0278  0.4511 -0.0516
 5602W        W21676   7.158  15.067  13.808 -0.3741 -0.1653  0.3813
 5603W        W21677   0.783   9.560   9.313 -0.1442 -0.1159  0.3221
 5604W        W21678  10.510   6.862  13.550  0.2799 -0.0896  0.0635
 5605W        W21679  15.020   9.395  14.067 -0.0144 -0.1519  0.0251
 5606W        W21680  19.229   4.310   0.419  0.1040  0.2416 -0.0951
 5607W        W21681  10.372   0.876  12.910  0.1494 -0.0020 -0.1779
 5608W        W21682   6.714   9.547   3.829  0.0462 -0.1165 -0.1876
 5609W        W21683   6.167   5.401   4.253  0.0001 -0.0638 -0.0543
 5610W        W21684   0.644  14.397  13.031 -0.1098  0.0928 -0.1915
 5611W        W21685  18.146  15.922  13.018  0.2468 -0.1737  0.0062
 5612W        W21686  14.861   5.711  10.497  0.0643  0.2202 -0.2720
 5613W        W21687  10.160  12.665   6.247 -0.3019 -0.2286 -0.0661
 5614W        W21688  12.163  18.520   4.742  0.0017 -0.0708  0.3820
 5615W        W21689   9.787   5.186   4.868 -0.2407  0.0749  0.3058
 5616W        W21690  15.532   3.086   3.493 -0.1142  0.1732  0.1259
 5617W        W21691  10.831   9.450   0.978 -0.1526  0.3410 -0.3789
 5618W        W21692  10.224   7.945   3.979 -0.1726  0.2614  0.1017
 5619W        W21693   6.617   0.067  11.123  0.0191  0.1274  0.2048
 5620W        W21694   3.126   7.845  12.523 -0.0230 -0.0151  0.0779
 5621W        W21695   2.958  13.572  11.432 -0.0984  0.1358  0.0133
 5622W        W21696   8.726   1.660  13.408  0.0449  0.1299 -0.0939
 5623W        W21697  14.755   1.407   0.754  0.3209 -0.2155 -0.1705
 5624W        W21698  17.185   3.761   0.420 -0.1726 -0.2435  0.1745
 5625W        W21699  15.376   0.580   1.352 -0.1597  0.0432  0.1099
 5626W        W21700  11.569  16.814   2.604  0.0150  0.2081  0.1344
 5627W        W21701  18.170   2.395  13.890  0.2994  0.3104  0.1407
 5628W        W21702  12.357  18.936  12.408 -0.0370 -0.1974  0.2022
 5629W        W21703   5.804   7.225  13.440 -0.2937 -0.0723  0.0683
 5630W        W21704  15.637   5.983  12.190 -0.0237 -0.2199 -0.0921
 5631W        W21705   8.942   0.502  10.871 -0.1108 -0.1402  0.0464
 5632W        W21706   4.107   0.648  14.549  0.0297  0.2062 -0.0400
 5633W        W21707   3.812  14.704  12.327 -0.0177  0.0404 -0.2042
 5634W        W21708   5.182  11.286  12.399 -0.2063 -0.2622  0.4141
 5635W        W21709  16.069  16.096  10.336 -0.1471 -0.3846 -0.0425
 5636W        W21710   6.521  10.981   1.713  0.1921 -0.0598  0.3547
 5637W        W21711  10.341   0.668   3.989 -0.2664  0.1093  0.2049
 5638W        W21712  13.522  11.536  11.321 -0.1869 -0.1481  0.0292
 5639W        W21713  15.635  14.986  12.190  0.0168 -0.2326 -0.1289
 5640W        W21714  17.499   9.232  12.476 -0.0686 -0.0062 -0.1636
 5641W        W21715  12.641  12.863   1.029  0.0695  0.1899 -0.3513
 5642W        W21716  14.284   5.858   1.550  0.4260 -0.0158  0.1759
 5643W        W21717   9.619  18.398  11.100  0.1594 -0.1297  0.1130
 5644W        W21718   3.231   4.892   1.316 -0.1960  0.0014 -0.0357
 5645W        W21719  10.377   9.914   3.268 -0.1147  0.0603  0.1487
 5646W        W21720   7.038   1.024   3.082 -0.1562 -0.0238 -0.1790
 5647W        W21721   9.446   0.779   5.000  0.0200 -0.2048  0.0642
 5648W        W21722   8.637  18.176   0.548 -0.1729 -0.2081 -0.1861
 5649W        W21723  16.770   7.317  12.431  0.0946 -0.0300 -0.0687
 5650W        W21724  15.508  10.385   0.716 -0.0272 -0.1712 -0.0592
 5651W        W21725  17.127  11.781   2.523 -0.2712  0.0964  0.2199
 5652W        W21726   6.029   6.035   5.972  0.2820 -0.0826  0.4492
 5653W        W21727   2.711  17.630   9.896 -0.1869 -0.0229 -0.1946
 5654W        W21728  18.913   6.212   4.267  0.0052 -0.3754  0.0633
 5655W        W21729   5.613   0.171  12.893  0.3253 -0.0073 -0.1067
 5656W        W21730  15.360   8.588   2.923 -0.1443 -0.0408  0.1521
 5657W        W21731   0.222  11.353   2.524  0.2636 -0.0726 -0.2562
 5658W        W21732   7.608   6.867  12.326  0.0417 -0.0434  0.2292
 5659W        W21733   8.084  13.900  11.142 -0.1328 -0.0889 -0.0099
 5660W        W21734  16.498  16.780  13.832 -0.1252 -0.1102 -0.0848
 5661W        W21735  11.106  16.159  14.215 -0.1435  0.1768 -0.2364
 5662W        W21736   2.753   0.683   0.709  0.0300 -0.1404 -0.3815
 5663W        W21737  16.103  14.667  11.430  0.1532  0.4052  0.0261
 5664W        W21738  13.391   4.634  11.229  0.0929  0.0121 -0.1365
 5665W        W21739  12.458   3.106  11.178 -0.0737  0.1974  0.2199
 5666W        W21740   7.093   5.013   1.923  0.4592  0.2030 -0.1030
 5667W        W21741  14.908  16.960  13.521 -0.0487  0.2206  0.3762
 5668W        W21742  17.445   6.924   1.764 -0.0847 -0.0180  0.0770
 5669W        W21743   5.045  18.347   2.266  0.4261  0.1358  0.3489
 5670W        W21744   9.049   1.531  10.675 -0.1419  0.3818 -0.2838
 5671W        W21745   6.030  15.173  12.197 -0.2250  0.0594  0.1457
 5672W        W21746  12.520  19.142  10.880 -0.2163  0.0312 -0.0361
 5673W        W21747   5.247   5.723   1.380  0.0464 -0.2592 -0.0254
 5674W        W21748  10.653   6.309   0.268 -0.0490  0.1394  0.2116
 5675W        W21749  17.674  14.186   0.633  0.0642  0.0379  0.2491
 5676W        W21750  16.900   3.637  14.935  0.1695 -0.2090 -0.0059
 5677W        W21751  14.399   1.185   3.715 -0.0398  0.2383  0.2274
 5678W        W21752   0.857   8.711   4.631  0.3672 -0.0088  0.0965
 5679W        W21753   2.038   4.851   3.593 -0.0996  0.1638 -0.0768
 5680W        W21754  16.903   1.037   2.688  0.0293 -0.0108 -0.1328
 5681W        W21755  14.171   8.306   2.248  0.1444  0.2005  0.0333
 5682W        W21756   7.541  14.663   3.168 -0.1574  0.1276 -0.1562
 5683W        W21757   3.495  13.658  14.741  0.1067  0.0153 -0.0519
 5684W        W21758   0.291  12.349   0.837  0.1368  0.0261  0.1837
 5685W        W21759  16.457   6.705   2.134  0.0943  0.1412 -0.0138
 5686W        W21760  16.836  10.249   1.591 -0.0260 -0.1280 -0.0244
 5687W        W21761   5.920  17.322  13.314 -0.0462  0.5515  0.3221
 5688W        W21762  14.000  15.547   1.120 -0.1252  0.1026  0.1930
 5689W        W21763   8.775   5.509   0.804  0.3005  0.2584 -0.1546
 5690W        W21764   7.291  11.230  12.025 -0.1878 -0.0238  0.0452
 5691W        W21765   8.935   3.254  11.462 -0.3460  0.0086  0.1320
 5692W        W21766   4.934  10.461  11.904  0.1708 -0.2410  0.3790
 5693W        W21767   9.005  17.220   1.714  0.0537 -0.0288 -0.0035
 5694W        W21768   5.046  16.409   2.126 -0.2131 -0.6094 -0.0878
 5695W        W21769   6.743   8.170  11.546 -0.1147  0.2308  0.6096
 5696W        W21770   4.011  11.204   3.118 -0.0133 -0.1678 -0.0698
 5697W        W21771   9.785  19.255  13.108  0.1066  0.1369 -0.3069
 5698W        W21772  15.412  12.001  11.812  0.0905  0.1862  0.1162
 5699W        W21773   3.943   3.785   4.856 -0.0380  0.0224 -0.0097
 5700W        W21774  12.144  17.657   2.867 -0.1312 -0.1127 -0.0244
 5701W        W21775  14.946  18.240  10.860 -0.2023 -0.1338 -0.0434
 5702W        W21776   4.194   7.058  14.565  0.0806 -0.3169  0.2347
 5703W        W21777  10.493   4.249   2.382 -0.1822  0.2339  0.0423
 5704W        W21778   9.238  18.114  10.887  0.0149  0.1960 -0.0140
 5705W        W21779   2.737  14.603   3.389 -0.3542 -0.2157  0.0601
 5706W        W21780  10.302   7.266   3.092 -0.0085 -0.1391 -0.1601
 5707W        W21781   1.286   5.991  14.210 -0.2197 -0.1224  0.1978
 5708W        W21782   0.642   5.853  12.324  0.0457 -0.0147 -0.2758
 5709W        W21783  15.620   6.902  11.820 -0.0935 -0.2693 -0.0311
 5710W        W21784   5.646  18.835   4.052  0.0288 -0.0673  0.0914
 5711W        W21785   1.849   0.120   2.275 -0.0135 -0.2421 -0.1287
 5712W        W21786   3.266   2.229  13.229 -0.2159 -0.2949  0.3182
 5713W        W21787   1.709  11.223  14.579 -0.1494  0.2212  0.1085
 5714W        W21788   0.027  15.231  11.488 -0.0208  0.1543 -0.4610
 5715W        W21789   8.361   1.745   2.493 -0.0221 -0.1882  0.4437
 5716W        W21790   8.397   1.739  14.197 -0.2317 -0.1381 -0.1776
 5717W        W21791  13.947   9.912  15.030 -0.0562 -0.1239 -0.0282
 5718W        W21792  17.135   8.489   3.184 -0.0345  0.1641 -0.1543
 5719W        W21793  19.127  16.643  10.897 -0.0752 -0.0548  0.2165
 5720W        W21794  18.780  14.497  10.192  0.1586 -0.0212 -0.1557
 5721W        W21795   1.489   4.266   3.195  0.0044 -0.1349  0.0951
 5722W        W21796   1.882   0.254   2.805  0.1528 -0.3643 -0.1419
 5723W        W21797  11.405  10.567  12.906 -0.0415 -0.3681  0.1222
 5724W        W21798   6.990   6.946   5.201  0.0406  0.0198  0.0223
 5725W        W21799  15.219   7.736  13.463 -0.2650 -0.3165  0.0616
 5726W        W21800   7.373   7.436  13.112 -0.1687  0.0504  0.2181
 5727W        W21801  18.409  18.046  12.282 -0.1887 -0.1610  0.1334
 5728W        W21802  18.985   9.390  11.397 -0.1958  0.1104  0.0162
 5729W        W21803   1.310   3.205  14.639  0.0461 -0.0394 -0.2113
 5730W        W21804   4.299   8.341  13.270 -0.3788  0.0277  0.0133
 5731W        W21805  10.198  13.465  13.919 -0.1135  0.0738  0.0822
 5732W        W21806   1.037  10.584  13.085 -0.0110  0.3597  0.0562
 5733W        W21807   7.256   4.923  10.722 -0.3012 -0.0002 -0.1201
 5734W        W21808   6.474  14.819  10.356 -0.1975 -0.2601  0.2242
 5735W        W21809  11.837  19.007   3.481 -0.0451  0.1695 -0.3022
 5736W        W21810  14.034   5.418   3.520  0.2137 -0.1086  0.1876
 5737W        W21811   5.655   9.474   1.071  0.0944  0.1052 -0.1585
 5738W        W21812   1.163   6.892   2.570  0.1623  0.3264  0.0488
 5739W        W21813  17.138   0.748  11.515  0.1212  0.1951 -0.2321
 5740W        W21814   7.319  14.966   0.855 -0.2543  0.0989  0.1480
 5741W        W21815   6.900   0.253  12.947  0.0838 -0.0098  0.0935
 5742W        W21816   0.422   7.559   5.074  0.1829 -0.1912 -0.3953
 5743W        W21817  14.585  18.870   4.650  0.0200  0.3163  0.3221
 5744W        W21818   3.690   9.428  10.486 -0.0306 -0.0850  0.0327
 5745W        W21819   2.547  15.468   2.172  0.2499 -0.2077  0.0231
 5746W        W21820  15.200   1.011  13.095 -0.0736  0.2541  0.3149
 5747W        W21821  15.361   1.030   3.555 -0.1835  0.0438  0.1625
 5748W        W21822  13.255  11.347  11.963  0.1042  0.1977 -0.2487
 5749W        W21823   0.424  10.074  11.253  0.0414 -0.3672  0.1784
 5750W        W21824   2.368   3.832  14.666 -0.1321 -0.1542  0.0219
 5751W        W21825   0.878  10.255  11.728 -0.0020 -0.3247 -0.1645
 5752W        W21826   0.051  12.967   1.518 -0.0819  0.3450 -0.2846
 5753W        W21827   0.518   1.339  12.360  0.1058 -0.0738  0.3442
 5754W        W21828  10.410  19.088   3.270 -0.0364  0.0356  0.1973
 5755W        W21829  17.983   7.999   0.680  0.1820  0.0934  0.4456
 5756W        W21830  11.531   3.632   1.033  0.0446 -0.2666  0.0216
 5757W        W21831  15.317  10.904  14.059 -0.1792  0.1430 -0.0259
 5758W        W21832  17.961  16.581   4.214 -0.1373  0.0415  0.3844
 5759W        W21833  10.422   1.734  11.089 -0.0753 -0.2757  0.0368
 5760W        W21834  18.744  17.210   2.244 -0.4535  0.0461 -0.1236
 5761W        W21835   0.308   4.299   0.067  0.1836  0.2311  0.0854
 5762W        W21836   4.006  14.749   1.815  0.1972  0.0108 -0.0967
 5763W        W21837   1.760   2.408  14.229 -0.1735 -0.0625 -0.2459
 5764W        W21838   5.881  10.355   3.531  0.0655  0.0222 -0.0270
 5765W        W21839  17.410   9.843   0.742 -0.1694  0.0350 -0.0086
 5766W        W21840   9.487  17.536  13.016  0.1263 -0.0983  0.1516
 5767W        W21841   5.138  14.578  14.085  0.0462  0.1910 -0.1699
 5768W        W21842   5.097   2.678   3.980 -0.0748  0.1752  0.3708
 5769W        W21843   5.513   3.268  10.098 -0.0408 -0.4840  0.1386
 5770W        W21844   9.776   1.748  12.330  0.0308 -0.2231  0.2075
 5771W        W21845   2.687   9.119   3.145 -0.0406  0.1034  0.0999
 5772W        W21846   9.485   9.466   0.675  0.0103 -0.0566  0.3472
 5773W        W21847  11.840   9.950  12.266  0.1432 -0.1998 -0.1229
 5774W        W21848   5.400   9.110   3.174 -0.2501 -0.2177 -0.2428
 5775W        W21849   1.063   7.250  13.203  0.1376  0.3082 -0.0845
 5776W        W21850   7.626  17.919   0.237 -0.0818 -0.0835  0.5213
 5777W        W21851   2.794  11.360  10.339  0.1235 -0.3152 -0.0748
 5778W        W21852   1.751   1.760  10.620  0.3396  0.2185 -0.1464
 5779W        W21853   4.858  18.463  12.890  0.0571 -0.2048  0.0520
 5780W        W21854   1.546  18.785  14.492  0.1011 -0.2302 -0.2121
 5781W        W21855  18.757   7.243   1.423 -0.2826  0.0385  0.1780
 5782W        W21856   9.252  13.021  10.665  0.2695  0.3647 -0.3659
 5783W        W21857   2.165   4.160   4.716 -0.1153  0.3899  0.2657
 5784W        W21858  11.780  14.262   3.787  0.0014 -0.0790 -0.5111
 5785W        W21859  10.423   0.400   1.194  0.0463 -0.1704  0.0824
 5786W        W21860   7.796  14.499  13.313  0.5600  0.1441  0.3355
 5787W        W21861  10.938   0.853  11.334 -0.0095 -0.0151 -0.4498
 5788W        W21862   4.358   8.761  11.899  0.0111  0.2033  0.0868
 5789W        W21863   0.438  14.331   2.465  0.1794 -0.1755 -0.1081
 5790W        W21864  15.559  18.033  12.114 -0.1550 -0.2981 -0.0081
 5791W        W21865  15.786  11.823   3.850 -0.1758 -0.2889  0.2307
 5792W        W21866  14.528   9.706  14.180  0.1712 -0.1208  0.2205
 5793W        W21867   0.824   3.091   5.064  0.3488  0.0736  0.1150
 5794W        W21868   2.524   1.254   0.678 -0.1869  0.2327  0.2400
 5795W        W21869   4.904  13.318   0.699  0.2810  0.2428  0.3302
 5796W        W21870  15.906  16.669  14.729 -0.3136  0.0660 -0.1766
 5797W        W21871   0.058  15.641  12.830  0.1238  0.0482  0.1472
 5798W        W21872  15.547  18.888  10.361 -0.0314  0.2282  0.4658
 5799W        W21873  10.557  19.270   0.332 -0.0436  0.1269  0.0536
 5800W        W21874   1.948   7.182   3.974  0.0901 -0.1047  0.0792
 5801W        W21875  15.720  14.136   5.179  0.0791  0.0356 -0.1048
 5802W        W21876  13.339   2.029   3.457  0.0950  0.0734 -0.1665
 5803W        W21877  14.579   7.183   1.176  0.0891  0.1330 -0.0663
 5804W        W21878  18.519   8.037  11.494  0.2247 -0.3953  0.3566
 5805W        W21879   8.199  16.101  12.735 -0.2543 -0.0592 -0.0004
 5806W        W21880   7.941   2.806   5.531 -0.1470  0.1460 -0.0869
 5807W        W21881   1.308   4.409  12.253 -0.0901  0.0107  0.0450
 5808W        W21882   1.751   0.687  11.593 -0.2257 -0.2397 -0.0702
 5809W        W21883   2.411   9.564  13.244  0.4823 -0.1015 -0.0876
 5810W        W21884   9.478   5.960  12.762 -0.2549 -0.0938  0.1287
 5811W        W21885  14.741  12.394  14.396  0.0115 -0.0051  0.2389
 5812W        W21886  18.512  15.505  11.798 -0.3025 -0.0130 -0.2189
 5813W        W21887  10.328  16.380   0.565  0.1917 -0.1964 -0.1890
 5814W        W21888   8.757   2.783  11.070 -0.0826  0.2426 -0.4465
 5815W        W21889   6.815   8.871  14.370 -0.0431 -0.1973 -0.0520
 5816W        W21890  10.273  18.671  11.803 -0.2201  0.1514  0.1642
 5817W        W21891   5.452   9.145  14.916  0.1578 -0.2797 -0.2418
 5818W        W21892   0.363   1.274  14.238  0.2542 -0.0408  0.0446
 5819W        W21893  11.812  14.372   3.260 -0.0781 -0.0155  0.2956
 5820W        W21894  19.189   5.749  10.841 -0.1427  0.0675  0.0166
 5821W        W21895   1.392  11.047  11.097  0.1535  0.2723  0.1891
 5822W        W21896   1.878   7.964  12.094 -0.0595  0.1309  0.3463
 5823W        W21897  15.266   0.143  13.094 -0.4944 -0.1107  0.2413
 5824W        W21898  16.022  10.099  11.930 -0.0343 -0.1770 -0.3716
 5825W        W21899   2.637  18.848   1.860  0.1143 -0.0653  0.0882
 5826W        W21900   8.217  15.789  11.727 -0.2550  0.0738 -0.0647
 5827W        W21901  18.535   6.011   1.491  0.2685  0.1356  0.0383
 5828W        W21902  11.853   2.055  10.899  0.2120  0.1327  0.0392
 5829W        W21903   1.826  17.128   4.252  0.1361  0.1641  0.4500
 5830W        W21904   1.738  13.429  10.806  0.0181 -0.0710 -0.0522
 5831W        W21905  11.446  18.521  14.365  0.2269  0.0761  0.0224
 5832W        W21906   6.273   5.312   3.396 -0.2571  0.0493 -0.0992
 5833W        W21907  17.573  19.056   1.390  0.1560 -0.0683  0.1811
 5834W        W21908   0.445   9.745  12.651  0.1745 -0.0735  0.2455
 5835W        W21909  17.787   0.726  14.504  0.5057 -0.1734  0.1569
 5836W        W21910  17.285   5.586  11.950 -0.2601 -0.2345  0.0049
 5837W        W21911   9.189  10.272   1.310 -0.0432 -0.2287  0.0872
 5838W        W21912   6.711   1.340   1.376 -0.2504 -0.3324 -0.2718
 5839W        W21913   4.951   1.623  12.756 -0.2961 -0.1831 -0.2115
 5840W        W21914   1.520  12.054  10.728  0.0218  0.0959  0.0498
 5841W        W21915   7.492  13.010  13.625  0.2806  0.3496 -0.1571
 5842W        W21916   7.305   7.161  14.453 -0.0034 -0.0979  0.0708
 5843W        W21917  18.316   9.106   3.489  0.1509  0.0879  0.1974
 5844W        W21918   6.935   7.800   1.473 -0.0280  0.0218  0.3139
 5845W        W21919  12.136   9.555  13.558  0.1348  0.3262  0.0395
 5846W        W21920   0.068   3.327  10.935 -0.0530 -0.1391  0.2333
 5847W        W21921  15.410   7.920   2.232  0.1775 -0.1673 -0.0657
 5848W        W21922  16.902  15.114   4.242  0.0249  0.1715 -0.2035
 5849W        W21923  15.759   3.074  12.502  0.1746 -0.2106  0.2112
 5850W        W21924  16.527   9.331   1.557 -0.1106 -0.0639  0.3047
 5851W        W21925   6.902   9.543  11.002  0.0222 -0.1633  0.3142
 5852W        W21926  15.366   6.127  12.555 -0.0742 -0.0830  0.0509
 5853W        W21927  11.647   0.497  14.753 -0.0218  0.1132  0.1384
 5854W        W21928  12.115   9.236   3.559 -0.0704 -0.2383 -0.3664
 5855W        W21929  16.103  10.998  13.423  0.1482 -0.1467  0.1737
 5856W        W21930   3.254  18.606   2.625 -0.1681 -0.0662  0.1196
 5857W        W21931  13.787  16.669  13.332  0.0015 -0.2049 -0.0764
 5858W        W21932   8.051  16.285   3.552  0.2940 -0.4302 -0.2714
 5859W        W21933   1.156   6.541   2.166 -0.0243  0.0023 -0.2819
 5860W        W21934  17.944  15.332   2.003 -0.0564  0.1618  0.1335
 5861W        W21935  13.609   1.740  14.536 -0.0140 -0.0920  0.3210
 5862W        W21936  16.550   5.227   4.568  0.0745  0.1587  0.2349
 5863W        W21937  12.513   8.537   2.983 -0.0365  0.0448  0.0877
 5864W        W21938  16.710   0.606  10.064 -0.3482  0.0483 -0.0303
 5865W        W21939  17.445   0.245   2.207  0.0009 -0.0915  0.0237
 5866W        W21940  16.561   4.771   4.306  0.1865 -0.3548  0.1138
 5867W        W21941  13.744  14.790   2.883 -0.1856 -0.2139  0.0897
 5868W        W21942  11.432  11.534   1.709 -0.1873  0.3008 -0.2672
 5869W        W21943   2.475  11.461  14.625 -0.2704 -0.1193 -0.2505
 5870W        W21944  17.153  12.212   3.322  0.1131  0.2816  0.1118
 5871W        W21945   4.365   5.907   1.727  0.1099  0.0696 -0.2042
 5872W        W21946   9.123  14.554  13.108 -0.3465  0.0457  0.3152
 5873W        W21947  15.711  14.603   2.795  0.1127  0.4027  0.0642
 5874W        W21948  13.875   5.446   1.803 -0.2105  0.0761  0.0265
 5875W        W21949   8.494   5.850   0.464  0.0738  0.3822  0.1186
 5876W        W21950  11.433  15.003  14.048  0.1819 -0.2352 -0.3518
 5877W        W21951   6.418  10.541   4.545  0.0826 -0.1619  0.1635
 5878W        W21952   4.741   7.366   5.322  0.1015  0.1189 -0.0517
 5879W        W21953   6.011   4.638   0.926  0.2341  0.0328  0.1920
 5880W        W21954   5.246  17.370   1.199 -0.3781  0.1755 -0.1352
 5881W        W21955   7.924   8.502  11.267  0.0025 -0.1494  0.0695
 5882W        W21956  14.085  15.508  12.819 -0.0823 -0.0295 -0.2208
 5883W        W21957   9.293   5.514   2.436  0.0804 -0.1916 -0.1651
 5884W        W21958   6.026  17.093   1.509  0.1615 -0.2920 -0.0400
 5885W        W21959   3.961   1.727  11.782 -0.0879  0.0468 -0.0733
 5886W        W21960  14.763   7.069   1.707 -0.2042 -0.3947  0.0738
 5887W        W21961   1.273   6.169   0.713  0.1288  0.0401 -0.1021
 5888W        W21962   7.039   8.211   0.113  0.1551 -0.3673 -0.1566
 5889W        W21963  12.412   9.845  12.218 -0.0128  0.1286  0.0786
 5890W        W21964   3.998  16.976  12.534 -0.1624 -0.5581  0.0528
 5891W        W21965  10.133   7.495   4.158  0.0590 -0.1748 -0.1059
 5892W        W21966   9.408   9.898   1.631 -0.3356  0.1422 -0.3695
 5893W        W21967  15.542  10.384   3.774  0.2168 -0.1552 -0.0434
 5894W        W21968   6.265   2.624   3.287  0.0860  0.3597 -0.1281
 5895W        W21969  18.193  13.364  10.949  0.1445 -0.1499 -0.1130
 5896W        W21970   5.537  18.513  11.302 -0.1453  0.1057 -0.1366
 5897W        W21971  15.157  18.033   9.541  0.2045  0.1202  0.3887
 5898W        W21972  15.026  10.771  11.826 -0.1330  0.0938 -0.1673
 5899W        W21973  10.633   4.380  12.930  0.0399 -0.0374  0.0783
 5900W        W21974  17.265  14.620   5.319  0.2069 -0.3122 -0.3696
 5901W        W21975  18.704   2.875   1.215  0.0161  0.1118 -0.0166
 5902W        W21976   6.137   9.512   4.575 -0.0650  0.1582 -0.1236
 5903W        W21977  15.767   7.901   5.088  0.3476  0.0392  0.0799
 5904W        W21978  13.089  11.887  14.432  0.3066 -0.1461 -0.0314
 5905W        W21979   6.750  11.105   3.897  0.2120 -0.0403  0.3213
 5906W        W21980  12.239   8.992  12.777  0.2319  0.5022  0.0213
 5907W        W21981  15.751   7.443  13.412 -0.0503  0.1186 -0.1079
 5908W        W21982   1.469   8.491  14.082  0.1719 -0.1761  0.0494
 5909W        W21983  17.849  17.671   9.547  0.3658  0.0582 -0.0179
 5910W        W21984   5.489  15.054   3.888  0.0549 -0.2240  0.0581
 5911W        W21985  15.390  14.421   1.915 -0.1439  0.1725 -0.0511
 5912W        W21986   7.858  13.784   1.269  0.0647 -0.0387 -0.0559
 5913W        W21987  14.602  14.502   3.743 -0.1219 -0.0695  0.4945
 5914W        W21988   3.067  15.510   0.039 -0.2037 -0.0569  0.0286
 5915W        W21989   7.552   0.311   4.665 -0.0391  0.3145 -0.0721
 5916W        W21990   9.915  14.057   2.705  0.1315  0.3365 -0.1039
 5917W        W21991   1.603   4.830   3.189 -0.0026  0.2582 -0.1406
 5918W        W21992  14.564  16.152   1.929  0.1516 -0.3994 -0.2400
 5919W        W21993   4.408   6.536   0.673  0.1205 -0.3012  0.0712
 5920W        W21994   9.523  14.780   3.729  0.0296 -0.0736  0.1310
 5921W        W21995   1.949   6.682   4.075 -0.0880  0.0211  0.1951
 5922W        W21996  16.432  16.368   1.799 -0.0510  0.0318  0.1911
 5923W        W21997   3.995   8.436  11.939  0.0749  0.1708 -0.1655
 5924W        W21998   8.873  14.115   4.083 -0.4770 -0.0289 -0.0519
 5925W        W21999  13.536  10.585   0.443 -0.0493  0.0465 -0.0117
 5926W        W22000  16.856  18.996   9.763 -0.0991  0.2294 -0.2224
 5927W        W22001   2.302   4.536  11.339  0.0227  0.2561 -0.2502
 5928W        W22002   7.414   4.261   2.588  0.2539 -0.1088 -0.3410
 5929W        W22003   8.067  12.725   3.089  0.2134  0.0767 -0.0905
 5930W        W22004  17.770  18.570  12.307 -0.0915 -0.1733  0.1470
 5931W        W22005   5.066   7.055   4.271  0.0530  0.0140  0.1386
 5932W        W22006  13.498  12.940   9.297 -0.5379 -0.3568 -0.0983
 5933W        W22007   1.089   2.359  11.206  0.0397 -0.0586 -0.3036
 5934W        W22008   8.728  19.194  12.086 -0.1431 -0.3050 -0.2500
 5935W        W22009  11.383   7.253  13.271 -0.2933  0.2097  0.4141
 5936W        W22010   5.659  13.222   4.066 -0.0031 -0.0096 -0.0410
 5937W        W22011  17.128  11.296  12.565 -0.1565  0.2447 -0.0887
 5938W        W22012  17.503  16.868   1.550 -0.2164 -0.0269 -0.0955
 5939W        W22013   5.864  13.887  14.532 -0.0338  0.1956  0.0358
 5940W        W22014   9.146  17.757   4.943  0.0720 -0.4035 -0.0053
 5941W        W22015   2.170  18.301   2.718 -0.0079 -0.0457 -0.0295
 5942W        W22016  17.036   7.011  12.847 -0.0858 -0.2897 -0.2802
 5943W        W22017   8.500   3.911   1.393 -0.0575 -0.2148 -0.1767
 5944W        W22018   9.988   0.692   1.244  0.0526  0.1675 -0.2247
 5945W        W22019   8.182   1.908   2.949  0.0240 -0.0132 -0.4548
 5946W        W22020   0.624   1.080  11.393 -0.3380 -0.2896  0.0878
 5947W        W22021  16.166  17.638   4.451  0.1426 -0.0458  0.3197
 5948W        W22022  10.633   9.889   1.431  0.1782 -0.1930  0.0917
 5949W        W22023   9.729   8.711  11.449 -0.1311 -0.0798  0.0538
 5950W        W22024  17.647  18.256  14.632  0.1991 -0.2515  0.2449
 5951W        W22025   3.741   4.887   1.161 -0.1465  0.0141  0.1434
 5952W        W22026   2.445   5.466   5.127  0.0611  0.0283  0.2673
 5953W        W22027   0.775   2.066   5.026  0.2010  0.0216  0.1343
 5954W        W22028   1.770   7.462  14.990  0.0805  0.2238  0.2317
 5955W        W22029  12.583   6.689  14.433 -0.0812 -0.2819  0.1242
 5956W        W22030   0.121  11.983   1.841  0.3487  0.3581 -0.2531
 5957W        W22031   0.562   4.071   3.281  0.1153 -0.2875  0.2000
 5958W        W22032  13.488  17.295   2.873 -0.3612 -0.1628  0.1771
 5959W        W22033  12.648   3.018  13.940  0.0473  0.0307  0.1787
 5960W        W22034   8.970  17.157  14.355  0.0500 -0.1065  0.3481
 5961W        W22035  10.197  12.789  13.243 -0.1838  0.4371  0.0049
 5962W        W22036  11.924   6.392  11.009  0.2849 -0.2753  0.1880
 5963W        W22037  18.145  13.516  12.957 -0.1195  0.0683 -0.0169
 5964W        W22038  18.904  12.771   2.112 -0.3369  0.1479 -0.0085
 5965W        W22039   3.507   9.461   3.677  0.1242  0.1615  0.2641
 5966W        W22040   4.417  13.306  11.802 -0.1374 -0.2724 -0.0018
 5967W        W22041  12.729  12.906  13.431  0.1429  0.1254  0.1194
 5968W        W22042  10.124  18.682   2.964 -0.1980 -0.1308  0.1778
 5969W        W22043  12.523  11.036   3.351 -0.0198 -0.1386  0.0962
 5970W        W22044  19.293   0.397  14.259  0.0810 -0.2060  0.1120
 5971W        W22045   1.051  12.395  14.485 -0.3546  0.1344  0.3132
 5972W        W22046  11.057  15.792  14.678 -0.0803  0.1097 -0.0087
 5973W        W22047  11.426   0.014  10.241  0.1331 -0.0990 -0.3355
 5974W        W22048   1.802  12.579   1.612  0.1394  0.0109 -0.0040
 5975W        W22049  11.132  11.572   5.422 -0.1000 -0.0587 -0.2462
 5976W        W22050  11.441  17.609  13.704  0.0697  0.2181 -0.0447
 5977W        W22051  12.785   8.720  11.795 -0.0804  0.0313  0.1910
 5978W        W22052  11.274   1.712  12.251  0.1817  0.1439  0.2517
 5979W        W22053   9.088  17.695   1.841 -0.1089  0.1224 -0.1905
 5980W        W22054   1.055   0.397   2.468  0.2074  0.1454 -0.1330
 5981W        W22055  17.272   8.281  14.472  0.0897  0.2576 -0.4383
 5982W        W22056  11.493  15.583  14.821  0.2420  0.1783 -0.1997
 5983W        W22057   2.184  13.297  10.460  0.1368  0.0283 -0.0568
 5984W        W22058  12.083  12.513  11.793  0.2775  0.0779 -0.0117
 5985W        W22059   5.988   1.336   4.153 -0.2876 -0.0937 -0.2065
 5986W        W22060   5.077   0.196   4.272 -0.1057 -0.5766  0.0798
 5987W        W22061   9.835  17.817  14.530 -0.1991 -0.2297  0.3644
 5988W        W22062  16.412   5.509  11.869  0.1020 -0.0854  0.2473
 5989W        W22063  16.631   5.137  15.001 -0.1083 -0.1174 -0.2390
 5990W        W22064   9.253   2.883  11.042  0.0737  0.0564  0.1433
 5991W        W22065  17.686  12.372   5.094 -0.1757 -0.1255 -0.2325
 5992W        W22066   8.552  18.534  13.321 -0.0903  0.1574 -0.0204
 5993W        W22067   6.462   1.996   0.870  0.0885 -0.0765  0.1701
 5994W        W22068  11.134  14.639  11.060 -0.0095 -0.0534 -0.4542
 5995W        W22069  16.939   8.436   0.790 -0.0253  0.1376 -0.0156
 5996W        W22070  15.573   4.705   2.879 -0.2355 -0.1839  0.0690
 5997W        W22071   6.640   8.511   1.888 -0.2348 -0.2554 -0.3569
 5998W        W22072  11.129   7.183   4.881 -0.0436 -0.2206 -0.0812
 5999W        W22073  11.478  13.436   0.394  0.0164 -0.1422 -0.4291
 6000W        W22074   6.273   9.838  13.636  0.1797  0.2805  0.1990
 6001W        W22075  15.715  17.353   3.820 -0.1336 -0.2565  0.4115
 6002W        W22076  17.545   2.736  12.449 -0.2190  0.0744  0.0087
 6003W        W22077   1.867  18.951  12.859 -0.3490 -0.1187 -0.2356
 6004W        W22078   1.962   6.874   5.430 -0.0978 -0.3515 -0.2260
 6005W        W22079  15.734   9.448   2.449  0.3932 -0.1100  0.1168
 6006W        W22080   6.871  10.182  13.039 -0.4836  0.4053  0.1060
 6007W        W22081  18.365   1.148   3.217 -0.1907 -0.2941 -0.0489
 6008W        W22082  16.966  13.653  14.505  0.1487 -0.0627 -0.1863
 6009W        W22083   7.536   6.375   2.192 -0.1713  0.3735 -0.3322
 6010W        W22084  17.018  19.035  13.241  0.0234 -0.0190 -0.1639
 6011W        W22085  17.628   6.241   3.869 -0.0314 -0.1729 -0.0598
 6012W        W22086  11.535   3.037   3.941 -0.1438 -0.2164  0.0941
 6013W        W22087  18.313   7.394  12.032  0.0331 -0.1041  0.3754
 6014W        W22088   2.413  10.204   1.006 -0.3310  0.1875  0.0944
 6015W        W22089  18.009  16.377  12.799  0.0390 -0.0454  0.2650
 6016W        W22090  16.436  17.293  13.642  0.3354 -0.0334 -0.1168
 6017W        W22091  11.056   9.227  13.035 -0.1324  0.0131 -0.0437
 6018W        W22092  15.908   9.054  12.660  0.0902  0.1786 -0.3612
 6019W        W22093  14.664   1.925  13.506 -0.2047  0.3213  0.0136
 6020W        W22094  15.531   8.639   3.464  0.0121 -0.1762 -0.1727
 6021W        W22095  17.976  17.787   1.211  0.0034  0.4352  0.4889
 6022W        W22096  14.424  14.947   1.634  0.1662 -0.1189 -0.2441
 6023W        W22097   0.572   6.735   2.091 -0.3636 -0.1984 -0.0355
 6024W        W22098  14.659   4.883  14.516  0.2088  0.0620  0.0707
 6025W        W22099   5.217  11.208  13.830 -0.2969 -0.0632  0.3860
 6026W        W22100   0.336  10.058  13.377 -0.0215 -0.0091  0.0812
 6027W        W22101  15.602  10.342  13.754  0.0881 -0.0233  0.0169
 6028W        W22102   2.666   3.887  13.396  0.0142 -0.1456  0.3060
 6029W        W22103   8.027   2.120   2.239  0.2970  0.1396 -0.1862
 6030W        W22104   1.139  11.790   3.708 -0.0944  0.0567 -0.1916
 6031W        W22105  15.347  15.022  10.776 -0.1283 -0.1958 -0.0087
 6032W        W22106  10.571  13.385   5.988 -0.0519  0.2285 -0.0232
 6033W        W22107   3.262  17.686  13.592  0.0299  0.0233  0.1248
 6034W        W22108  16.929   9.906   1.999 -0.0697  0.0432  0.3060
 6035W        W22109  16.412  11.050  13.903 -0.1951 -0.0015  0.0901
 6036W        W22110   0.347  18.003   9.468 -0.0555  0.2487  0.1365
 6037W        W22111  16.354   8.370  12.121 -0.0293 -0.0063 -0.4363
 6038W        W22112   1.561  12.217  10.150  0.2692  0.2368  0.0591
 6039W        W22113  19.090  11.506   9.823  0.0566 -0.1848 -0.0214
 6040W        W22114   7.044   0.324   4.856  0.0206 -0.0908 -0.0687
 6041W        W22115  14.355  13.601   5.023  0.0027  0.3787 -0.1342
 6042W        W22116   4.304  16.437  13.131  0.1290  0.2599 -0.0354
 6043W        W22117  13.931  11.984   3.445 -0.2405  0.2515 -0.1427
 6044W        W22118   7.272  16.926  10.242  0.0672 -0.0196  0.2009
 6045W        W22119  17.009  17.686   0.305  0.2548 -0.0089  0.2005
 6046W        W22120  12.942  14.811  14.608 -0.0063 -0.2138 -0.0887
 6047W        W22121   1.800  15.686  12.970 -0.0357  0.1265 -0.1335
 6048W        W22122   4.417  11.453   3.349  0.1580  0.3074  0.0331
 6049W        W22123   7.889  19.186  14.385 -0.1946 -0.2867 -0.1220
 6050W        W22124   4.269  18.520   1.005  0.2883 -0.1906  0.1950
 6051W        W22125   9.016  18.850   2.005  0.0618  0.4751 -0.0053
 6052W        W22126   6.486  10.306  11.767  0.4542 -0.5455 -0.0761
 6053W        W22127  17.776   7.483  14.581  0.1800 -0.4207 -0.2042
 6054W        W22128  16.103   9.672   5.131  0.3083  0.0553  0.0241
 6055W        W22129   7.407   6.351   3.937  0.1146  0.2369  0.0539
 6056W        W22130  15.333   6.354   4.050  0.1964 -0.0893 -0.2283
 6057W        W22131   4.490  12.631  14.467 -0.0478  0.2148 -0.2156
 6058W        W22132  10.308  17.501  10.017  0.1661  0.2831  0.1132
 6059W        W22133   3.672   0.498  13.568 -0.2233 -0.0473  0.0742
 6060W        W22134   3.017   0.788   1.685  0.0835 -0.1139  0.2102
 6061W        W22135   6.880   6.503   2.917  0.1191  0.0759  0.0578
 6062W        W22136  12.729  19.085   1.002  0.2897  0.0554 -0.1403
 6063W        W22137  12.270  15.454   2.205  0.1042  0.0470 -0.3352
 6064W        W22138  14.083   7.771   5.390  0.0656  0.0780 -0.0532
 6065W        W22139  16.766  11.016  10.962  0.1220 -0.2620 -0.0961
 6066W        W22140  12.777   5.013   2.766  0.3773 -0.1013  0.2139
 6067W        W22141   2.307  17.275   3.562 -0.5113  0.0804 -0.1199
 6068W        W22142   3.075   3.556  12.617  0.1469  0.0960  0.0309
 6069W        W22143  17.956  16.870  12.070  0.0822 -0.2744 -0.2278
 6070W        W22144  12.578   7.946  10.965 -0.4471 -0.1704  0.1793
 6071W        W22145   9.872   8.879  11.875 -0.2202  0.0164 -0.0585
 6072W        W22146  16.161   6.500   0.536 -0.1619 -0.1130  0.0398
 6073W        W22147  11.837  17.998   3.050 -0.4579 -0.1391 -0.3966
 6074W        W22148   6.389  10.709   3.636 -0.0330  0.2854  0.3825
 6075W        W22149  10.829   9.329  11.767 -0.1109  0.2011 -0.3084
 6076W        W22150   5.818  17.802   4.255  0.0219  0.1117  0.1491
 6077W        W22151  19.002   9.576   0.914 -0.2762  0.0056 -0.1312
 6078W        W22152   0.009   0.004  14.628  0.2227  0.1808  0.0309
 6079W        W22153  10.559   3.321  11.558 -0.1486 -0.1384 -0.0949
 6080W        W22154  18.457  10.518  13.381  0.3365  0.0558 -0.2354
 6081W        W22155   7.589   1.362   3.032  0.0713 -0.0240 -0.0415
 6082W        W22156   7.864  10.835  11.273  0.1052 -0.0004  0.2767
 6083W        W22157   5.921   3.140   0.454 -0.2417  0.0720  0.1215
 6084W        W22158  17.873  13.914  14.799  0.2262  0.2038 -0.1823
 6085W        W22159  19.124   1.552  13.415  0.1029  0.1269 -0.2407
 6086W        W22160  18.733  13.693   0.175 -0.2865 -0.0144 -0.2059
 6087W        W22161  13.500  17.294   4.702  0.0542 -0.1958  0.3692
 6088W        W22162   9.252   1.279  12.659 -0.1713  0.2224 -0.4690
 6089W        W22163  19.097   6.996   9.686  0.3600  0.2174 -0.3915
 6090W        W22164  16.062  19.130  14.909 -0.2358 -0.0199 -0.0381
 6091W        W22165   4.775  12.222   3.070  0.2559  0.0266  0.0132
 6092W        W22166   7.826   5.719  13.473 -0.0116  0.1481 -0.0617
 6093W        W22167  19.200  16.743   3.589  0.2014 -0.0506  0.2679
 6094W        W22168  18.337  10.149   0.251 -0.1406 -0.2090  0.3146
 6095W        W22169  14.087  14.940  12.813 -0.1258  0.1459 -0.2010
 6096W        W22170  13.732   1.596  11.800  0.2833  0.5128 -0.0892
 6097W        W22171   8.232  10.156   2.323 -0.0820 -0.1801  0.1041
 6098W        W22172   4.822   4.238  13.988  0.0025 -0.0340  0.1335
 6099W        W22173   8.155   1.436   2.827  0.1959  0.3805 -0.2062
 6100W        W22174   4.046   6.032  10.892  0.2475  0.2067 -0.0855
 6101W        W22175  17.264  10.474   0.912 -0.0901  0.3291  0.0297
 6102W        W22176  16.233   6.594   3.010 -0.0431 -0.1150  0.1656
 6103W        W22177   9.210   2.125  13.175  0.1371  0.2383 -0.0470
 6104W        W22178   7.794   9.356   3.037  0.0651 -0.1177 -0.0946
 6105W        W22179   5.902  10.421  13.377 -0.1123 -0.1702 -0.1936
 6106W        W22180   4.940  13.455   2.298  0.0169  0.1723 -0.2339
 6107W        W22181   3.976  10.996  13.848  0.0096 -0.1752  0.0052
 6108W        W22182   4.991  10.295  13.339 -0.1523  0.2057  0.0206
 6109W        W22183  18.322  13.557  14.712 -0.0138 -0.0313 -0.0221
 6110W        W22184  16.807   1.101  11.572  0.2092  0.0478  0.0882
 6111W        W22185   5.350   5.097  11.665  0.0248 -0.2824  0.1371
 6112W        W22186  16.679  15.325  14.749  0.0118 -0.1936 -0.1208
 6113W        W22187  15.081  10.152   1.460 -0.2331 -0.0055 -0.0571
 6114W        W22188   6.705   8.311   1.055 -0.1695 -0.0205  0.0495
 6115W        W22189   9.199  10.744   5.122  0.1063 -0.0378 -0.2230
 6116W        W22190  18.941  11.634  11.660 -0.0528 -0.2781 -0.0450
 6117W        W22191   7.627   4.242  12.510  0.2098 -0.3122  0.1554
 6118W        W22192   7.813   0.882  14.692  0.0212 -0.0864  0.2208
 6119W        W22193   3.994   3.114   2.153 -0.1004  0.0026 -0.0754
 6120W        W22194   7.319  17.672  10.459 -0.0443  0.1133  0.3306
 6121W        W22195   9.030   8.814   2.353 -0.1331 -0.1695  0.3384
 6122W        W22196   5.013  10.298   0.970  0.0180 -0.0579 -0.1023
 6123W        W22197  13.333  13.437  13.647  0.1419  0.1963  0.0943
 6124W        W22198   5.131   6.704   0.581  0.2053 -0.0237 -0.2351
 6125W        W22199   6.700   2.151  11.337 -0.2210  0.3074  0.1451
 6126W        W22200   7.257   1.946  14.522 -0.0696  0.0108 -0.0408
 6127W        W22201   4.845   9.583   3.270  0.0155  0.1490  0.1844
 6128W        W22202  17.296   2.034   1.895 -0.0231  0.1141  0.1543
 6129W        W22203  10.664  13.748  11.279  0.4247  0.2072  0.1091
 6130W        W22204  16.948   0.359  11.832  0.2488  0.2304  0.0828
 6131W        W22205   1.711  11.044   3.807 -0.0298 -0.3022  0.1731
 6132W        W22206  18.308   6.969   3.923  0.3386 -0.0912 -0.3122
 6133W        W22207   3.714  11.479  12.172  0.0040 -0.2038 -0.2174
 6134W        W22208  10.481   1.505   3.215  0.0665  0.3144  0.2629
 6135W        W22209  11.624  11.812   0.699 -0.2677 -0.0796 -0.2528
 6136W        W22210   9.468   8.151  14.022 -0.0544  0.4490 -0.0612
 6137W        W22211   0.756  13.425   1.657 -0.4029 -0.0045  0.0830
 6138W        W22212  17.532   0.891  11.773  0.0546 -0.3552  0.0510
 6139W        W22213  15.267   9.556   1.121  0.0726 -0.1790  0.2608
 6140W        W22214   4.104   4.279  14.031 -0.0895  0.1754 -0.1495
 6141W        W22215  16.827  12.681  12.098  0.0773 -0.5590 -0.3666
 6142W        W22216  13.203   2.236  12.121 -0.0760  0.1459  0.2147
 6143W        W22217   6.135   2.320  11.959  0.3292 -0.0552  0.0525
 6144W        W22218  14.506   7.126  13.220 -0.1712 -0.4033  0.1971
 6145W        W22219  13.782   3.428  14.999  0.1195  0.0259 -0.3285
 6146W        W22220  11.312   4.437  13.526 -0.0543 -0.0724 -0.0554
 6147W        W22221  13.048  13.437  11.748  0.0758 -0.0600  0.1027
 6148W        W22222   3.191  13.111   2.836  0.2588  0.2236  0.0800
 6149W        W22223   0.477  12.935  10.429  0.3865  0.2066  0.0793
 6150W        W22224  16.094   2.503   0.610  0.0626 -0.0350 -0.3324
 6151W        W22225   1.415  15.931   3.803 -0.2016 -0.0323  0.1078
 6152W        W22226   5.342  11.565   2.134 -0.0070 -0.1276  0.4778
 6153W        W22227  10.695  11.045  11.833 -0.0340  0.4473  0.0884
 6154W        W22228   0.478   8.174   1.387 -0.0555 -0.0659 -0.3308
 6155W        W22229  13.540   5.794   0.554 -0.1996 -0.0554 -0.2459
 6156W        W22230  10.378  18.714   3.848 -0.0804 -0.4278  0.3573
 6157W        W22231   5.760  11.477  11.562 -0.1047  0.0340 -0.4415
 6158W        W22232  16.363  13.970   2.560  0.1398 -0.2756  0.2291
 6159W        W22233  17.533  14.778   1.482  0.2713  0.0469  0.3120
 6160W        W22234  13.293  18.202   1.929 -0.1354  0.2866 -0.2117
 6161W        W22235   9.468  10.481   1.825  0.2486  0.0015  0.1312
 6162W        W22236  14.568  11.628   0.042  0.1073  0.1689 -0.0002
 6163W        W22237   0.911   9.308   5.082 -0.2005  0.0476 -0.2281
 6164W        W22238   8.802  16.682  12.375  0.1217 -0.0704 -0.0271
 6165W        W22239  12.261   1.723   1.583 -0.0280 -0.1934 -0.2440
 6166W        W22240   3.850   0.477   3.650 -0.0851 -0.1683 -0.1342
 6167W        W22241  11.142   2.585  13.235  0.0971 -0.3608 -0.0394
 6168W        W22242   4.079   8.319   4.611  0.0368  0.0846  0.1742
 6169W        W22243  18.474  14.051  11.579  0.1734  0.2543  0.1670
 6170W        W22244  13.430  13.589   2.265 -0.3718 -0.2083  0.1575
 6171W        W22245   9.658   5.160   2.627 -0.2539 -0.0797  0.2106
 6172W        W22246  11.565  17.735   2.227 -0.0924 -0.2507 -0.3588
 6173W        W22247   9.245  10.393  12.828  0.0785 -0.3262  0.0945
 6174W        W22248   2.853   8.697  14.518 -0.2132  0.0174  0.1747
 6175W        W22249  18.844   8.668   2.647 -0.4590  0.1545  0.0489
 6176W        W22250   9.307   8.376   4.074  0.1319 -0.2731  0.2502
 6177W        W22251   0.667   7.533   2.438 -0.0643  0.0792  0.1034
 6178W        W22252   5.903  14.716  12.772 -0.0896  0.0697  0.0854
 6179W        W22253  14.465  10.577   3.960  0.2743  0.2694 -0.2468
 6180W        W22254   7.679   8.113  12.093 -0.0900 -0.0583  0.2366
 6181W        W22255   9.999  17.179  12.659 -0.1125  0.4814 -0.2147
 6182W        W22256   6.164  17.992  13.008 -0.1056 -0.0491 -0.2129
 6183W        W22257  15.424   5.547   2.760 -0.1968  0.0877 -0.0346
 6184W        W22258   8.923  18.672   0.442  0.1027  0.0530 -0.4731
 6185W        W22259   4.086  17.940   3.828  0.3142 -0.0387 -0.0755
 6186W        W22260  18.420  13.253  14.335  0.1290  0.3176  0.1248
 6187W        W22261   7.913   3.110  11.842 -0.1565  0.4953 -0.1793
 6188W        W22262   7.550   2.651  11.698  0.1883  0.0531  0.3226
 6189W        W22263  14.856   5.538  11.176 -0.1560 -0.1957  0.0425
 6190W        W22264  18.484   3.695   4.195  0.2229  0.1362 -0.1192
 6191W        W22265   4.811   5.090  10.898  0.1738 -0.3707  0.0454
 6192W        W22266   5.969  18.002   1.213  0.1600  0.0493  0.0185
 6193W        W22267  17.541  19.013   0.933  0.3620 -0.1624 -0.1899
 6194W        W22268  12.096   4.035  11.591  0.1110 -0.1684  0.0144
 6195W        W22269   9.270  15.802  11.723  0.1770  0.5731 -0.0888
 6196W        W22270   5.052  12.912   3.634 -0.1134  0.0005 -0.2751
 6197W        W22271  16.141  12.902   1.606 -0.2416  0.2750 -0.0310
 6198W        W22272   0.669  11.950  11.406  0.2566 -0.1049 -0.2333
 6199W        W22273  16.460  12.215   2.462  0.1318 -0.3078 -0.0193
 6200W        W22274   2.261  16.035  11.713 -0.0037 -0.2796  0.0209
 6201W        W22275   0.442  10.043  11.815  0.0374  0.1607 -0.0678
 6202W        W22276  10.895   4.468   2.618 -0.2155 -0.3684  0.1731
 6203W        W22277  14.714  17.774  10.868 -0.2356 -0.2749  0.2410
 6204W        W22278  18.280   4.221  13.536 -0.0076  0.0844  0.2355
 6205W        W22279  17.487  15.100   0.261 -0.1313  0.0940  0.2060
 6206W        W22280   8.719   7.423   2.470  0.0645 -0.2339  0.1448
 6207W        W22281  19.137   3.797  13.620  0.3035 -0.0773 -0.2271
 6208W        W22282  14.754   1.965  10.172 -0.0963  0.0112  0.2384
 6209W        W22283   8.302   0.724  13.004 -0.0657  0.3391  0.2401
 6210W        W22284  12.505  12.978   1.790 -0.2872 -0.1139  0.0984
 6211W        W22285   5.282  10.409   3.275  0.1151 -0.0221 -0.0132
 6212W        W22286   5.511   6.464   4.165  0.2265 -0.0612  0.1027
 6213W        W22287  10.077   9.728  11.206  0.0705  0.3247 -0.1277
 6214W        W22288   2.386   4.551   2.244 -0.1651  0.1279  0.1040
 6215W        W22289   4.628   1.528  11.392  0.0548  0.0683  0.2935
 6216W        W22290  16.832   9.186   0.825  0.1784 -0.1069  0.0070
 6217W        W22291  18.807   6.834  12.818  0.3284 -0.0283 -0.3940
 6218W        W22292   4.570   1.339   3.825 -0.0662  0.1769  0.1620
 6219W        W22293   7.231  11.031   0.450 -0.0981  0.0979 -0.1315
 6220W        W22294  17.270  10.054  15.017 -0.1061  0.2901  0.1033
 6221W        W22295  13.991  14.174   0.614 -0.2140 -0.1156  0.1311
 6222W        W22296  15.138  13.885  11.981 -0.2560 -0.3181  0.0629
 6223W        W22297  12.940   9.218  11.273  0.0977  0.3059 -0.1348
 6224W        W22298   1.578   8.209  12.336  0.1505 -0.0257  0.2717
 6225W        W22299   0.211  11.329  12.582 -0.1082 -0.1634  0.1616
 6226W        W22300   7.569   8.088   2.453  0.1610 -0.1199 -0.2789
 6227W        W22301  10.576   5.931  12.940  0.3466 -0.4949 -0.1706
 6228W        W22302  10.661   8.987   1.220  0.0738  0.1176 -0.2397
 6229W        W22303   5.249   5.283  11.131 -0.0833  0.3977 -0.1916
 6230W        W22304  12.732   1.374  11.243  0.0029 -0.2495 -0.2793
 6231W        W22305   6.168   0.016  10.882 -0.0307 -0.0383 -0.2046
 6232W        W22306   1.957   4.600  10.130 -0.3184  0.0640 -0.2000
 6233W        W22307   6.276  18.287  10.771 -0.1369  0.1171  0.1966
 6234W        W22308   0.241   9.162   0.227 -0.0400  0.2028  0.0249
 6235W        W22309  14.709   7.484   3.474  0.0598 -0.0314  0.0594
 6236W        W22310  11.479  11.997   5.700  0.0090  0.0890  0.3466
 6237W        W22311  10.957  18.789   1.743  0.2602 -0.0088  0.2099
 6238W        W22312   6.703   9.807   0.144  0.2332  0.1119  0.1160
 6239W        W22313   5.190   6.503  14.247 -0.0512 -0.0593  0.1765
 6240W        W22314   4.463   8.257   1.826  0.0010  0.0500  0.3774
 6241W        W22315  13.809  14.640  10.358 -0.0113  0.1049  0.0368
 6242W        W22316  12.783  18.557   3.507  0.2235 -0.0172  0.0878
 6243W        W22317  18.063   4.110   0.212 -0.1892  0.0530  0.0434
 6244W        W22318   9.998   0.967  11.530 -0.0572 -0.2125  0.0072
 6245W        W22319   3.979   9.665  10.984 -0.0626  0.1702 -0.1298
 6246W        W22320   2.749  14.364   4.921  0.2147 -0.3044  0.0306
 6247W        W22321  14.606  10.798   3.511 -0.2937 -0.1527 -0.0215
 6248W        W22322   7.873  12.658  14.493 -0.1474  0.1580 -0.1694
 6249W        W22323  16.548   9.603   0.506  0.4335  0.2182  0.4129
 6250W        W22324  17.479  18.696   2.694  0.2870  0.3382  0.3036
 6251W        W22325  17.314  17.985   3.257  0.1318  0.0911  0.0019
 6252W        W22326  11.439   4.432  12.796  0.2329 -0.0573 -0.1091
 6253W        W22327  12.438   0.482  13.518  0.2131  0.0951  0.0190
 6254W        W22328   3.758  12.501   0.193 -0.0216 -0.0477 -0.0730
 6255W        W22329   3.768   5.025   4.503 -0.2540 -0.0178 -0.4171
 6256W        W22330  10.161  18.063  13.632 -0.0643 -0.0579 -0.3176
 6257W        W22331   6.280  17.456  12.220 -0.0013  0.1461 -0.2126
 6258W        W22332   0.352   6.903  10.922  0.0794  0.2926 -0.0118
 6259W        W22333   0.404   0.977   3.958  0.1766 -0.0633 -0.2845
 6260W        W22334   5.895   9.250  12.939  0.1495 -0.0383  0.3798
 6261W        W22335   2.653  12.597  12.057 -0.4552  0.1992  0.2896
 6262W        W22336   7.953   4.539  14.871 -0.1764 -0.1763  0.3595
 6263W        W22337   0.370   7.047  14.552  0.2138  0.0096 -0.2378
 6264W        W22338   6.919   3.538   0.545  0.2291 -0.0822  0.0235
 6265W        W22339  15.238   9.934   3.956  0.1107 -0.2809 -0.0572
 6266W        W22340   9.201  10.876   2.172  0.1114 -0.1815  0.3540
 6267W        W22341  15.982   3.471   4.183 -0.0721 -0.4443 -0.3768
 6268W        W22342  13.792   3.816  14.678 -0.3053 -0.0718  0.1103
 6269W        W22343  15.045   9.049   0.665 -0.2886  0.0992  0.0199
 6270W        W22344   6.336   4.789  13.690  0.0978 -0.0460 -0.1876
 6271W        W22345  17.740  15.913  10.723  0.0509 -0.4007  0.2516
 6272W        W22346  12.609  10.621  14.227 -0.1813  0.2717  0.0027
 6273W        W22347  10.314   8.486   1.417  0.2150 -0.1447 -0.4524
 6274W        W22348   1.269   4.673   1.884 -0.1811 -0.0569  0.0238
 6275W        W22349   4.596   9.727  12.338 -0.0663  0.2790 -0.0984
 6276W        W22350  12.051  11.981   5.012  0.0522  0.0238 -0.1386
 6277W        W22351   2.283  16.420   4.832  0.0970  0.2116  0.1883
 6278W        W22352   3.272  14.350  10.971  0.1164  0.2992  0.1272
 6279W        W22353  18.394   6.020  13.080  0.2396 -0.0197  0.1516
 6280W        W22354  12.037   6.514   5.004 -0.2034 -0.1962  0.1565
 6281W        W22355  11.253   3.225   1.815  0.1126  0.1024  0.0818
 6282W        W22356  14.308  12.751   0.734 -0.0739  0.1007 -0.0214
 6283W        W22357   5.712   3.695   4.392 -0.1985 -0.0131  0.0155
 6284W        W22358   2.681   7.142  11.500  0.0421 -0.0965 -0.2186
 6285W        W22359   0.413  10.188   3.096 -0.1211  0.1406 -0.0691
 6286W        W22360  18.893  18.975   1.769 -0.4073  0.1432 -0.1051
 6287W        W22361  15.752   0.032  12.410 -0.3237  0.0765 -0.2693
 6288W        W22362   6.020  14.174   4.753  0.1840 -0.1447 -0.1097
 6289W        W22363  11.452  12.788   0.485 -0.0072  0.1629  0.2008
 6290W        W22364   7.166   5.601  12.283 -0.0553  0.0265 -0.0566
 6291W        W22365   1.026   0.024   0.958  0.0575  0.2775  0.3025
 6292W        W22366   4.707   7.712   1.903 -0.2028  0.1836 -0.6667
 6293W        W22367   3.212  10.035  12.272  0.5106  0.3743  0.0970
 6294W        W22368  10.729   5.421   0.515  0.0028 -0.0739 -0.1349
 6295W        W22369   7.599  14.538  11.709 -0.2227  0.0598 -0.0122
 6296W        W22370   2.425   0.825   3.061  0.0141  0.0146 -0.2475
 6297W        W22371   7.699  12.838  10.753  0.2289  0.4383  0.2159
 6298W        W22372   7.118  14.470  14.609 -0.3660  0.4569  0.2058
 6299W        W22373  14.356   5.007   0.884  0.6527 -0.0287  0.1328
 6300W        W22374  18.402  16.741   2.064 -0.1515 -0.4148  0.4048
 6301W        W22375   4.610   4.357   1.916 -0.1698  0.1660 -0.3789
 6302W        W22376  16.224  11.514   2.236 -0.1726 -0.1050  0.0712
 6303W        W22377   9.420   4.278   3.036 -0.2473  0.0122 -0.0230
 6304W        W22378   4.733  11.800   3.542  0.2809 -0.2788 -0.0845
 6305W        W22379  19.008  17.079  13.956  0.0478 -0.0727 -0.1073
 6306W        W22380  13.432  17.328  11.363  0.2331  0.2002 -0.3088
 6307W        W22381   1.477   4.984   9.257  0.0278  0.2136 -0.0068
 6308W        W22382   7.997   9.868   4.095  0.2672  0.0430  0.2449
 6309W        W22383  12.425   0.360   2.489 -0.2167  0.0358  0.4494
 6310W        W22384  15.471   6.468  11.986  0.0185  0.0121  0.2645
 6311W        W22385   2.590  13.281  10.824  0.3391 -0.3429  0.1215
 6312W        W22386  14.376  14.033   2.432 -0.0507 -0.0748  0.3974
 6313W        W22387   5.682  18.026  11.802 -0.2353  0.1619  0.2054
 6314W        W22388   4.775  13.959   3.814  0.0240  0.2304 -0.0177
 6315W        W22389   5.183   4.696   4.809 -0.1756 -0.0900 -0.0562
 6316W        W22390  14.798   1.232  11.950 -0.1985  0.1893 -0.5247
 6317W        W22391   1.285   9.656  12.965  0.1125  0.2051 -0.2566
 6318W        W22392   9.719  15.289   2.996 -0.1881  0.3017 -0.1381
 6319W        W22393   9.436   5.312  13.640  0.0283  0.4347 -0.0718
 6320W        W22394   7.737  12.273  14.843  0.0518 -0.1813 -0.1017
 6321W        W22395   2.907   2.556   5.341  0.2499  0.1077  0.1496
 6322W        W22396  12.686   8.731   5.962 -0.0032 -0.1661  0.1305
 6323W        W22397   3.428   5.732   5.180  0.0080 -0.0465  0.0311
 6324W        W22398   9.402  11.590   4.778 -0.0581  0.1625 -0.0886
 6325W        W22399  12.901   3.585   2.918  0.1257 -0.2179 -0.2779
 6326W        W22400   4.861   6.869  14.752  0.2225  0.5082 -0.2549
 6327W        W22401  11.050  12.721  10.800  0.0536  0.1736  0.0483
 6328W        W22402   4.670   0.770   2.413  0.1479  0.1361  0.1069
 6329W        W22403  15.729  18.742   2.460  0.3551 -0.0025  0.0210
 6330W        W22404   4.834   4.969   3.613  0.1579 -0.0746 -0.0188
 6331W        W22405   9.492   4.952  14.314  0.2107 -0.1060 -0.3408
 6332W        W22406  13.246  17.321  10.872  0.2239 -0.2853  0.1322
 6333W        W22407   9.333  14.337  14.923 -0.1736  0.3200  0.2412
 6334W        W22408   0.616  13.995   4.245  0.0043  0.1658 -0.0287
 6335W        W22409  13.683  11.870  13.681  0.2339 -0.2561 -0.0384
 6336W        W22410   8.372   2.389   3.530  0.1137  0.0316  0.3272
 6337W        W22411   1.731   4.102  13.354  0.1269  0.3286  0.0757
 6338W        W22412   0.264   6.279  13.696  0.1792  0.0972  0.3947
 6339W        W22413   1.114   6.835   0.045 -0.0792 -0.0031  0.1521
 6340W        W22414   0.530   4.860   5.061 -0.2469  0.2545 -0.2176
 6341W        W22415   1.884   2.419  15.037  0.4558  0.1011 -0.0741
 6342W        W22416   2.368  19.113  14.696  0.0927  0.0156 -0.1413
 6343W        W22417   9.362   8.200  12.336  0.1827 -0.0482  0.0409
 6344W        W22418  16.394  13.128   3.079  0.0221 -0.1017  0.4069
 6345W        W22419  18.436   7.836  10.453  0.3279  0.1438 -0.1283
 6346W        W22420   4.712  16.550  11.832 -0.0341 -0.0740 -0.1797
 6347W        W22421  15.441  12.985  12.466  0.2817  0.1561  0.2094
 6348W        W22422   8.694   1.193  11.525  0.2147  0.1222 -0.2205
 6349W        W22423  13.271   3.081  10.799 -0.1067  0.2605 -0.1553
 6350W        W22424   7.110  12.830  13.311  0.1301  0.3199  0.3490
 6351W        W22425   1.552  10.748   0.491  0.1096  0.2344  0.3051
 6352W        W22426   5.436   2.619  11.775 -0.2924 -0.0974  0.0839
 6353W        W22427  13.341  13.181   3.654 -0.3746 -0.2022  0.1062
 6354W        W22428   0.700   3.927  11.018  0.3006 -0.0426 -0.0049
 6355W        W22429  10.678  12.612   1.849 -0.2929  0.0118  0.3918
 6356W        W22430  10.321  15.144   4.164  0.1351  0.2427 -0.0849
 6357W        W22431  12.147  15.881  13.370 -0.1949 -0.0832 -0.1581
 6358W        W22432  17.216  18.343  11.357  0.1723 -0.0839  0.0939
 6359W        W22433   2.855   9.550  14.743  0.2143 -0.2496 -0.1520
 6360W        W22434  10.828   6.479   3.232 -0.1069  0.0763 -0.2387
 6361W        W22435   9.281   1.256  14.617 -0.1245 -0.2632 -0.1585
 6362W        W22436  12.817  12.797  13.911 -0.1771  0.1485 -0.1041
 6363W        W22437  14.337   3.049   1.654 -0.0810 -0.1742 -0.2006
 6364W        W22438   6.218  15.872   2.220 -0.4013  0.4428 -0.0528
 6365W        W22439  18.632   2.004  11.542  0.2304  0.0630  0.2813
 6366W        W22440   3.898   0.265  13.949  0.2030  0.1056 -0.2682
 6367W        W22441  11.732   1.532  11.088 -0.1247 -0.0203 -0.1194
 6368W        W22442   9.950  14.882   0.466 -0.0543  0.1719 -0.1796
 6369W        W22443  14.486  14.065  10.607  0.1692  0.1266  0.2170
 6370W        W22444   8.544  10.950   0.844  0.0212  0.0714 -0.4476
 6371W        W22445  18.765   2.311   1.101  0.2434 -0.0034  0.1086
 6372W        W22446   0.503  17.517   4.351 -0.5062  0.1782  0.0447
 6373W        W22447  13.230  16.280   2.045 -0.2172  0.0969 -0.0016
 6374W        W22448   6.523  11.694   1.193  0.0254 -0.0274 -0.0112
 6375W        W22449  16.522  19.269  10.018 -0.0993  0.0316  0.1347
 6376W        W22450  14.800   4.215  13.648 -0.1736 -0.0853  0.0309
 6377W        W22451   0.425  10.562  13.130 -0.1186 -0.0072 -0.1349
 6378W        W22452  13.504   0.166  12.842 -0.0691 -0.1812 -0.1405
 6379W        W22453  15.916  13.295   9.616 -0.1099  0.0507 -0.1991
 6380W        W22454   5.101  14.826   4.197 -0.0215 -0.2973  0.3488
 6381W        W22455  16.232   9.942   9.832 -0.0671  0.0624 -0.1401
 6382W        W22456   2.975   3.453   4.705 -0.0352  0.0066 -0.1336
 6383W        W22457  19.240   9.738   4.074 -0.5119  0.1052 -0.1145
 6384W        W22458  15.507   2.863   4.318  0.1034 -0.2244  0.1433
 6385W        W22459  15.548  18.807   2.016  0.2351 -0.0217 -0.1510
 6386W        W22460  15.153   0.685  14.672  0.2828  0.0825 -0.0263
 6387W        W22461   2.858  13.858   3.870 -0.6106 -0.0681 -0.1476
 6388W        W22462  12.796  19.124   4.256  0.0852 -0.2300 -0.2837
 6389W        W22463  19.170  15.337  10.913 -0.2335 -0.0255  0.1904
 6390W        W22464  17.988  11.578  12.678  0.1005  0.1952 -0.0484
 6391W        W22465   6.316   5.095   4.641 -0.1835 -0.3859  0.0946
 6392W        W22466  14.864   6.067  14.587 -0.0872 -0.1222 -0.0919
 6393W        W22467  11.101  17.797  12.723 -0.3708  0.0839  0.2870
 6394W        W22468   9.141  14.083   0.663  0.1378 -0.0916 -0.3377
 6395W        W22469   7.630  14.511   1.714  0.0628 -0.1118  0.5246
 6396W        W22470   5.767  17.473  11.442  0.1447 -0.1551 -0.0471
 6397W        W22471  10.340   3.671  14.829 -0.1389 -0.2768  0.0164
 6398W        W22472  14.323  18.956  12.453  0.2185  0.0732 -0.0606
 6399W        W22473   8.066   4.666   9.747 -0.0738 -0.2696  0.2609
 6400W        W22474  15.569  14.047   4.700 -0.1940 -0.1739  0.2125
 6401W        W22475  16.039  12.577   4.650  0.3959 -0.2306 -0.0927
 6402W        W22476  12.985  10.338   2.944 -0.1099  0.0376  0.0078
 6403W        W22477  14.605  18.767  12.806  0.0167  0.0202  0.1361
 6404W        W22478  18.442   2.674  12.914 -0.1481  0.2103  0.0097
 6405W        W22479  19.099  17.474  14.289  0.0156 -0.0496  0.0153
 6406W        W22480  14.938   3.623  11.380  0.0771  0.1025  0.0185
 6407W        W22481   3.627  19.151  12.130 -0.0227 -0.1879 -0.0288
 6408W        W22482   7.284  13.524   5.322  0.1310  0.1803  0.1361
 6409W        W22483  16.572   1.436  11.300  0.1790  0.0028  0.2979
 6410W        W22484   7.201  18.768  12.042  0.1275  0.5915 -0.3206
 6411W        W22485   8.265   1.445   1.471 -0.0607  0.0869 -0.0782
 6412W        W22486  18.469   7.867  12.858 -0.0116  0.0353  0.0271
 6413W        W22487  13.477   0.760   3.386  0.1983 -0.0046  0.0126
 6414W        W22488   1.985   9.400   0.238  0.2036  0.0006 -0.0074
 6415W        W22489   4.081  17.690  12.350  0.0320  0.1089 -0.0810
 6416W        W22490  16.263  17.239   1.488  0.0005  0.0685  0.2782
 6417W        W22491   4.620  19.146   2.603 -0.1695  0.2077  0.1936
 6418W        W22492   2.027  12.391   1.157 -0.0682  0.2309 -0.0156
 6419W        W22493   3.082   3.709   2.171 -0.1457 -0.2232 -0.0677
 6420W        W22494  10.494   8.768  11.507 -0.3726  0.5327 -0.0782
 6421W        W22495  15.199   2.362   0.924 -0.2949  0.0689  0.2902
 6422W        W22496   0.102  12.885   9.079 -0.0866 -0.3051 -0.0245
 6423W        W22497   7.895  10.311   4.915  0.1658  0.2096  0.1132
 6424W        W22498  11.304   2.536   4.010 -0.3398  0.4664 -0.0058
 6425W        W22499   1.054   3.899  10.610  0.2600 -0.0468 -0.0231
 6426W        W22500   6.815  14.314  13.945  0.1207 -0.0861 -0.0571
 6427W        W22501   2.751  16.256   4.987 -0.0790  0.2239  0.1282
 6428W        W22502   2.854  16.091   2.217  0.1543 -0.0197  0.3186
 6429W        W22503   5.607  17.985  13.014  0.1137  0.0454 -0.0483
 6430W        W22504   2.385  16.039   2.307  0.2486  0.2627 -0.0847
 6431W        W22505   6.087   2.371  14.201 -0.0016  0.1797 -0.1406
 6432W        W22506  11.372  12.180  14.745  0.0460  0.0744 -0.0240
 6433W        W22507   3.378   7.799   2.124 -0.1382 -0.0470 -0.2374
 6434W        W22508   8.157  18.636  12.922 -0.2617 -0.1308  0.1853
 6435W        W22509   0.374   3.730   2.266 -0.2264 -0.0905  0.5219
 6436W        W22510   5.119   1.952   2.804  0.3417 -0.1566  0.0438
 6437W        W22511   8.628  10.254   1.227  0.0359  0.1398  0.0304
 6438W        W22512   1.029   6.009  13.227 -0.1029  0.2078 -0.0855
 6439W        W22513  14.191   7.089  13.609 -0.1100 -0.0134  0.0459
 6440W        W22514   6.784  17.501   2.242  0.3129 -0.0582  0.1329
 6441W        W22515  15.864  15.055   3.547 -0.2390 -0.0399 -0.1606
 6442W        W22516   3.354  11.574   3.836 -0.2074  0.0676  0.1481
 6443W        W22517   0.551  15.660   0.934  0.1966  0.0268 -0.1322
 6444W        W22518   5.180   1.460  11.359  0.3170  0.0503  0.0462
 6445W        W22519  11.709   0.477  10.335 -0.0902 -0.1117  0.0926
 6446W        W22520   2.178  16.769  12.130 -0.2444 -0.1438  0.0119
 6447W        W22521   8.033  10.597   5.277 -0.1931 -0.0938 -0.2450
 6448W        W22522  16.219  15.369   1.676  0.1103 -0.1107 -0.2059
 6449W        W22523  10.507   3.785   3.427  0.1584  0.0431 -0.1242
 6450W        W22524   9.713   9.210  11.224 -0.1341  0.0279 -0.1913
 6451W        W22525  13.687  19.287  11.043 -0.0484 -0.0744 -0.0213
 6452W        W22526  13.695  13.513   1.616 -0.2244 -0.0144  0.1491
 6453W        W22527  18.088   0.014   1.447  0.3057  0.4331 -0.0257
 6454W        W22528  11.715   6.242   1.754 -0.1946  0.1480  0.0974
 6455W        W22529  13.839   4.244   4.242 -0.0418  0.1601 -0.2304
 6456W        W22530   8.018  16.049  13.747 -0.0191 -0.1213  0.0383
 6457W        W22531  17.674  17.093  10.266  0.0847  0.0266 -0.0439
 6458W        W22532   5.675   1.266   2.349 -0.2414 -0.0347  0.1663
 6459W        W22533  12.237   8.917   1.256 -0.0902 -0.5348 -0.1326
 6460W        W22534  14.379  12.878   1.873 -0.0729  0.0907  0.3039
 6461W        W22535  13.569  15.442  11.969  0.0653  0.2334 -0.6025
 6462W        W22536  13.997   9.585   2.197 -0.0079  0.0401  0.0842
 6463W        W22537  18.719   1.322  11.046  0.0464 -0.0130  0.3371
 6464W        W22538   1.793  16.490  12.396 -0.2428  0.0792  0.1042
 6465W        W22539  17.010  12.479   0.529 -0.1009  0.1128  0.2597
 6466W        W22540   9.442  11.907   3.085 -0.2226 -0.2412 -0.1422
 6467W        W22541  12.902   9.947  12.520 -0.2208 -0.1826 -0.3007
 6468W        W22542   4.845  19.166   3.946  0.1343 -0.1760 -0.1257
 6469W        W22543   2.995  12.999   4.945 -0.1277  0.0285 -0.1143
 6470W        W22544   6.700  10.831  11.743  0.3585 -0.1517 -0.0836
 6471W        W22545   0.752   6.252   4.630 -0.2358 -0.0412 -0.2450
 6472W        W22546  13.735   0.820  13.190  0.0228  0.1246  0.0803
 6473W        W22547  12.517   5.015   0.613  0.0928  0.1889  0.3687
 6474W        W22548   7.432  16.112   3.827  0.0904 -0.4039  0.1818
 6475W        W22549  15.224  17.966   1.715  0.0885  0.1349  0.1081
 6476W        W22550  19.079   9.770   2.022 -0.2398  0.1473 -0.0080
 6477W        W22551  15.755   7.094   5.271 -0.2301 -0.0870  0.0060
 6478W        W22552  15.082  12.616  12.334  0.3504 -0.1044 -0.1026
 6479W        W22553  15.789  13.800  10.308 -0.1241  0.1148 -0.1285
 6480W        W22554  10.251  13.406  12.415  0.1802 -0.1685 -0.2761
 6481W        W22555  16.524  16.220  13.843 -0.1472 -0.2231 -0.0136
 6482W        W22556   4.263  16.533   0.495  0.0531  0.0779 -0.1710
 6483W        W22557   2.072   0.658   4.472  0.3340 -0.0733  0.0070
 6484W        W22558   0.460   6.180   0.938 -0.0631 -0.1410  0.1310
 6485W        W22559  17.965   4.958  12.400 -0.0043 -0.0337 -0.0816
 6486W        W22560  13.119  12.449  11.051  0.0755  0.0588 -0.1032
 6487W        W22561   5.642   0.822   9.611 -0.1250  0.0345  0.0180
 6488W        W22562  18.591   5.088  13.180  0.0750 -0.0584  0.1486
 6489W        W22563  17.906   9.757   0.882 -0.3118  0.2346  0.0827
 6490W        W22564   5.668   8.593  12.566 -0.3046  0.0773  0.0077
 6491W        W22565   6.430   3.598   2.228 -0.1242  0.2004  0.0046
 6492W        W22566  13.807   4.195  12.487 -0.0191 -0.0783 -0.2341
 6493W        W22567   2.506   9.905  14.642  0.2480 -0.2287  0.0469
 6494W        W22568   8.432   8.225   3.522  0.1232 -0.2382 -0.0404
 6495W        W22569   3.692  14.202   2.209  0.2423  0.2217  0.0424
 6496W        W22570  13.416  13.421  10.096  0.0788 -0.3104  0.3892
 6497W        W22571   0.528  15.008  13.187 -0.1002 -0.0620  0.3201
 6498W        W22572   4.266   6.188   2.371  0.3397  0.1758  0.1416
 6499W        W22573   5.533   1.623  11.726  0.0246 -0.2739  0.1882
 6500W        W22574  13.584   3.167   2.459  0.1486 -0.4916  0.0436
 6501W        W22575   3.848  18.496  11.053 -0.4633 -0.0956 -0.3346
 6502W        W22576  17.957   9.273   1.060 -0.2414 -0.0913  0.1264
 6503W        W22577  17.746   8.562  11.316  0.0537 -0.1250  0.5492
 6504W        W22578  13.662   4.096   5.405  0.3051 -0.2149 -0.1487
 6505W        W22579  13.408   3.773  12.498 -0.3414 -0.1812 -0.3289
 6506W        W22580   1.368   7.553  14.044 -0.0198  0.1850  0.0547
 6507W        W22581   1.074   4.926   0.061 -0.4268 -0.2368  0.4119
 6508W        W22582  13.635   6.366  12.893 -0.1365  0.0891 -0.3866
 6509W        W22583  14.008  11.708   3.985  0.0469 -0.2353  0.1869
 6510W        W22584   4.967  12.160   5.502  0.0397 -0.2734 -0.2957
 6511W        W22585   0.478   3.494   0.775 -0.0905  0.2522 -0.1363
 6512W        W22586   3.474  10.120  10.771 -0.1936  0.2294 -0.1268
 6513W        W22587   0.839   6.064  14.458 -0.2643 -0.2993 -0.0885
 6514W        W22588  13.694  17.982   3.349 -0.1073  0.3970  0.0766
 6515W        W22589   6.825  17.127  11.927 -0.0757 -0.1085 -0.1658
 6516W        W22590  13.710   5.155  13.650 -0.1864 -0.1012 -0.0023
 6517W        W22591   4.665   6.025  12.492  0.0910  0.0646  0.2363
 6518W        W22592   3.121   4.670   4.866  0.3503  0.2998 -0.0230
 6519W        W22593   3.523  15.955   4.658  0.0731 -0.0117 -0.0450
 6520W        W22594  11.112   3.158  11.094 -0.1542 -0.1487 -0.0010
 6521W        W22595  10.989   6.953  14.738  0.1105  0.3904  0.0668
 6522W        W22596  10.998  14.729   3.676  0.1905  0.1708 -0.1065
 6523W        W22597  13.285   0.896   0.822 -0.1169  0.0605 -0.0474
 6524W        W22598   8.373  14.814   1.622 -0.2966  0.0318  0.1525
 6525W        W22599  13.488  18.807   2.635  0.0883 -0.0672  0.3495
 6526W        W22600  18.472   0.405   3.637  0.0274  0.1941 -0.1148
 6527W        W22601  13.782  18.813   2.157  0.1792 -0.0653  0.1839
 6528W        W22602   2.267  13.795   2.383  0.1905  0.0128  0.2983
 6529W        W22603  13.862   4.018   0.774  0.1279 -0.0841  0.1852
 6530W        W22604  11.887  10.695   2.785  0.1683  0.0034  0.2729
 6531W        W22605   9.826   5.685   1.147  0.1024 -0.1295 -0.1311
 6532W        W22606   2.899   7.475   1.917  0.0344  0.3503  0.1281
 6533W        W22607  15.218  13.288  11.115 -0.2765 -0.4654  0.1341
 6534W        W22608  12.509  15.553   0.375 -0.2124 -0.2443 -0.3301
 6535W        W22609   8.651   4.568  13.689 -0.1971  0.0445  0.1061
 6536W        W22610  13.657   8.915  14.550  0.0884 -0.1508 -0.1839
 6537W        W22611   1.023   2.718  14.789 -0.0481  0.2364  0.1145
 6538W        W22612  14.733  13.149   4.991 -0.0329  0.0784  0.0931
 6539W        W22613   7.427   4.028   1.613 -0.1909 -0.0301  0.2267
 6540W        W22614   5.911  17.001  11.509 -0.1932 -0.1465  0.3164
 6541W        W22615  13.366  16.479   0.759  0.0956  0.0710  0.2183
 6542W        W22616  15.320  17.739  14.915 -0.0143 -0.2662 -0.0897
 6543W        W22617   5.305   9.835   0.975  0.2603 -0.1954 -0.0081
 6544W        W22618  17.356  18.605  13.482  0.1481 -0.0064 -0.0824
 6545W        W22619  14.153   7.830   4.215 -0.1734  0.0404 -0.1564
 6546W        W22620   7.624   7.809   0.736 -0.1012  0.1266 -0.2086
 6547W        W22621   6.760   5.479  12.729  0.1587 -0.0894 -0.1142
 6548W        W22622   9.260   1.889   2.739  0.1099 -0.1408 -0.1404
 6549W        W22623   4.775   3.415   4.357 -0.1591  0.1383 -0.1051
 6550W        W22624  10.461   0.397  13.154 -0.1072  0.2534 -0.1173
 6551W        W22625   1.752   7.303  14.103  0.0303  0.1239 -0.2725
 6552W        W22626  10.118   4.544  12.942  0.0688  0.1870  0.3070
 6553W        W22627  16.924   4.992   2.583  0.2441 -0.1273 -0.2341
 6554W        W22628  15.199  18.562   3.682  0.1380 -0.1410  0.2941
 6555W        W22629   4.058  18.068  10.866 -0.0865  0.3092  0.0507
 6556W        W22630  17.310   7.125  14.594  0.0927  0.2270  0.2823
 6557W        W22631  15.827   5.692   0.773 -0.0813 -0.1953  0.0967
 6558W        W22632  17.802  13.913  13.890  0.0906  0.2436 -0.2182
 6559W        W22633   6.290  15.194  11.743  0.0918 -0.0303 -0.1708
 6560W        W22634  18.476  12.265   2.245 -0.0451  0.0211 -0.1099
 6561W        W22635  13.254   2.063  10.981 -0.1644 -0.0520  0.0463
 6562W        W22636  17.272  18.295   1.786 -0.0060  0.1979 -0.1406
 6563W        W22637  18.592   6.607   4.239 -0.0015 -0.0277  0.1562
 6564W        W22638   5.187   3.899  13.653  0.1370  0.1772 -0.0313
 6565W        W22639  15.499  17.551  11.876 -0.3303  0.1810  0.3624
 6566W        W22640  17.400   5.521  14.921 -0.3235 -0.1823 -0.1258
 6567W        W22641   1.790   6.150   0.094  0.3645  0.1055  0.1563
 6568W        W22642  15.210  14.635  11.317  0.3515  0.0023 -0.0676
 6569W        W22643   7.202  12.226   2.317  0.1076  0.2133 -0.1941
 6570W        W22644  12.884   8.151   4.144 -0.3464 -0.0971 -0.0048
 6571W        W22645   8.708   6.211  13.582 -0.0692  0.1052  0.1358
 6572W        W22646   8.280   3.925  10.351  0.0502  0.0307 -0.1247
 6573W        W22647   0.600   0.864  12.432  0.1497 -0.0201 -0.0191
 6574W        W22648  11.393   7.524   4.464 -0.4622 -0.0615 -0.2226
 6575W        W22649   1.600  10.231   4.151 -0.0810  0.1160 -0.2265
 6576W        W22650   3.783  10.978  10.565  0.1046 -0.3120 -0.5216
 6577W        W22651  13.494   2.000   0.789  0.0493 -0.3166 -0.2793
 6578W        W22652   8.551  12.518   0.983  0.2189 -0.0928 -0.1443
 6579W        W22653   2.440   7.469   5.051  0.3195  0.0769  0.0005
 6580W        W22654   8.661   6.039   6.146 -0.0598  0.0572 -0.3889
 6581W        W22655   6.423  17.064   1.841  0.1223  0.0166  0.0526
 6582W        W22656  14.635   2.851   4.290  0.0997  0.3139 -0.1667
 6583W        W22657   4.460   0.859   3.647  0.0644 -0.1715 -0.2404
 6584W        W22658   7.192   2.360  12.669 -0.1170  0.1464  0.0048
 6585W        W22659   9.913  16.573   2.590 -0.0944 -0.2146 -0.0482
 6586W        W22660  19.056   5.290   2.331  0.5564  0.2533 -0.0516
 6587W        W22661  17.904   9.887   2.084 -0.0983  0.1420  0.1273
 6588W        W22662  13.853   3.770  12.755  0.0431  0.0400  0.2473
 6589W        W22663  12.646   0.942  10.894 -0.3045 -0.0499 -0.0610
 6590W        W22664   0.323  18.907  11.730  0.0486 -0.2997 -0.1714
 6591W        W22665  10.824  18.798   2.774 -0.0338  0.2713  0.0161
 6592W        W22666   4.487  18.990  14.295 -0.1300 -0.0454  0.0964
 6593W        W22667  17.351   9.237   4.453 -0.0234  0.1529  0.1222
 6594W        W22668   8.155   5.464  13.944  0.0842  0.2367 -0.4399
 6595W        W22669  13.517   9.787   2.637 -0.0798  0.2457  0.0314
 6596W        W22670  12.520   4.292  10.647  0.3436  0.1575  0.0401
 6597W        W22671   0.483  18.831   1.350 -0.2379  0.2444  0.3093
 6598W        W22672   0.932  14.791   1.430  0.0908 -0.1778 -0.2377
 6599W        W22673  10.588   6.529   2.749 -0.2980 -0.2090 -0.6208
 6600W        W22674   3.331   4.937  10.913 -0.1695  0.3739  0.1731
 6601W        W22675   1.727   0.208  11.459  0.3869  0.1770  0.2247
 6602W        W22676   6.314  13.566   1.173  0.0521  0.0846  0.0566
 6603W        W22677  15.469   3.837  13.013 -0.4582 -0.4647 -0.1539
 6604W        W22678   1.901  19.246  14.544  0.2616 -0.1904 -0.2657
 6605W        W22679   0.345  10.218  13.860 -0.1541  0.1890  0.1363
 6606W        W22680   4.671   7.334  13.311  0.0119 -0.0344 -0.0661
 6607W        W22681  10.395   0.833   0.125  0.0033  0.0754 -0.0900
 6608W        W22682  13.346  17.904   1.439 -0.0265  0.0176  0.0551
 6609W        W22683  18.462   3.413  14.081  0.0857 -0.1195  0.1287
 6610W        W22684  11.496   9.848   5.325  0.2437 -0.0687  0.2100
 6611W        W22685  16.970   4.339  12.976  0.2705  0.2576  0.1710
 6612W        W22686   7.091   8.753  12.845 -0.0852  0.0766 -0.0388
 6613W        W22687   3.302   7.720   1.376 -0.0172 -0.1312  0.0959
 6614W        W22688   5.949  15.748  12.100 -0.0866  0.0015  0.2168
 6615W        W22689  14.668   0.313  14.276 -0.0486  0.3868  0.0141
 6616W        W22690  19.062   4.064   5.324 -0.1786 -0.0898 -0.0520
 6617W        W22691   5.043  16.303   5.249 -0.0532  0.0851  0.3221
 6618W        W22692   2.633   7.450   2.560 -0.0302  0.2138 -0.2063
 6619W        W22693   7.672  18.374   0.056 -0.0230 -0.0085  0.0184
 6620W        W22694  13.831   7.274   3.347 -0.2780  0.0909  0.2663
 6621W        W22695  12.285  10.801  11.044 -0.1253 -0.0793  0.2529
 6622W        W22696   4.982  18.896   0.294 -0.1415 -0.3169 -0.1549
 6623W        W22697  11.058  10.990  13.926  0.3546 -0.0825  0.2354
 6624W        W22698   3.329  12.648  11.430 -0.2181 -0.0049  0.4490
 6625W        W22699  10.179  10.983   0.573  0.1841  0.0029 -0.1478
 6626W        W22700   0.984   1.595   5.018 -0.1852 -0.1959  0.0665
 6627W        W22701  14.414   5.893   2.048  0.1111  0.1255  0.1247
 6628W        W22702   7.094  10.626  12.017  0.0072 -0.0210  0.3179
 6629W        W22703  11.217   5.315  12.602 -0.1308 -0.0375  0.1640
 6630W        W22704   8.516   8.932   1.240  0.1477  0.0513 -0.0800
 6631W        W22705  16.725  13.172  11.867  0.4075  0.1863  0.4764
 6632W        W22706  10.844   1.507  14.516 -0.1378  0.4315 -0.1958
 6633W        W22707   3.732  18.445   2.262 -0.2305 -0.2160 -0.0679
 6634W        W22708  13.764  12.790  13.515  0.0428 -0.0530 -0.2764
 6635W        W22709  18.103  15.730   3.839  0.1305 -0.1043 -0.1363
 6636W        W22710  10.275   1.873   2.320  0.2762  0.2365  0.1874
 6637W        W22711  10.183   8.909   5.140 -0.0282  0.0915  0.1007
 6638W        W22712   8.361  17.084   5.016  0.1201 -0.0933 -0.0312
 6639W        W22713  15.657   3.863  14.399 -0.1479  0.1609  0.1216
 6640W        W22714  14.219   9.876   2.807 -0.1028 -0.2123  0.2256
 6641W        W22715   8.359  12.053   5.228 -0.4663  0.1980  0.0687
 6642W        W22716   5.528   4.934  12.096 -0.1405  0.2713 -0.1088
 6643W        W22717  15.977   1.121   1.704  0.0218 -0.2627 -0.0203
 6644W        W22718  13.335   2.152  10.492  0.1625 -0.0800 -0.0289
 6645W        W22719  12.678  12.585   5.295 -0.0315  0.0037 -0.2108
 6646W        W22720  14.387  10.901   2.272  0.1338  0.2194  0.0249
 6647W        W22721  11.437   2.253   1.888 -0.0901 -0.0232 -0.1696
 6648W        W22722   5.101  14.829   3.565  0.0776 -0.2053 -0.0488
 6649W        W22723   2.688   0.825  12.480 -0.0804 -0.4579 -0.1761
 6650W        W22724   6.704   1.695  11.140 -0.3486  0.1448 -0.3513
 6651W        W22725   3.102  11.744   4.563  0.0501 -0.0529  0.1375
 6652W        W22726   0.896   8.786  12.142 -0.0242 -0.0701  0.1012
 6653W        W22727  12.428   8.769   0.832 -0.0590 -0.2836  0.2361
 6654W        W22728  10.732   1.309   4.664 -0.0430  0.0311 -0.1630
 6655W        W22729  12.990   3.374   2.233  0.0720 -0.1084 -0.2507
 6656W        W22730  14.675   7.333   5.857 -0.1873 -0.0375 -0.0439
 6657W        W22731   4.385  15.485  14.553 -0.0963 -0.0824 -0.0948
 6658W        W22732  10.212   0.406   4.411  0.0643  0.0473  0.3800
 6659W        W22733  15.477  15.603  13.423  0.4628  0.0714 -0.0724
 6660W        W22734  11.157  14.834   1.902 -0.0822 -0.1370 -0.1092
 6661W        W22735  18.060   0.990  12.670  0.3052  0.0447 -0.1104
 6662W        W22736   1.089  16.655   3.088  0.0546  0.0160  0.2480
 6663W        W22737   1.225   5.643   3.812 -0.1014  0.0057  0.0006
 6664W        W22738   8.166   6.750   1.618 -0.0440 -0.0265  0.4159
 6665W        W22739   9.994   3.913  11.491  0.0974 -0.0849 -0.4065
 6666W        W22740  16.766  14.416   5.219 -0.0814 -0.0389  0.0126
 6667W        W22741  17.864   1.084   9.015  0.2548 -0.1327  0.4826
 6668W        W22742   4.376  12.621   2.793 -0.0390  0.2167  0.0246
 6669W        W22743   7.174  15.920  10.589 -0.1564  0.0668  0.0531
 6670W        W22744  17.283  15.818  13.354  0.0091  0.1782 -0.3178
 6671W        W22745   6.792  10.962   1.288  0.0602 -0.2970  0.0043
 6672W        W22746   3.659  18.556   4.047  0.3217 -0.0653 -0.0859
 6673W        W22747  13.158  18.048  13.425 -0.0457  0.0296  0.0638
 6674W        W22748   4.266  14.403   0.917  0.0897 -0.3007 -0.0287
 6675W        W22749   4.030   9.505  14.965  0.1076 -0.0724  0.0267
 6676W        W22750   8.742  16.515   0.666 -0.1091 -0.2450 -0.1414
 6677W        W22751   0.964  18.289  14.765  0.1781  0.1180 -0.2916
 6678W        W22752  15.593  15.154   0.932  0.2229 -0.1749  0.2290
 6679W        W22753   6.478  10.655   6.141 -0.2836 -0.0847  0.1526
 6680W        W22754   6.793   2.204  12.333 -0.1440 -0.1162  0.1264
 6681W        W22755  11.327  16.979   5.441  0.1170 -0.0867 -0.1139
 6682W        W22756   3.224  15.989   0.225  0.1188  0.0362  0.0915
 6683W        W22757  14.633   9.760  12.655  0.1943 -0.2949  0.2685
 6684W        W22758   0.348   3.666   3.475 -0.1227 -0.3131 -0.0925
 6685W        W22759   6.703  18.752   2.816 -0.2061  0.1584  0.0922
 6686W        W22760   4.852  12.012  13.690  0.0619  0.1339  0.1678
 6687W        W22761  14.697  16.955  10.084 -0.3416 -0.0997  0.2021
 6688W        W22762  17.379  15.689  10.452  0.1563 -0.1286  0.1400
 6689W        W22763   4.869   7.376  14.713 -0.0325  0.1899  0.1424
 6690W        W22764   3.344   8.633   4.040  0.0077 -0.0228  0.0877
 6691W        W22765  16.743   8.333   0.333 -0.0310  0.3567  0.1369
 6692W        W22766   0.548  18.580   3.054  0.2834 -0.4451  0.2155
 6693W        W22767  15.474  15.062   0.435  0.2126 -0.0555 -0.2445
 6694W        W22768   3.847  10.879   2.773 -0.2542  0.1101  0.2146
 6695W        W22769   4.181   0.988  11.180 -0.0241  0.1819 -0.2143
 6696W        W22770  12.785  13.259  13.012 -0.0908 -0.2394  0.1677
 6697W        W22771   8.831  13.680   3.873  0.0060  0.5006  0.1993
 6698W        W22772   1.626   1.550   1.232  0.2316  0.3929  0.3288
 6699W        W22773   8.121   0.154  10.590  0.1506  0.0625 -0.1392
 6700W        W22774  14.930   9.171  10.776  0.0832 -0.3090  0.2134
 6701W        W22775  17.818   2.302   5.068  0.1703  0.0311 -0.0110
 6702W        W22776  18.307   0.167  14.638 -0.0681  0.0460 -0.0316
 6703W        W22777   7.592   1.116  10.849 -0.0704  0.0838  0.1121
 6704W        W22778  12.834   0.569   4.723  0.0911  0.1771 -0.0124
 6705W        W22779   6.280  11.035  11.148 -0.1265  0.1889  0.0322
 6706W        W22780   7.906   4.757  10.900 -0.1234 -0.1245 -0.1347
 6707W        W22781   3.387  13.637   2.707  0.0570 -0.0817  0.0477
 6708W        W22782   0.199  13.908  12.086 -0.2155 -0.1829 -0.1991
 6709W        W22783   2.855  11.533  14.994 -0.2890  0.1348 -0.1391
 6710W        W22784   5.365  12.386   5.914 -0.0242 -0.1736  0.3473
 6711W        W22785  17.049   1.200  14.198 -0.0672 -0.0417  0.0180
 6712W        W22786   1.588  17.257  10.791  0.1559  0.1193 -0.0514
 6713W        W22787   2.204  13.899   0.620 -0.0148  0.3354 -0.1709
 6714W        W22788   1.086   2.175   1.868  0.1913  0.0217  0.0394
 6715W        W22789  18.895  15.954  14.067  0.0251  0.3546  0.2508
 6716W        W22790  18.886  16.562  13.197  0.0269  0.0460 -0.1248
 6717W        W22791   7.023  12.095  14.480 -0.0638 -0.3644  0.0965
 6718W        W22792   7.944  12.137  11.374  0.2926  0.3690  0.2334
 6719W        W22793   6.251  15.304   4.988 -0.1657 -0.2391  0.8616
 6720W        W22794   3.821  14.042   4.151  0.2611 -0.0702  0.3074
 6721W        W22795   5.874  12.688  13.426 -0.2271 -0.2851  0.3275
 6722W        W22796  12.508   9.083   1.642 -0.0869 -0.1624  0.2894
 6723W        W22797  10.161   5.646  13.156  0.3563  0.0382 -0.0428
 6724W        W22798   6.885   1.738   0.919  0.0201  0.2007 -0.2930
 6725W        W22799   1.786   3.481   1.156  0.1011  0.4036 -0.0161
 6726W        W22800  16.992   7.526   4.849 -0.0255  0.4783  0.0518
 6727W        W22801   8.335   1.408   5.305  0.3328  0.0354 -0.1339
 6728W        W22802   1.417   1.700  11.023 -0.3816 -0.0547  0.1309
 6729W        W22803   0.679   9.644  11.022 -0.0454 -0.1186 -0.3743
 6730W        W22804   0.496   8.922   1.159  0.1735  0.1384 -0.1278
 6731W        W22805  13.829  11.638  14.859 -0.0652  0.0307 -0.0843
 6732W        W22806  10.312  16.479   4.666  0.3159  0.1161 -0.0468
 6733W        W22807  16.465   0.513   4.076  0.0140  0.0886 -0.0956
 6734W        W22808   5.238  18.765  13.033 -0.1602  0.2456  0.3425
 6735W        W22809  15.932   0.043   4.750  0.0690 -0.2291  0.1561
 6736W        W22810   4.426  11.103   2.089  0.1096  0.0078  0.1659
 6737W        W22811  18.948  13.469  10.386 -0.0902 -0.3236 -0.2025
 6738W        W22812  16.731  17.508  10.939  0.2301 -0.3583 -0.2003
 6739W        W22813   8.391  11.831   2.695 -0.1228  0.0616 -0.2431
 6740W        W22814   0.590  15.178   4.724  0.5417 -0.0185  0.0703
 6741W        W22815   3.710   0.002   2.493 -0.3284  0.2575 -0.3384
 6742W        W22816  15.375   5.613  11.965 -0.0554  0.0289 -0.1519
 6743W        W22817  16.968   3.930   1.775 -0.1004 -0.1893  0.1006
 6744W        W22818   1.348   2.376  13.888  0.2263 -0.0930  0.0192
 6745W        W22819   7.686   3.213  14.919 -0.0704 -0.4078 -0.3276
 6746W        W22820   1.171   1.663  12.451  0.1127 -0.0971 -0.0017
 6747W        W22821  16.765  11.309  11.648  0.0614 -0.0233 -0.3173
 6748W        W22822   8.700  17.526  10.402 -0.0487 -0.2174  0.0757
 6749W        W22823   7.767  17.576   0.556 -0.1019  0.0390  0.0371
 6750W        W22824  18.009   4.597   3.738  0.0062  0.2165 -0.1789
 6751W        W22825  13.945   6.431  11.138  0.2699  0.0015  0.1382
 6752W        W22826   1.746   9.407  10.292  0.1647 -0.2194  0.2559
 6753W        W22827   5.951  16.313  13.792  0.2169  0.0898 -0.2206
 6754W        W22828  13.180   9.979   0.559  0.1406  0.2164  0.2549
 6755W        W22829  11.086  13.554  13.052 -0.2738 -0.2602 -0.1448
 6756W        W22830   2.566   9.641   3.188  0.2705 -0.0447 -0.0996
 6757W        W22831  14.447   9.130   3.546 -0.2857  0.2622  0.1031
 6758W        W22832   3.554  11.176  12.969  0.0558  0.0157 -0.0214
 6759W        W22833  14.263  12.566   0.291  0.5038  0.1307  0.0790
 6760W        W22834   8.932  14.828   3.752 -0.0605 -0.0734  0.1116
 6761W        W22835  16.644  17.366  12.429  0.0827  0.1170 -0.0030
 6762W        W22836   5.199   2.341   4.655  0.1023 -0.2118 -0.4402
 6763W        W22837  18.512  15.921   0.271 -0.2671 -0.0030  0.1197
 6764W        W22838  18.788  17.167  14.619 -0.0230  0.2737 -0.1560
 6765W        W22839   1.505  16.868  11.521 -0.0556  0.3036  0.1283
 6766W        W22840  17.880  18.762   0.644 -0.4067 -0.3445  0.0033
 6767W        W22841   6.544  17.457   4.391 -0.2284  0.0373 -0.1746
 6768W        W22842  15.267   5.244   9.847 -0.3313  0.0048 -0.4935
 6769W        W22843   3.699  16.680   2.863  0.0876 -0.1336 -0.0010
 6770W        W22844  11.047   8.311   1.178 -0.3522 -0.0161  0.1766
 6771W        W22845   4.788   6.123  14.085 -0.1009  0.1326  0.1171
 6772W        W22846   3.253  15.570   4.440  0.2692  0.0610  0.0250
 6773W        W22847   3.020  18.639  12.438 -0.0432  0.2690 -0.0570
 6774W        W22848   8.668   6.450   3.101  0.0417  0.3271  0.2734
 6775W        W22849  15.415   3.953   3.743  0.2231 -0.1772  0.0852
 6776W        W22850   3.184   5.844   2.223 -0.1328  0.1892  0.0036
 6777W        W22851   2.339  10.723   5.127 -0.2707 -0.1067  0.1960
 6778W        W22852   1.185  12.981   2.006 -0.0609  0.3306  0.3557
 6779W        W22853  13.791  16.967  12.958 -0.1179  0.0824  0.0950
 6780W        W22854  18.202   4.595   5.106  0.4019  0.0223 -0.2064
 6781W        W22855   3.214  16.394  12.615 -0.1613  0.3090  0.1156
 6782W        W22856  14.457   5.070   2.633 -0.0767  0.2827 -0.0992
 6783W        W22857  16.958  16.500   1.894 -0.0443 -0.0427 -0.1057
 6784W        W22858   1.050   0.389  14.993  0.2181 -0.1031  0.1021
 6785W        W22859  17.080  14.226   4.880  0.0332 -0.3251 -0.0700
 6786W        W22860  13.444   4.808   1.311  0.1675 -0.1936 -0.1457
 6787W        W22861   4.449   6.334  11.206 -0.3126  0.4557 -0.2175
 6788W        W22862  15.474  13.577  11.513  0.3134 -0.2306  0.1131
 6789W        W22863   3.989   3.975  13.644 -0.0329  0.0465  0.1939
 6790W        W22864  13.410  11.770   9.579  0.1079 -0.1604  0.2289
 6791W        W22865   2.511   3.157   2.560 -0.2475  0.0057  0.0193
 6792W        W22866   9.057   1.816   3.731 -0.0178 -0.0419  0.1115
 6793W        W22867   0.087   8.813  12.271  0.0924 -0.4608 -0.0764
 6794W        W22868  17.121   3.720  14.511  0.7180  0.0543 -0.1179
 6795W        W22869  19.269  14.935  13.096 -0.0215  0.1108 -0.1736
 6796W        W22870  10.108   0.058   4.868  0.0968  0.0256 -0.1419
 6797W        W22871   4.317   0.210   4.553  0.2108 -0.3895  0.1457
 6798W        W22872  18.992  15.576   1.792 -0.1255  0.1140 -0.0419
 6799W        W22873  12.953   1.007  12.106  0.0124 -0.4281  0.0073
 6800W        W22874   1.854  12.623  14.427 -0.5202 -0.1421 -0.1848
 6801W        W22875  15.572   2.489   0.506 -0.0728  0.5398 -0.2257
 6802W        W22876   9.645   7.409   3.352 -0.0834  0.2297  0.0736
 6803W        W22877   1.774   1.393  13.133 -0.0599  0.0012  0.2519
 6804W        W22878   3.897   5.567  14.295  0.1080  0.2266 -0.2307
 6805W        W22879   9.430   0.841  13.273  0.0760  0.1319 -0.0107
 6806W        W22880   4.953   6.146  11.319 -0.0739  0.1042 -0.0502
 6807W        W22881  14.046   0.558   0.167  0.1856  0.1622 -0.2424
 6808W        W22882   1.886  18.026   0.079 -0.1980 -0.0501  0.0675
 6809W        W22883  10.966  18.291  14.042 -0.0802 -0.1375 -0.2599
 6810W        W22884   7.402   1.064  12.611  0.2757 -0.3305 -0.0421
 6811W        W22885   8.619  13.311   1.389  0.3025 -0.0573  0.0084
 6812W        W22886  11.522   1.905   4.834 -0.1595 -0.1802  0.1975
 6813W        W22887  17.142  17.220  10.192  0.3284 -0.0166 -0.3133
 6814W        W22888  14.158   0.167  14.351  0.0330  0.0938 -0.3404
 6815W        W22889   4.004  10.091   3.019 -0.0233 -0.5160 -0.3062
 6816W        W22890   1.169   8.211   3.667  0.0406  0.1426  0.2699
 6817W        W22891  16.784   7.338   0.693  0.1547  0.0329 -0.3704
 6818W        W22892   3.334  12.381   3.914 -0.0459  0.0658  0.3055
 6819W        W22893   3.467   7.115  10.677  0.1991 -0.2477 -0.1875
 6820W        W22894   2.699   8.127   0.150 -0.1621 -0.0928 -0.2590
 6821W        W22895   4.110   6.197  14.894 -0.0948  0.0292 -0.2265
 6822W        W22896  13.997   8.760  13.552  0.0599  0.0903 -0.0159
 6823W        W22897   1.537   8.929  12.816  0.4197 -0.2036 -0.2294
 6824W        W22898   0.959  15.343   0.581 -0.1993 -0.0276  0.0806
 6825W        W22899   9.730  15.720  11.943  0.2526  0.2270  0.0999
 6826W        W22900   6.897   0.840   0.343  0.0239  0.0621 -0.0118
 6827W        W22901  13.657  18.162  10.783 -0.1212 -0.0027  0.0300
 6828W        W22902   2.235  10.875  11.551 -0.5260  0.0813 -0.0609
 6829W        W22903   1.546  10.540  12.153 -0.4534 -0.0653 -0.0306
 6830W        W22904   4.772   5.348   0.713  0.1519 -0.0128 -0.1180
 6831W        W22905   2.055   9.528  13.728 -0.0281  0.0680 -0.4969
 6832W        W22906  12.471  10.089   5.798 -0.2449  0.1401  0.0598
 6833W        W22907   9.742  13.998  14.821 -0.0774  0.0162  0.4364
 6834W        W22908  18.051   7.975  12.548  0.0933  0.0649  0.1563
 6835W        W22909   3.162  14.735  14.538  0.1242 -0.3949 -0.0617
 6836W        W22910  16.007   4.629  10.979  0.1809 -0.0771  0.4386
 6837W        W22911  16.740  18.516  11.157 -0.0340 -0.3281  0.1956
 6838W        W22912  16.553  14.858   3.363  0.3535 -0.2271 -0.2248
 6839W        W22913   5.430  18.976  10.300  0.1266 -0.1628  0.0896
 6840W        W22914  12.190   1.439  14.398  0.1491  0.1890  0.0325
 6841W        W22915   9.091  18.539   4.762 -0.1120  0.1799 -0.0940
 6842W        W22916  13.725  15.003   3.793 -0.3206  0.1237 -0.1676
 6843W        W22917   1.342   7.854   3.307 -0.0392 -0.0428 -0.1981
 6844W        W22918   5.191   8.793   2.324  0.0621  0.0977 -0.0379
 6845W        W22919  18.122   2.153   1.881  0.0597  0.0447 -0.0475
 6846W        W22920  17.908   5.367   1.191  0.1395 -0.0378  0.2711
 6847W        W22921   5.347  13.604  13.845  0.2093  0.1545 -0.2482
 6848W        W22922  15.848  18.844  11.087 -0.3657 -0.1778  0.1678
 6849W        W22923   8.128  18.659  11.413 -0.2991 -0.1169  0.2669
 6850W        W22924   3.367   3.411  14.509  0.2617  0.1094 -0.0730
 6851W        W22925   3.359  14.781   1.133  0.2066 -0.2419  0.0044
 6852W        W22926   5.031  17.950  11.170 -0.2410 -0.0102 -0.1881
 6853W        W22927   2.837   3.798   0.053 -0.0292  0.2609  0.3008
 6854W        W22928   5.374  15.931   5.222 -0.2902 -0.0429 -0.0740
 6855W        W22929  14.408  18.193  14.857 -0.2755  0.2833 -0.0708
 6856W        W22930   1.794  15.207   4.012 -0.0030 -0.2035 -0.0817
 6857W        W22931   9.330   5.395  14.509  0.3254 -0.0132 -0.0493
 6858W        W22932   6.647   2.976   0.175  0.2617  0.3228  0.2264
 6859W        W22933   7.008   8.245   0.671  0.0344 -0.1017 -0.0081
 6860W        W22934   9.794   1.539   1.771 -0.2326  0.0201  0.1092
 6861W        W22935   8.024   4.820  14.445  0.1011  0.3604 -0.0901
 6862W        W22936  10.594  12.082   1.785 -0.2722 -0.0738  0.3364
 6863W        W22937   3.780   9.385  12.102 -0.0702 -0.2912  0.0604
 6864W        W22938   4.591   7.139   1.176 -0.0967  0.2714  0.2238
 6865W        W22939  17.297   7.100   3.525 -0.1845  0.2233 -0.1611
 6866W        W22940   4.173   9.366  13.086  0.0979 -0.0102 -0.0997
 6867W        W22941  17.803   3.494   2.541  0.1607  0.5195 -0.1799
 6868W        W22942   3.203  16.494   2.824 -0.1991 -0.0146  0.1842
 6869W        W22943   9.350  13.576   1.049  0.0521  0.0185  0.0629
 6870W        W22944   7.816   1.772  13.551  0.1361 -0.1573 -0.0621
 6871W        W22945  16.119   9.800   2.384 -0.0547  0.0824  0.1236
 6872W        W22946   0.539   0.969   0.225 -0.0113 -0.0835 -0.2841
 6873W        W22947  16.132   8.841   4.329 -0.2496  0.1513  0.0510
 6874W        W22948   4.885  13.352   2.906 -0.0127 -0.1400  0.0209
 6875W        W22949  12.250  15.700  11.079  0.0205 -0.3745  0.2351
 6876W        W22950  10.601   9.742  10.882  0.1209  0.1262 -0.0097
 6877W        W22951   9.639  10.182   3.423  0.2479  0.1918  0.1806
 6878W        W22952   1.512   3.784   2.881  0.3327  0.0474  0.1188
 6879W        W22953  16.665  15.693   2.011 -0.1744  0.1348  0.0454
 6880W        W22954   5.159  18.598   2.734  0.1161  0.0789  0.1197
 6881W        W22955   1.333   3.626  12.723 -0.1342  0.2991  0.3770
 6882W        W22956   0.560  15.897  11.183 -0.2860 -0.0062 -0.0577
 6883W        W22957  14.698  15.785   3.475  0.0425 -0.0072 -0.1289
 6884W        W22958  11.052  12.983   0.742  0.0525  0.0717 -0.0517
 6885W        W22959   9.384  15.097  14.994  0.2672  0.1867 -0.0910
 6886W        W22960  13.769   9.095  12.709  0.1801  0.2421 -0.1178
 6887W        W22961  10.222  16.557   4.146  0.0523 -0.0589 -0.1266
 6888W        W22962   1.502   5.970   2.750 -0.1042 -0.3577 -0.2247
 6889W        W22963  14.683  12.807  13.937  0.1282 -0.1733 -0.1378
 6890W        W22964   8.951  12.102   1.800 -0.0702  0.1999 -0.1962
 6891W        W22965   8.909   4.422   2.122 -0.1936  0.0750 -0.0862
 6892W        W22966   2.557   8.109   3.122  0.1442 -0.0008  0.0438
 6893W        W22967  18.498   9.638  14.178  0.0378 -0.1043  0.3305
 6894W        W22968  13.824   7.226  11.155 -0.3151  0.0371 -0.1420
 6895W        W22969   9.460  12.645   0.616 -0.1661 -0.2169 -0.1892
 6896W        W22970   3.541   7.475  11.270 -0.1042  0.1164 -0.0220
 6897W        W22971  16.262  13.345  10.893 -0.1248  0.0982  0.2855
 6898W        W22972   2.636   4.989   2.154  0.0097  0.0561 -0.2260
 6899W        W22973  13.792   9.331   3.350  0.0164  0.0438  0.1927
 6900W        W22974  16.309  11.127  11.793  0.1272 -0.5405 -0.0675
 6901W        W22975  14.425  16.849   1.661  0.1851 -0.1215  0.0908
 6902W        W22976   1.132   8.008  10.529  0.1398  0.0578 -0.0079
 6903W        W22977  15.521   7.176   3.527 -0.1951  0.3210 -0.0502
 6904W        W22978  10.950   8.705  12.549 -0.2452  0.2668 -0.1201
 6905W        W22979  11.543  13.779   5.813  0.3346  0.2185 -0.3746
 6906W        W22980   7.107   9.232  13.369 -0.1345 -0.1212 -0.2275
 6907W        W22981   5.772  12.142   6.048  0.0892  0.0394 -0.2445
 6908W        W22982   5.846  12.578   0.660  0.0273  0.1305 -0.4047
 6909W        W22983  16.605  10.166  11.539 -0.0194 -0.1115 -0.0388
 6910W        W22984   1.921  18.594   0.361 -0.1589 -0.0877 -0.0835
 6911W        W22985  10.412   5.343  13.949 -0.2195 -0.0541 -0.2372
 6912W        W22986  10.735   1.257  11.927  0.2780 -0.0788  0.3044
 6913W        W22987   1.363   2.952   0.712 -0.0001 -0.2355 -0.2513
 6914W        W22988   0.567   6.347  12.342 -0.4467 -0.2149  0.1607
 6915W        W22989   9.360  19.088   3.030 -0.0213  0.1931 -0.0141
 6916W        W22990   0.972  16.000  10.378  0.4223  0.0191  0.1264
 6917W        W22991   1.606  14.976  13.580 -0.1332 -0.0559  0.1023
 6918W        W22992   7.343   8.998  11.635  0.2579  0.1442 -0.1967
 6919W        W22993  11.848   1.536  11.678  0.2051 -0.0131  0.2988
 6920W        W22994  16.808  18.656   0.438  0.1164 -0.0347  0.0381
 6921W        W22995   2.550  18.312   1.579 -0.0948  0.0410  0.0374
 6922W        W22996  13.216   7.760   0.222 -0.1613  0.6829 -0.1707
 6923W        W22997  19.220  13.571  13.297  0.0587  0.0683 -0.1249
 6924W        W22998   5.217  10.762   5.300  0.0210  0.2726  0.0893
 6925W        W22999   3.901   0.191   4.264  0.1628 -0.1589 -0.0423
 6926W        W23000   6.245   7.937   2.791  0.0881 -0.2641  0.0078
 6927W        W23001  10.406  16.619  13.823  0.2922 -0.0404  0.1416
 6928W        W23002   3.584   2.557   4.731  0.2702 -0.1693  0.1256
 6929W        W23003   4.054  18.412  13.292  0.0954 -0.0224 -0.1085
 6930W        W23004   9.598  16.178  14.131  0.2906  0.2779  0.3566
 6931W        W23005  15.833  16.976   0.687 -0.1835 -0.1820 -0.2462
 6932W        W23006  14.311   7.749   2.299 -0.3263 -0.0211 -0.1992
 6933W        W23007  16.994   7.228   9.595 -0.1723 -0.1152  0.0542
 6934W        W23008  17.423   0.320  12.539  0.1492 -0.2168 -0.2143
 6935W        W23009   5.226  11.665  13.620 -0.3015  0.2130  0.1559
 6936W        W23010  10.438   4.078   4.759  0.4454  0.0037 -0.1165
 6937W        W23011   1.388  11.087  12.842  0.3170  0.1547  0.0082
 6938W        W23012   2.725  17.865   2.860  0.1597  0.1321 -0.0812
 6939W        W23013  15.546   3.177  12.967  0.3065  0.0618 -0.0161
 6940W        W23014  12.311   2.026   3.844 -0.1795 -0.0840  0.1786
 6941W        W23015   7.580   6.363  14.756  0.1398 -0.0314 -0.1605
 6942W        W23016  12.442  11.515   1.863 -0.4165  0.1106  0.1808
 6943W        W23017   9.083  14.700   0.061  0.0219  0.1351  0.1900
 6944W        W23018  12.624   9.035  12.216 -0.4039  0.3226 -0.0789
 6945W        W23019   6.974  15.686   4.455 -0.1557 -0.3441  0.1384
 6946W        W23020   2.236   1.006  11.647  0.1169 -0.0984  0.1507
 6947W        W23021   6.552   2.176  14.096  0.1400  0.0241 -0.0431
 6948W        W23022  11.274   2.139   4.430 -0.0159  0.1004 -0.0611
 6949W        W23023  14.870  13.641  10.477 -0.0216 -0.0922 -0.0353
 6950W        W23024   8.882  19.166   0.260 -0.0801 -0.1143  0.0059
 6951W        W23025  14.534   9.177  14.288  0.0327 -0.1292  0.1924
 6952W        W23026   2.358   2.382  11.125 -0.0233  0.1623  0.0321
 6953W        W23027  17.086  16.216  13.698 -0.0998 -0.1929  0.0143
 6954W        W23028   3.348   6.386   4.828 -0.0603  0.0248 -0.1414
 6955W        W23029   1.041   3.583  14.148  0.0441 -0.2305 -0.0509
 6956W        W23030   0.509   0.674  14.329 -0.0399  0.0447 -0.3337
 6957W        W23031  16.758   7.278  10.844  0.0977 -0.0642  0.1131
 6958W        W23032   4.666   3.007   4.130  0.0190 -0.0599 -0.1162
 6959W        W23033  16.496  12.668   4.559 -0.1545 -0.0740 -0.1372
 6960W        W23034  18.848  15.867  12.081  0.1230 -0.0844 -0.1982
 6961W        W23035  17.191   3.723  13.047  0.2969 -0.1703  0.2411
 6962W        W23036   1.276   7.081  14.134  0.0022  0.2622  0.1138
 6963W        W23037  14.255   3.038   3.209 -0.0127  0.0765 -0.4090
 6964W        W23038   9.982  13.441  11.620  0.1927 -0.0496  0.0245
 6965W        W23039  10.437  13.373   5.210  0.0229 -0.2904  0.0519
 6966W        W23040  11.591  16.839   3.507  0.5048 -0.1622 -0.1938
 6967W        W23041   8.383   8.479   1.861 -0.3415  0.2073  0.1687
 6968W        W23042   2.664  11.714  13.197  0.1229 -0.0167 -0.1043
 6969W        W23043   6.319  10.997   2.913 -0.2178 -0.0281  0.2024
 6970W        W23044  17.482   2.621   0.533 -0.0376  0.1433 -0.3955
 6971W        W23045  11.462  12.814   3.247  0.1906  0.1879 -0.1549
 6972W        W23046  17.165  10.404   2.991  0.0092 -0.0353 -0.2561
 6973W        W23047   4.761  11.915  12.391  0.3358  0.1502  0.1925
 6974W        W23048  11.928   8.498   1.578 -0.0503 -0.1785  0.0906
 6975W        W23049   3.387  10.061   3.957 -0.5273 -0.2079 -0.0839
 6976W        W23050   6.803  17.804  14.040 -0.0934  0.0762  0.1503
 6977W        W23051   4.438   5.781  10.882 -0.1374  0.0270 -0.0399
 6978W        W23052   2.772  17.028   1.588  0.1139  0.1960  0.0852
 6979W        W23053  15.162  10.085  13.471 -0.0222 -0.2435  0.2241
 6980W        W23054  15.853   7.383   0.929  0.2766  0.0087 -0.0908
 6981W        W23055   4.214   8.824  13.067 -0.1085 -0.0597  0.1158
 6982W        W23056  14.011  16.820  11.072 -0.2822  0.0036 -0.0059
 6983W        W23057   0.795  13.425  10.750 -0.0332 -0.2857  0.0373
 6984W        W23058   1.120   1.773  14.568 -0.1604 -0.0691  0.0945
 6985W        W23059  16.527   8.573  14.678  0.2558 -0.0340 -0.3130
 6986W        W23060   1.232  12.773   1.504  0.0565 -0.1103 -0.0329
 6987W        W23061   7.886   9.371   4.179 -0.1667  0.2570  0.0961
 6988W        W23062  11.568   4.660   3.223 -0.0542  0.2756  0.0342
 6989W        W23063  19.034  16.468  14.016 -0.1586 -0.0475 -0.0510
 6990W        W23064   8.982  10.043   3.892  0.2560 -0.1259  0.1935
 6991W        W23065  10.161   0.506   2.112  0.0368 -0.0540 -0.5305
 6992W        W23066  13.987   6.612  13.683  0.2168  0.1162  0.0028
 6993W        W23067  15.973  17.439   1.938 -0.0229  0.4038 -0.1300
 6994W        W23068   9.346  13.470  10.928 -0.0600 -0.0321 -0.0746
 6995W        W23069   6.683   1.127  12.310 -0.0790  0.2690  0.4740
 6996W        W23070   6.551   7.070  14.067 -0.0280  0.1521  0.0810
 6997W        W23071   1.908   3.492   0.345  0.0003 -0.0816  0.0888
 6998W        W23072   7.008  18.347   5.718 -0.1605  0.0597  0.1966
 6999W        W23073  15.540  18.473  10.812 -0.1919 -0.1146 -0.0584
 7000W        W23074  14.682   4.954   5.937 -0.2255  0.2734  0.1014
 7001W        W23075   9.653  13.012  13.827 -0.0883  0.1256 -0.0687
 7002W        W23076  13.206  10.183  10.946  0.0070  0.0837  0.0284
 7003W        W23077   9.624  16.978  11.624 -0.0399 -0.1607 -0.0301
 7004W        W23078  16.716   1.219  13.447  0.1194  0.2138 -0.1044
 7005W        W23079  16.818  12.178  13.156  0.0111  0.0044 -0.2579
 7006W        W23080   6.735  17.026   3.544  0.0762  0.0273  0.0606
 7007W        W23081  13.268   2.916   3.982 -0.1693  0.0683 -0.2044
 7008W        W23082  17.756   6.323  10.898 -0.3024  0.2248  0.0494
 7009W        W23083   6.850  10.413  10.689 -0.1579 -0.2020  0.0448
 7010W        W23084   1.462  16.287  11.505  0.5135  0.2240  0.1195
 7011W        W23085   6.011   2.600   2.534  0.0051 -0.0534 -0.3380
 7012W        W23086  17.916  15.844   0.110 -0.0944 -0.1679 -0.0244
 7013W        W23087  16.302   9.479   1.028 -0.1129  0.2034  0.1549
 7014W        W23088  17.142   1.910   2.691 -0.0549 -0.1180 -0.0704
 7015W        W23089  13.100  17.727   0.876 -0.1011 -0.2392 -0.0368
 7016W        W23090  18.247   6.231  10.967 -0.0871  0.1118 -0.0646
 7017W        W23091  13.740   2.884   0.122  0.4180  0.0079  0.0850
 7018W        W23092  11.110  10.711  11.959 -0.2477  0.1963  0.1449
 7019W        W23093  14.833   6.451  14.223 -0.0902 -0.1839 -0.0475
 7020W        W23094   1.918   8.595   2.682  0.3539  0.3270  0.1775
 7021W        W23095   7.258   0.293  12.472  0.4153 -0.0249 -0.1976
 7022W        W23096   8.932   1.039   0.880  0.2140  0.3016 -0.5364
 7023W        W23097  14.996  16.081   3.917  0.2046 -0.2745 -0.2339
 7024W        W23098   9.732   6.329   3.055 -0.0603 -0.4857  0.0912
 7025W        W23099   6.312   1.329  11.886 -0.0950 -0.0972 -0.0211
 7026W        W23100   9.438  14.275   2.912 -0.1202 -0.0081  0.1257
 7027W        W23101  11.078  17.758  14.037  0.0291 -0.1256 -0.2887
 7028W        W23102  12.930  14.138   3.186  0.1556 -0.0312  0.0444
 7029W        W23103  16.701  10.879  11.949 -0.0505  0.2886 -0.2718
 7030W        W23104   4.941   7.260   0.824 -0.3959  0.1969 -0.0586
 7031W        W23105   2.774   5.626   2.443 -0.0658  0.0480  0.1045
 7032W        W23106  15.051   6.704   3.879 -0.3269  0.1760  0.0193
 7033W        W23107   6.362   3.976   4.215 -0.2320 -0.1440  0.2744
 7034W        W23108  18.066  13.093   2.035 -0.0250  0.2315 -0.0898
 7035W        W23109   7.355   8.871   3.234 -0.0909 -0.0284 -0.0643
 7036W        W23110   6.240  10.048   4.762 -0.1712 -0.0043 -0.2727
 7037W        W23111   0.153   8.206  11.729 -0.0889 -0.1162  0.0656
 7038W        W23112  14.522  16.451  12.778 -0.3447 -0.1028 -0.0225
 7039W        W23113  12.063   4.969  12.413  0.2906  0.1624 -0.0167
 7040W        W23114  16.972  12.636  11.251 -0.3529 -0.1025 -0.2738
 7041W        W23115   0.442  16.206  12.029 -0.0203  0.0206 -0.0509
 7042W        W23116  12.709   1.309  11.831 -0.0133  0.2824 -0.1446
 7043W        W23117   8.495  15.176  13.453  0.1767 -0.0577  0.0650
 7044W        W23118   4.144   1.064  14.947 -0.1892  0.2667 -0.4220
 7045W        W23119  16.819  15.677   5.146  0.1102 -0.3286 -0.2821
 7046W        W23120  13.113   0.876   4.096  0.4411 -0.2797 -0.1300
 7047W        W23121  13.833   5.865   4.349 -0.1858 -0.0635 -0.0959
 7048W        W23122  11.861   6.759   1.782 -0.3047  0.1245 -0.0362
 7049W        W23123   1.565  19.075   9.360  0.3154 -0.2382  0.0434
 7050W        W23124  17.433   8.597  10.457  0.0580  0.0262  0.0570
 7051W        W23125  12.520  19.297  11.946  0.2955 -0.3155 -0.0704
 7052W        W23126   7.953  15.033   1.671 -0.1431 -0.1692  0.1641
 7053W        W23127   4.515  10.357   4.416 -0.1644 -0.4170  0.2712
 7054W        W23128   0.057   4.527  12.337 -0.0274  0.0914  0.0326
 7055W        W23129   7.673  12.498   5.688  0.2341  0.0939 -0.2008
 7056W        W23130   2.862  10.276   1.309  0.2664  0.0035  0.1935
 7057W        W23131  12.229  15.089  13.597 -0.3957  0.2429  0.3473
 7058W        W23132  11.445   1.690   3.434 -0.1620  0.0164  0.0395
 7059W        W23133  13.649   7.967  15.052  0.2768 -0.0729  0.0460
 7060W        W23134  11.692   7.168   4.900  0.1743  0.2177  0.0056
 7061W        W23135  12.344   2.041   1.965 -0.0323 -0.0966 -0.0621
 7062W        W23136  10.280   8.928   4.551  0.1475 -0.5863 -0.0665
 7063W        W23137   3.827   3.616  14.614  0.2438  0.2501  0.1841
 7064W        W23138  15.724  16.469  13.333 -0.1230 -0.2384  0.2922
 7065W        W23139   4.628  12.239  10.314  0.3102  0.0970  0.2111
 7066W        W23140  14.236  14.598  10.706 -0.0895  0.0479  0.2410
 7067W        W23141  15.139  16.985   0.930 -0.1018  0.2195  0.1140
 7068W        W23142  15.278  13.740   1.536 -0.1311  0.1207 -0.1312
 7069W        W23143  10.027   4.639  12.185 -0.0865  0.0411  0.0813
 7070W        W23144   1.499   5.144  10.761 -0.0588  0.1736  0.3445
 7071W        W23145   4.462  14.840  11.312 -0.0164  0.1025 -0.1311
 7072W        W23146   1.446   6.970  10.412 -0.3971 -0.1475 -0.2196
 7073W        W23147  15.296   1.813  12.825 -0.1400 -0.2272 -0.3493
 7074W        W23148  19.067  17.883  13.494 -0.1754  0.3696  0.3050
 7075W        W23149  15.018   9.705   3.180  0.1043  0.0208  0.0634
 7076W        W23150  13.027  17.488   0.014  0.1158  0.1296  0.0484
 7077W        W23151   5.881  13.477  14.196 -0.3492  0.2337 -0.3712
 7078W        W23152   7.937   7.170   5.738 -0.0094 -0.1010 -0.1802
 7079W        W23153  17.142  11.063   5.506 -0.0813  0.3362  0.1915
 7080W        W23154   5.527  13.156   1.427  0.0385  0.0165 -0.1861
 7081W        W23155  18.227   2.338  13.287 -0.0022  0.2647  0.0597
 7082W        W23156  14.696  11.154  11.832 -0.2020  0.2214  0.0510
 7083W        W23157  13.001  12.554  14.872 -0.3496 -0.2912 -0.2236
 7084W        W23158   1.346   2.166  10.792  0.0462 -0.1385  0.1258
 7085W        W23159   3.781   8.080  14.586  0.1852  0.3162  0.1069
 7086W        W23160   2.643   0.489  13.308  0.1927 -0.0017  0.1343
 7087W        W23161  15.493   4.398  14.139 -0.1097  0.0591  0.0081
 7088W        W23162  10.144  18.302   3.979 -0.2150 -0.1460 -0.0961
 7089W        W23163   9.491   8.536   5.823 -0.2135  0.2532  0.4035
 7090W        W23164  12.248  14.415  11.916 -0.0546  0.0925  0.0345
 7091W        W23165  14.339   0.180  14.918 -0.0532  0.0565  0.0863
 7092W        W23166  10.036  16.059   4.666  0.0417  0.2418 -0.0616
 7093W        W23167   1.336  19.115  12.086  0.5541  0.1401 -0.0307
 7094W        W23168   2.675   5.771   1.482 -0.1012 -0.1894 -0.1638
 7095W        W23169   2.443   6.459  13.410 -0.0492  0.3001  0.2184
 7096W        W23170  12.715  19.023  12.973  0.0854 -0.0747 -0.0919
 7097W        W23171   7.674   5.220  14.342  0.0326  0.0882 -0.1113
 7098W        W23172   8.379   9.184  12.488  0.0423  0.3580  0.0283
 7099W        W23173   7.803  18.569   0.928 -0.0729  0.1937  0.0237
 7100W        W23174   6.811  15.937   3.547 -0.1339 -0.0802 -0.1615
 7101W        W23175  13.582  14.699   1.276 -0.1421  0.2083  0.0959
 7102W        W23176  15.015  13.717  11.428 -0.1355  0.1150 -0.1072
 7103W        W23177   4.166   1.624   2.968 -0.1478 -0.4244 -0.1677
 7104W        W23178   3.852   5.080  11.230 -0.1372  0.0007  0.1034
 7105W        W23179  16.073   3.368   2.563 -0.3242 -0.1745  0.2067
 7106W        W23180  17.093   4.553   2.451  0.2001 -0.2254  0.1613
 7107W        W23181   7.187  18.681  12.927  0.2654 -0.1445 -0.5484
 7108W        W23182  17.776   0.987  12.166  0.0601  0.3298  0.2061
 7109W        W23183   9.587  16.740   2.943  0.1116 -0.1699 -0.0683
 7110W        W23184   8.550   6.050   3.452 -0.2553 -0.3401 -0.1112
 7111W        W23185   1.630   2.889  11.638 -0.1569 -0.0342  0.1666
 7112W        W23186   9.485  13.850  10.199 -0.0232  0.1600 -0.0065
 7113W        W23187  11.694   9.464   0.043 -0.3037  0.0492  0.1915
 7114W        W23188  10.314  18.684   0.612  0.2305  0.2560 -0.0828
 7115W        W23189   5.757   0.962   1.470 -0.1161  0.2021  0.1754
 7116W        W23190   2.853  15.563   1.382  0.1386 -0.1298  0.0728
 7117W        W23191  18.038   5.049   3.526 -0.0950 -0.1528 -0.2063
 7118W        W23192  10.502   8.540  13.552  0.1178  0.1664 -0.0559
 7119W        W23193   6.508   6.028  12.510 -0.2674  0.0008 -0.0704
 7120W        W23194  11.271  10.707   1.151 -0.0941 -0.0505  0.2358
 7121W        W23195  14.004  11.180  14.708 -0.1120  0.0308 -0.2315
 7122W        W23196   3.219   1.640   5.360 -0.1991  0.1967  0.3268
 7123W        W23197   8.196  11.606   0.256  0.4285 -0.0722 -0.0375
 7124W        W23198  14.882  16.899   1.328  0.4094 -0.2767 -0.0840
 7125W        W23199  10.897  13.895  14.630  0.2999  0.3257 -0.0212
 7126W        W23200   0.233  12.787   3.520 -0.0526  0.1349 -0.0654
 7127W        W23201  11.760   9.128  11.247  0.0259 -0.0938  0.1191
 7128W        W23202   3.975  14.005  11.725 -0.0414  0.1912  0.1949
 7129W        W23203  15.357   0.594  10.201 -0.1301 -0.1264  0.2163
 7130W        W23204   4.956   8.623   4.452 -0.1127  0.0144 -0.3999
 7131W        W23205   1.841  15.271  10.259  0.2608  0.3310  0.0376
 7132W        W23206  12.825  11.493   1.528  0.1773 -0.2279  0.0559
 7133W        W23207   4.895  13.897  11.480  0.3111  0.1734 -0.3895
 7134W        W23208  12.637   4.715  11.873  0.1334 -0.0704  0.3198
 7135W        W23209  14.485  11.290  12.707  0.1212 -0.1863  0.1709
 7136W        W23210   4.773  16.450   3.637 -0.0445  0.1253  0.1626
 7137W        W23211  12.489  18.535   3.879  0.0100  0.0064  0.0618
 7138W        W23212  16.946   6.520  12.110  0.0809 -0.2362  0.4141
 7139W        W23213   9.967   4.844  14.915 -0.2460 -0.1625 -0.2991
 7140W        W23214   3.067   2.930   4.738 -0.0932  0.1964  0.2399
 7141W        W23215   3.787  18.727   1.200  0.0164  0.0924  0.0456
 7142W        W23216  11.705  14.828   3.385  0.1434  0.1179  0.2125
 7143W        W23217   3.384  11.158   2.005 -0.2132  0.0821  0.2372
 7144W        W23218   9.494   7.034  14.129  0.0457  0.0330 -0.0267
 7145W        W23219   4.272  14.269   4.396  0.1547  0.1067  0.2339
 7146W        W23220   3.997   2.797  14.925 -0.2028 -0.0038  0.2224
 7147W        W23221  13.422   2.034   2.561  0.3145  0.0190  0.4289
 7148W        W23222  15.188  13.739  13.246  0.3848  0.2466  0.0594
 7149W        W23223   1.932   9.738  12.484 -0.1263 -0.0597  0.0335
 7150W        W23224  18.227  16.906   4.488 -0.2258  0.0732  0.1024
 7151W        W23225  17.252   2.781   0.014  0.3419 -0.0931  0.0341
 7152W        W23226  16.832  14.553   4.167 -0.1390 -0.1842  0.1013
 7153W        W23227   4.739  13.653  13.166  0.2374 -0.2069 -0.0707
 7154W        W23228  12.900  10.035   4.006  0.2295 -0.1879 -0.2238
 7155W        W23229   2.916  10.397   0.243 -0.1315 -0.2497  0.0536
 7156W        W23230  10.287  17.313   3.247  0.1381 -0.5397  0.0400
 7157W        W23231  15.387  16.739  14.680  0.0017 -0.2776 -0.0945
 7158W        W23232  18.100  14.727   1.048 -0.2273 -0.0783  0.0209
 7159W        W23233  12.121   3.676   4.351  0.3326  0.0921  0.1242
 7160W        W23234   1.760  12.109   0.852 -0.0050  0.1535 -0.3918
 7161W        W23235   5.982  13.076  10.445 -0.0350 -0.0053 -0.4034
 7162W        W23236   8.657  12.766   3.420 -0.2538  0.2676 -0.0787
 7163W        W23237   0.705   4.553  14.073 -0.0182  0.3794  0.2951
 7164W        W23238  18.464   1.673   0.201 -0.4670 -0.4267 -0.1767
 7165W        W23239  14.609  10.398  13.712  0.2133  0.0016  0.1284
 7166W        W23240   8.669   7.652   3.851  0.1913  0.3600  0.0980
 7167W        W23241   5.623   0.142   4.450 -0.0204 -0.1215  0.0505
 7168W        W23242   0.788  15.368   3.227  0.2433  0.1801 -0.2168
 7169W        W23243   3.346  18.473   0.374  0.0900  0.3603 -0.0883
 7170W        W23244   7.619   6.820   2.517 -0.1809  0.2562 -0.0284
 7171W        W23245   9.929  15.849   3.143 -0.0234 -0.0313 -0.0847
 7172W        W23246  18.774  15.673  12.732  0.3262 -0.0413 -0.1961
 7173W        W23247   3.254   9.767  10.428 -0.3030  0.0371  0.2867
 7174W        W23248   9.188  18.245   3.732 -0.2377  0.2193  0.0139
 7175W        W23249  11.053   9.777  11.729 -0.2026  0.2609 -0.0314
 7176W        W23250   3.223  13.533  10.134  0.0824  0.1523  0.1183
 7177W        W23251  15.123   1.999   2.752  0.0247  0.2581  0.4718
 7178W        W23252  12.196   5.838   0.447  0.0539  0.1597  0.0008
 7179W        W23253  14.033  13.259   1.867  0.0464 -0.2706  0.0352
 7180W        W23254  10.613  13.878   2.634  0.0430  0.0329  0.0193
 7181W        W23255  14.826   3.041   1.442  0.0386  0.1375  0.0839
 7182W        W23256  14.054  10.843  12.875  0.0914 -0.3441  0.1286
 7183W        W23257  11.672   5.170  13.469  0.0461  0.2800  0.2733
 7184W        W23258   2.492   0.474   2.164 -0.1326 -0.0639 -0.0773
 7185W        W23259  19.155  17.783  12.479  0.0128  0.0911  0.0677
 7186W        W23260  12.756  11.755  11.896 -0.1072  0.1331  0.3999
 7187W        W23261   3.750   9.266  11.443  0.0216  0.1712  0.0635
 7188W        W23262   7.210   8.627   1.014  0.1745  0.1999  0.3683
 7189W        W23263  18.790   2.445   3.478 -0.4032  0.1672 -0.0235
 7190W        W23264   3.012   7.795  13.044 -0.0435 -0.3761  0.2442
 7191W        W23265   9.293   0.994  12.263 -0.0470 -0.0024  0.1996
 7192W        W23266  16.308   0.175   2.859  0.2072  0.1959  0.2391
 7193W        W23267  18.989   6.693  14.068 -0.0839 -0.0710 -0.0586
 7194W        W23268  18.580   8.709  13.331  0.1599  0.2463  0.2372
 7195W        W23269   7.949  13.105  11.873  0.0376  0.1140  0.0044
 7196W        W23270  15.594  15.875  11.882  0.1744  0.1053  0.0688
 7197W        W23271   3.430   6.723   3.006 -0.1836  0.1010 -0.0866
 7198W        W23272  17.078  14.928   3.798  0.1912 -0.3333 -0.1039
 7199W        W23273  12.293   5.480  11.721 -0.3498  0.0062  0.0297
 7200W        W23274   5.179   8.144  11.811 -0.3692 -0.2045 -0.1857
 7201W        W23275   5.090   1.071   5.285  0.0593  0.0210  0.1356
 7202W        W23276   6.396  11.942  11.250  0.1755 -0.2068  0.2213
 7203W        W23277   7.068  13.762  12.977  0.1520 -0.0720  0.1403
 7204W        W23278   3.324   8.323   3.088  0.0845 -0.0045  0.0048
 7205W        W23279   8.675  14.788  13.217  0.0427  0.0161  0.0941
 7206W        W23280  17.507  18.921   4.206  0.0379  0.0706 -0.0331
 7207W        W23281   9.588  14.759  12.849  0.2079 -0.0360  0.1211
 7208W        W23282  16.257  16.336  11.559  0.1112  0.5620 -0.0447
 7209W        W23283   4.541   5.703  13.103  0.2562 -0.0277  0.1031
 7210W        W23284  16.832   4.192   0.324  0.0854 -0.1957  0.2874
 7211W        W23285  18.640  10.546   0.135  0.1382  0.1724  0.0578
 7212W        W23286  11.249   0.847  10.877  0.0872 -0.0327  0.2681
 7213W        W23287  12.944   5.065   3.295  0.3430 -0.1966  0.3912
 7214W        W23288   0.703  16.531   2.601 -0.0263 -0.1778 -0.2058
 7215W        W23289  14.479   4.355   3.336  0.1199  0.1078 -0.3009
 7216W        W23290   5.791   7.789  13.413  0.0504 -0.2963 -0.1726
 7217W        W23291   1.230   8.822  11.220  0.2811 -0.0743 -0.0870
 7218W        W23292   7.930   3.745  14.614 -0.5406  0.2188  0.2966
 7219W        W23293  13.705  10.600  14.189  0.0357  0.0640  0.1649
 7220W        W23294   2.872  17.944   1.666  0.1442 -0.1866 -0.3171
 7221W        W23295  10.032   6.064   2.304  0.2066 -0.1903 -0.2507
 7222W        W23296   2.615   3.374  14.944 -0.1350 -0.1588  0.0005
 7223W        W23297  11.454  13.881   1.992  0.0653  0.3981 -0.1420
 7224W        W23298   0.353   5.070  14.670  0.1233  0.0314 -0.0647
 7225W        W23299   7.258   0.329  13.483  0.1669  0.1426 -0.2236
 7226W        W23300  14.519   7.744  11.473  0.1815  0.1131 -0.0173
 7227W        W23301  15.432   3.535   2.609  0.0830  0.1128  0.1250
 7228W        W23302   0.339  10.454   2.199 -0.0493 -0.0387  0.5034
 7229W        W23303   2.080  15.494  13.415  0.1374 -0.2286  0.2777
 7230W        W23304  14.782  12.290  10.271  0.0154  0.1699 -0.0282
 7231W        W23305   2.746  12.557   3.496  0.0139 -0.3743 -0.0427
 7232W        W23306  14.625   7.895   5.019  0.4230  0.1462 -0.1699
 7233W        W23307  16.500   5.232   5.074 -0.0542  0.1101 -0.0398
 7234W        W23308   4.395  14.071   3.427 -0.0511  0.1216 -0.0438
 7235W        W23309   8.602  11.788   5.563  0.0674  0.0753 -0.2359
 7236W        W23310   4.392  11.307  12.777 -0.0413  0.0487 -0.4642
 7237W        W23311  15.056   4.195  12.330 -0.2238 -0.0653 -0.2361
 7238W        W23312   5.740  16.967   3.380  0.2663  0.1427 -0.0186
 7239W        W23313  17.160   1.421   2.546  0.0220  0.1669  0.0279
 7240W        W23314   0.481  18.935  13.286  0.2931  0.0062  0.0309
 7241W        W23315   4.690   6.099   2.094  0.1218 -0.0525 -0.0060
 7242W        W23316  11.631  13.129   2.492  0.0775  0.1621 -0.2045
 7243W        W23317  10.840  19.194  14.998 -0.0965  0.1652 -0.0178
 7244W        W23318  11.620   7.185  14.589  0.0999  0.1460 -0.3274
 7245W        W23319  13.223   4.044   9.778 -0.1822  0.2583 -0.1324
 7246W        W23320  12.725  12.225  14.661 -0.0817 -0.0179  0.0832
 7247W        W23321  16.168   6.384   3.991  0.2258 -0.0847  0.1454
 7248W        W23322   2.120  17.738   4.766  0.2455  0.0560 -0.2993
 7249W        W23323   7.584  13.986  11.815 -0.0052 -0.2047  0.4035
 7250W        W23324   6.237   3.613  14.546  0.1704 -0.2369 -0.1726
 7251W        W23325  17.991  15.183  13.577  0.1511  0.0381 -0.2243
 7252W        W23326  17.389  17.341   0.327 -0.1484  0.2021 -0.2384
 7253W        W23327   0.926  16.310   3.877 -0.3265 -0.0105 -0.3765
 7254W        W23328   7.918  16.077  11.456  0.0740  0.0648  0.1836
 7255W        W23329  17.444   1.156  15.044  0.1056 -0.3314  0.1365
 7256W        W23330   3.261  16.015  12.054 -0.0073  0.0273  0.0053
 7257W        W23331   9.233   0.489  11.387  0.1934 -0.0457 -0.1642
 7258W        W23332  14.537   7.531   3.926  0.1570 -0.0553 -0.5400
 7259W        W23333   8.986  12.999   0.450  0.0105 -0.1390  0.1599
 7260W        W23334   9.663  12.543  14.818 -0.1772  0.0891  0.7831
 7261W        W23335  10.616   7.249   4.965 -0.0706 -0.4086  0.5162
 7262W        W23336  11.241   4.369   5.667  0.4624  0.0697  0.0828
 7263W        W23337  12.788   5.662  12.247  0.0132  0.2894 -0.2021
 7264W        W23338   4.133   4.069   0.453  0.2212 -0.4242 -0.1275
 7265W        W23339   6.666  18.249  14.141  0.0069 -0.1891 -0.0802
 7266W        W23340  13.267   2.431   0.736  0.0372  0.2797 -0.0626
 7267W        W23341  10.847   6.687   4.572  0.1652  0.0808  0.1038
 7268W        W23342   1.905   9.846   4.483 -0.1231 -0.2553 -0.0589
 7269W        W23343  11.721  12.637   4.400 -0.1935  0.2571  0.1906
 7270W        W23344  11.050  15.531   0.156  0.2834 -0.0768 -0.4203
 7271W        W23345  18.755   7.403   1.958 -0.2550  0.1922  0.1040
 7272W        W23346  13.759   9.790  11.957  0.0888 -0.0190 -0.1696
 7273W        W23347   4.404   4.611  14.000 -0.0577  0.0445 -0.3833
 7274W        W23348   1.040   3.128   3.107 -0.2128  0.2354 -0.3357
 7275W        W23349  18.668   2.526  11.733  0.0682  0.1003  0.0192
 7276W        W23350  17.542   4.504   5.568 -0.0002  0.0656 -0.3399
 7277W        W23351   7.766   5.493   3.564  0.0161 -0.1790 -0.1038
 7278W        W23352   0.317  17.829  13.668 -0.0326 -0.0675  0.3564
 7279W        W23353  18.337   7.501   5.247  0.1172 -0.3507  0.3247
 7280W        W23354  13.383   0.735   1.299  0.0770 -0.1524  0.1465
 7281W        W23355   3.882   2.964  11.390 -0.0665 -0.3151 -0.1003
 7282W        W23356  14.477  17.218  12.004 -0.2016  0.1933 -0.0209
 7283W        W23357  19.257  11.986  10.088 -0.0894  0.0805  0.3513
 7284W        W23358  15.975   9.267   1.940 -0.0779 -0.2995  0.0448
 7285W        W23359  18.900   4.905  11.103 -0.1758 -0.1891 -0.0305
 7286W        W23360  18.868  12.242  12.826  0.0649 -0.3212  0.0885
 7287W        W23361  11.121   7.335   3.704 -0.0300  0.1572  0.0021
 7288W        W23362  19.130  12.550  14.955  0.0282  0.0615  0.2318
 7289W        W23363  17.844  11.702  14.827  0.1667 -0.5005 -0.0103
 7290W        W23364   7.756   3.727  13.355 -0.1613  0.0135  0.2584
 7291W        W23365   0.187   0.717  14.957 -0.2654 -0.4171  0.0696
 7292W        W23366   3.414  10.922  10.042  0.1103 -0.0528 -0.2666
 7293W        W23367   4.660   0.283  14.524  0.1741  0.0093  0.0187
 7294W        W23368   2.313   9.841   4.886 -0.0552 -0.1069  0.7223
 7295W        W23369  11.600   4.837   3.729  0.1666 -0.0437  0.2121
 7296W        W23370  12.265  10.297  12.019 -0.0443 -0.3851  0.2886
 7297W        W23371  17.834  13.384  14.709  0.1743 -0.2567 -0.0391
 7298W        W23372   7.492  18.024   4.332  0.1820  0.0079  0.0585
 7299W        W23373  15.093  10.969   0.169 -0.2831  0.1962  0.3409
 7300W        W23374   8.926   4.240  11.688 -0.1616  0.0357  0.0654
 7301W        W23375   0.823  14.783  11.822  0.2766  0.1878  0.1430
 7302W        W23376   5.029  13.244   1.162 -0.1255 -0.2893  0.0334
 7303W        W23377  13.058   8.953  13.682 -0.0891 -0.0369  0.0709
 7304W        W23378  15.945   4.888   3.694 -0.1773  0.0078 -0.0632
 7305W        W23379   0.869  13.160  12.408 -0.1687  0.0250  0.0282
 7306W        W23380   4.508  12.132  13.363 -0.0251  0.1281 -0.0729
 7307W        W23381  19.200   7.721   5.172 -0.0239 -0.0600 -0.0594
 7308W        W23382   8.935  11.831  14.427 -0.1648 -0.1032 -0.0095
 7309W        W23383  10.502  18.030  12.297  0.3920  0.0359 -0.1413
 7310W        W23384   1.099   1.088  12.372 -0.0229 -0.0944 -0.0594
 7311W        W23385  10.988   3.764  13.980 -0.1259  0.0011 -0.2847
 7312W        W23386  12.240   6.966   5.126  0.1767 -0.1913 -0.1458
 7313W        W23387   5.346   8.963   5.156 -0.0478  0.0133 -0.2147
 7314W        W23388  18.461   3.717   0.044  0.1240  0.0318  0.0135
 7315W        W23389   9.110   9.091  12.514  0.2458  0.4136  0.2130
 7316W        W23390  13.335  13.170  10.618  0.1579  0.5769  0.4014
 7317W        W23391  14.457  18.548  11.956 -0.3155 -0.1695  0.2094
 7318W        W23392   1.122  14.827   0.409 -0.0170 -0.2792 -0.0964
 7319W        W23393   6.876   9.093  12.505  0.0343  0.1127  0.4284
 7320W        W23394   7.608  12.077  10.570  0.2700  0.1722  0.0101
 7321W        W23395  17.065  13.159  13.808  0.1092 -0.5289 -0.4713
 7322W        W23396   6.722   4.397   4.339  0.0009 -0.2354  0.2360
 7323W        W23397  10.471  16.139   3.956  0.2190 -0.2341 -0.2614
 7324W        W23398   2.891  14.126   0.343  0.1344 -0.0263  0.2024
 7325W        W23399  17.455  10.058  13.607  0.3590 -0.1129  0.0198
 7326W        W23400  13.562   1.241  10.821  0.3164  0.0363  0.0335
 7327W        W23401  13.123   5.931   2.076  0.0788  0.0902  0.0094
 7328W        W23402  18.600  13.849   1.118  0.1439  0.0569 -0.0827
 7329W        W23403   6.882  16.508  14.980 -0.1042  0.2158 -0.3980
 7330W        W23404  19.167  14.821  12.427  0.0340  0.0098  0.3952
 7331W        W23405   8.938  12.240  15.014 -0.0599  0.4113  0.1039
 7332W        W23406   8.927  18.825  13.095  0.2147  0.1692  0.2817
 7333W        W23407   8.510   4.437   3.608  0.1333 -0.0252 -0.1104
 7334W        W23408  11.003   2.819  13.769 -0.1091  0.3377  0.1621
 7335W        W23409  16.716   5.648   1.959  0.0781 -0.0161  0.1412
 7336W        W23410   7.033   5.945  13.047 -0.0050 -0.2599  0.2272
 7337W        W23411   4.697   8.590  11.259 -0.4375 -0.2076 -0.1200
 7338W        W23412  10.094  19.271  14.386 -0.1391 -0.1226 -0.2124
 7339W        W23413   8.505   4.964  14.425  0.0989 -0.2399  0.0912
 7340W        W23414  18.190   6.527   1.582 -0.0014 -0.2321 -0.1903
 7341W        W23415  18.356   7.588  13.297  0.1437  0.4209  0.1691
 7342W        W23416  12.261  14.956   2.121 -0.6357  0.2944 -0.2478
 7343W        W23417  10.000  13.452   4.936 -0.0969 -0.2740 -0.0079
 7344W        W23418  12.948  17.298   2.900 -0.0830  0.1323  0.1840
 7345W        W23419   8.196  12.766  13.126 -0.0165  0.0832  0.3262
 7346W        W23420   5.626   6.036  12.851 -0.1060 -0.0966 -0.1220
 7347W        W23421   0.254   3.835  14.216  0.0237  0.1321  0.0692
 7348W        W23422  10.894   4.527  14.465 -0.2378 -0.0194 -0.0932
 7349W        W23423  18.438  18.928  14.822 -0.2083 -0.3115 -0.0990
 7350W        W23424  18.765   7.204   0.896  0.1990  0.1698 -0.0734
 7351W        W23425   0.722   1.452   3.053  0.0622 -0.0013  0.0628
 7352W        W23426  15.888  10.879  11.609  0.1016 -0.1466 -0.1802
 7353W        W23427   4.333   2.676   0.222 -0.0188 -0.2898  0.2652
 7354W        W23428  18.788  12.290   1.831  0.0397  0.0750  0.0458
 7355W        W23429  14.474  14.915  10.239 -0.2216  0.1762 -0.0688
 7356W        W23430   5.844  13.576  10.626  0.3530 -0.0025 -0.1670
 7357W        W23431   9.475   6.850  13.308 -0.4998  0.2573  0.1597
 7358W        W23432   2.985  12.860  10.466  0.1246  0.0479  0.0035
 7359W        W23433   5.898   7.416  11.432 -0.0368  0.1483 -0.4830
 7360W        W23434  14.850   0.907   0.620 -0.2955  0.1139  0.1171
 7361W        W23435   2.349   6.403  10.968  0.2836 -0.2227  0.2072
 7362W        W23436   1.329  13.631   3.618  0.1346  0.0542 -0.0730
 7363W        W23437  14.469   0.257  12.829  0.0648  0.3117  0.3214
 7364W        W23438   1.259  19.110   1.344  0.3249  0.1007 -0.0491
 7365W        W23439  11.201  13.778   2.877  0.2145 -0.0492 -0.2807
 7366W        W23440   9.022   8.470  13.767 -0.1743 -0.1551  0.1150
 7367W        W23441   3.417   0.257   4.603  0.2469 -0.1203 -0.2312
 7368W        W23442   5.667   3.131  12.437  0.2709 -0.0755 -0.0593
 7369W        W23443   5.813  16.975  12.916 -0.1087  0.0341 -0.0914
 7370W        W23444   5.797   0.681  11.554 -0.1273 -0.2667  0.0384
 7371W        W23445  18.123   3.213   3.486  0.1460 -0.0786 -0.0981
 7372W        W23446  12.682  17.261  14.210  0.2101 -0.0351  0.0749
 7373W        W23447  13.728   0.407  14.598 -0.1753  0.0535  0.0330
 7374W        W23448   5.444  12.163  11.429 -0.2291  0.1854 -0.1328
 7375W        W23449  13.783   8.380   5.216 -0.1966  0.0241 -0.2655
 7376W        W23450  14.397   1.096  11.379  0.2639 -0.3223  0.0953
 7377W        W23451  11.974   5.510   1.544 -0.0895  0.3908 -0.1547
 7378W        W23452  17.587  18.929  12.613  0.1446  0.0150 -0.5375
 7379W        W23453   8.901   3.597  14.877 -0.0736  0.1913  0.0807
 7380W        W23454  12.019   1.205   0.101 -0.3274 -0.0397 -0.1440
 7381W        W23455   1.377  17.028   3.809 -0.1186 -0.1760  0.1123
 7382W        W23456  11.314  10.546  14.978  0.0705 -0.0262  0.1622
 7383W        W23457   9.428   3.036  12.434 -0.1208  0.1292 -0.1166
 7384W        W23458   4.702   4.783  13.663 -0.3489 -0.0645 -0.1797
 7385W        W23459  16.932  17.845  13.116 -0.1974  0.1562 -0.0142
 7386W        W23460   8.382  18.531   2.556  0.1939 -0.2724 -0.1831
 7387W        W23461   1.903   3.104   3.980 -0.1993  0.1457  0.1390
 7388W        W23462  13.088  10.628   4.510 -0.5413  0.1423  0.0762
 7389W        W23463   8.755   2.569   1.881 -0.1374  0.3792 -0.2499
 7390W        W23464  15.996   2.273   1.009 -0.0484 -0.0160  0.0647
 7391W        W23465   8.497  17.344  14.724 -0.2176 -0.1946 -0.1371
 7392W        W23466   3.062  16.947   4.450  0.1631  0.0484 -0.2192
 7393W        W23467   9.273  19.021   4.771  0.0099 -0.4513 -0.1103
 7394W        W23468  17.876  14.806  15.042 -0.0928  0.0039 -0.0970
 7395W        W23469  19.233   1.357  14.559  0.0415 -0.1842  0.1745
 7396W        W23470  18.676  11.867  13.922  0.0225  0.1597 -0.1587
 7397W        W23471   9.095  15.986  13.956 -0.0848 -0.0723  0.0674
 7398W        W23472   2.546   4.024   1.263 -0.1656  0.1178 -0.2535
 7399W        W23473   2.920   8.294   2.713 -0.0420  0.1349  0.0997
 7400W        W23474  19.050  18.372  12.876  0.1657  0.0251  0.0085
 7401W        W23475  16.443  14.282  13.608  0.1336  0.2827 -0.1612
 7402W        W23476  14.308  11.621   0.982  0.4047  0.0885 -0.1756
 7403W        W23477  18.910  19.198  13.881  0.0913 -0.0654 -0.1188
 7404W        W23478   4.282   2.451   5.020  0.1260  0.1822  0.4041
 7405W        W23479   4.339  14.557  12.602  0.0438  0.1179  0.1176
 7406W        W23480  12.571  10.238   2.535  0.1756 -0.0079 -0.0443
 7407W        W23481   0.909  18.904   3.906  0.3747 -0.2560 -0.0806
 7408W        W23482  11.350   8.318  11.943 -0.2108 -0.1537  0.2813
 7409W        W23483   3.537  13.812   0.141 -0.0617 -0.1935 -0.1834
 7410W        W23484   7.311  17.175  11.140  0.2503  0.2986  0.1622
 7411W        W23485  15.221  19.100  13.427 -0.1337  0.2740 -0.1069
 7412W        W23486  15.756  10.448   1.853 -0.2680 -0.1302  0.2308
 7413W        W23487   9.815   3.023  11.904 -0.0462  0.5978 -0.1933
 7414W        W23488   6.092   7.942  11.532  0.0937 -0.2056  0.2278
 7415W        W23489   7.698   4.871   4.979 -0.2195 -0.0993 -0.1200
 7416W        W23490  18.127  18.851  10.842  0.0162  0.0661 -0.0505
 7417W        W23491  10.827   4.683   2.219 -0.0069 -0.2345  0.0216
 7418W        W23492  15.928   6.207   9.762  0.1072  0.0994  0.1826
 7419W        W23493  13.252  12.849  13.677 -0.2795 -0.2053  0.0269
 7420W        W23494   9.039   9.934   0.022 -0.0213 -0.1756  0.0815
 7421W        W23495   6.238  12.306   1.970  0.0566 -0.1898  0.2601
 7422W        W23496   4.485  14.992  14.641 -0.2312 -0.0328  0.0122
 7423W        W23497   7.879  18.813  14.710 -0.4390 -0.2908 -0.1323
 7424W        W23498  16.806   5.340   1.055 -0.0751  0.0713 -0.0239
 7425W        W23499  18.959  10.237   0.397 -0.3487  0.0582  0.2437
 7426W        W23500   2.647   4.239  12.947 -0.1930  0.0611 -0.5389
 7427W        W23501   0.156   2.418  14.298 -0.1759  0.2385  0.0310
 7428W        W23502   6.469   3.250  13.647  0.1051 -0.2016  0.0879
 7429W        W23503  16.703  11.876   4.196  0.1111 -0.0453 -0.2929
 7430W        W23504   3.303   8.504   1.886 -0.2353 -0.0260  0.0808
 7431W        W23505   0.267   6.928  11.396  0.1110 -0.0154 -0.2651
 7432W        W23506   1.264  13.949  13.876  0.1380 -0.0750 -0.0847
 7433W        W23507   7.206  16.711  10.933  0.0789  0.1903 -0.0246
 7434W        W23508  17.405   0.890   9.157 -0.0643 -0.2613 -0.3399
 7435W        W23509   5.731  11.289  13.761 -0.0515 -0.1437  0.0144
 7436W        W23510  12.598   9.560  11.039 -0.1274  0.0696  0.2786
 7437W        W23511   1.354  13.668   2.726  0.0366 -0.0949  0.0436
 7438W        W23512   1.057   9.834  10.653 -0.2194  0.0681 -0.4713
 7439W        W23513  16.013  16.920  14.210  0.3003 -0.1919 -0.1403
 7440W        W23514  11.612  13.108   4.198  0.1804  0.2324 -0.0474
 7441W        W23515  14.674   0.697  12.031  0.0539  0.4602  0.1344
 7442W        W23516  11.858   5.938  14.691  0.0530  0.0432  0.3200
 7443W        W23517   4.742  15.416  12.640 -0.0459  0.2553  0.1429
 7444W        W23518   9.707   0.290   2.008 -0.0851 -0.0196  0.0303
 7445W        W23519   2.254  17.873   2.951 -0.5202 -0.4931  0.3898
 7446W        W23520   8.300  14.637   4.738 -0.1249 -0.1924  0.0730
 7447W        W23521   8.149  13.693   4.581 -0.1244  0.0285 -0.1247
 7448W        W23522   7.875   0.502   3.954  0.3233 -0.0997 -0.1319
 7449W        W23523   3.979   2.192  14.287  0.1155 -0.2555  0.0665
 7450W        W23524  12.655   8.542   3.922 -0.4000 -0.1115 -0.1938
 7451W        W23525  12.323   1.484  12.594  0.1040  0.0726  0.1855
 7452W        W23526  12.656   3.675   1.081  0.1666  0.0435  0.1142
 7453W        W23527   0.464   0.074  11.931 -0.1447  0.1775 -0.0828
 7454W        W23528   3.030  18.501   1.728 -0.0321 -0.1945 -0.2277
 7455W        W23529  17.631  15.637  13.810  0.0982 -0.0720 -0.3299
 7456W        W23530  14.767   7.007   4.579  0.1359 -0.3472 -0.0111
 7457W        W23531   6.407   3.178  11.426  0.2978  0.0469 -0.0155
 7458W        W23532  11.803   7.000  14.191 -0.0996 -0.2622  0.1836
 7459W        W23533  13.326  17.526  13.571 -0.0934  0.0276  0.1594
 7460W        W23534  13.597   0.024   2.658 -0.1527  0.2756 -0.0833
 7461W        W23535  11.264   7.888   1.676 -0.2431 -0.2462 -0.0328
 7462W        W23536   4.119   7.932  11.733  0.2772  0.0697 -0.2721
 7463W        W23537  17.396  13.130  13.118  0.0286  0.2578  0.1676
 7464W        W23538   6.436   2.272   5.444 -0.1885  0.1295  0.1688
 7465W        W23539  18.473  18.913   1.427  0.1251  0.2044 -0.1994
 7466W        W23540  19.115   8.386  11.444 -0.0161 -0.0615  0.0663
 7467W        W23541   9.832  18.476   5.081  0.1412  0.0683  0.0173
 7468W        W23542   8.108   8.784  12.789 -0.1731 -0.1884 -0.1271
 7469W        W23543   9.819  17.653   0.950  0.2495  0.2118  0.1271
 7470W        W23544   8.627   6.412   2.626  0.0469 -0.1525  0.2461
 7471W        W23545   6.517   5.619   2.989 -0.2794 -0.1481  0.1339
 7472W        W23546  18.922  13.662   5.121 -0.0165 -0.1141  0.0624
 7473W        W23547   5.294  14.905   1.800  0.0157 -0.0247 -0.1296
 7474W        W23548   9.601   0.100  12.229 -0.1232 -0.0903 -0.0626
 7475W        W23549   7.937   3.772  11.812 -0.0567 -0.1089 -0.0218
 7476W        W23550   7.385   2.070  13.673 -0.1887  0.1773 -0.1255
 7477W        W23551   5.362   8.701   0.069 -0.1544 -0.1676  0.1567
 7478W        W23552   0.113   9.261   3.037 -0.2527 -0.0941  0.2219
 7479W        W23553  10.590   3.734   2.217  0.2270 -0.1046  0.0037
 7480W        W23554   3.314  18.145   3.141  0.4024 -0.2221  0.0244
 7481W        W23555  13.968   6.972   1.970 -0.1381  0.1313 -0.0941
 7482W        W23556   3.083   1.793   1.189 -0.0587 -0.1082 -0.1385
 7483W        W23557  18.142   7.106  13.488  0.2160  0.4800 -0.2088
 7484W        W23558   1.792   7.329   2.942  0.2415 -0.2880  0.2312
 7485W        W23559  14.149   5.242   0.474  0.2772  0.1017  0.1658
 7486W        W23560  15.881   0.358  11.185  0.0048  0.1737 -0.1840
 7487W        W23561  12.641   3.372  13.452  0.2584 -0.1663 -0.2531
 7488W        W23562  10.857  12.036  14.922 -0.3376  0.1157  0.2064
 7489W        W23563  13.218   6.421  14.097 -0.1513  0.0029  0.4075
 7490W        W23564  17.218   9.202  12.970 -0.0723  0.1108  0.2262
 7491W        W23565  16.963  13.080   3.486 -0.0685  0.2294  0.1419
 7492W        W23566   6.179   2.917  12.472  0.0168  0.1973  0.0809
 7493W        W23567   9.707  16.217   0.516  0.0234  0.1804  0.2538
 7494W        W23568  18.404   5.525   1.575 -0.0195 -0.2201 -0.0767
 7495W        W23569   5.854  13.186   3.150 -0.0097  0.0217  0.0855
 7496W        W23570  16.234   6.945   0.282 -0.3682  0.1699 -0.1054
 7497W        W23571   1.730   0.763  10.673 -0.1212 -0.0729 -0.1773
 7498W        W23572   2.976   5.451   4.244  0.0581 -0.0535  0.0948
 7499W        W23573  11.165  12.693  12.902  0.1143 -0.1776 -0.3246
 7500W        W23574  13.409   3.452  14.558 -0.1381  0.1058 -0.1545
 7501W        W23575   7.901  16.447  12.475 -0.2845 -0.1079  0.3091
 7502W        W23576  12.622   3.693   4.545 -0.0061 -0.3232  0.4491
 7503W        W23577  15.788  17.645  14.843  0.1186 -0.0869  0.1121
 7504W        W23578  14.358  16.839  10.740 -0.1692 -0.0594 -0.1082
 7505W        W23579   5.331   5.729  14.533 -0.1415  0.0401 -0.0878
 7506W        W23580   7.030   8.420  11.097  0.1176 -0.3965  0.0629
 7507W        W23581   2.977  18.488   3.011  0.2399  0.1071 -0.0434
 7508W        W23582  11.822  16.105  13.947  0.1166  0.0976 -0.1091
 7509W        W23583   3.746  14.509   4.286  0.0888 -0.1744  0.2031
 7510W        W23584   4.824   0.495  13.893  0.2956 -0.2500  0.0141
 7511W        W23585   3.616  17.459   3.302 -0.3039 -0.1805 -0.1285
 7512W        W23586  13.314  10.551   3.494 -0.1981 -0.2906 -0.3024
 7513W        W23587  13.967  13.924   1.499 -0.2613 -0.4256 -0.1160
 7514W        W23588   5.839   9.836  11.200 -0.2712  0.1698  0.2768
 7515W        W23589  13.636  17.655  11.097  0.1926  0.2158  0.4251
 7516W        W23590  13.275   4.104  15.021 -0.1277  0.0320  0.0720
 7517W        W23591   1.502   2.264  11.488 -0.0924 -0.0017 -0.1807
 7518W        W23592  13.122   3.133   1.428  0.0845 -0.0101 -0.0347
 7519W        W23593   7.822  15.308  12.132  0.0773  0.2668  0.1052
 7520W        W23594   2.530   3.048   1.036 -0.2107 -0.0794 -0.0698
 7521W        W23595   4.163   8.408  14.289 -0.0706  0.0797  0.3401
 7522W        W23596   2.498  18.609   4.688 -0.1721  0.0022  0.1410
 7523W        W23597  10.094   6.329  12.345 -0.4963 -0.1425  0.3407
 7524W        W23598   2.097  10.396   4.410 -0.2761 -0.0090 -0.1029
 7525W        W23599   4.382  12.675  13.437 -0.5737 -0.2535  0.1211
 7526W        W23600  11.401   6.944   3.553 -0.0375  0.2368 -0.2262
 7527W        W23601  11.880   6.358  14.879  0.2106 -0.0336  0.3753
 7528W        W23602   8.774   5.321   0.293 -0.0291 -0.0442  0.2290
 7529W        W23603   7.990  10.519   1.912 -0.1116  0.0646 -0.1509
 7530W        W23604   3.606   0.966   3.915 -0.1857  0.2138 -0.1992
 7531W        W23605   3.258  14.547   4.085 -0.0890 -0.1439 -0.2841
 7532W        W23606   5.206   3.795   1.829  0.3351 -0.0656  0.0072
 7533W        W23607  18.548  17.229  14.141 -0.1585  0.0098  0.2628
 7534W        W23608   8.120   9.628   5.653 -0.1636 -0.0007  0.0213
 7535W        W23609  18.656   7.155   3.198 -0.2771 -0.0342  0.0116
 7536W        W23610  12.097   8.297  10.773  0.1251 -0.2297 -0.1446
 7537W        W23611   1.292   3.114   2.035 -0.2080 -0.1196 -0.0333
 7538W        W23612   1.003   8.191   1.425 -0.2350  0.0159  0.0172
 7539W        W23613   3.204   9.412  14.351 -0.0908  0.1236 -0.2028
 7540W        W23614   9.880   4.525  13.944  0.1187 -0.3028 -0.3194
 7541W        W23615   7.531   5.076   4.524  0.0497  0.1523 -0.2080
 7542W        W23616   9.416  13.846   4.167 -0.2378 -0.1116 -0.0236
 7543W        W23617   0.591   5.848  11.384 -0.1982 -0.1879  0.0391
 7544W        W23618  13.217   4.849  13.947  0.1217  0.2042  0.0984
 7545W        W23619  10.592   2.200   2.417  0.0551 -0.0687 -0.0827
 7546W        W23620   9.795  15.039   1.360 -0.0976  0.0244  0.1209
 7547W        W23621  18.551  14.991   9.691 -0.3104  0.0799 -0.1419
 7548W        W23622  15.898   3.263   0.164 -0.0228  0.1317 -0.4146
 7549W        W23623   9.990   5.688  13.649 -0.0601  0.1421  0.0540
 7550W        W23624  12.460   6.974  11.319  0.3113 -0.0604  0.0801
 7551W        W23625  15.666  18.692  14.641  0.1442  0.1379 -0.2987
 7552W        W23626   5.201   0.994   2.318  0.3269 -0.0158  0.1658
 7553W        W23627  18.350   5.836  12.588  0.2303  0.0952  0.1140
 7554W        W23628   1.757  12.382   9.095 -0.0008 -0.0345 -0.3500
 7555W        W23629   3.073   7.457  11.561  0.0262  0.2205 -0.0717
 7556W        W23630  16.577   0.680  12.868 -0.0333  0.2270  0.1645
 7557W        W23631   2.851  18.140  14.576 -0.3242 -0.0650 -0.1429
 7558W        W23632  13.327  18.758   5.315 -0.0411 -0.2249  0.2946
 7559W        W23633   9.000  10.301  13.348  0.0347 -0.0897 -0.0760
 7560W        W23634  18.470  12.685   1.770  0.1231 -0.2276  0.0472
 7561W        W23635  13.219  17.439   4.233  0.1410 -0.2438 -0.0622
 7562W        W23636   4.764  12.664  10.539  0.0100 -0.1276 -0.3852
 7563W        W23637  12.303   5.927   3.461 -0.1257 -0.0372  0.0100
 7564W        W23638  10.112   9.121  12.862 -0.3215  0.1243 -0.0385
 7565W        W23639  15.846   0.865   2.687  0.0330 -0.0831 -0.0725
 7566W        W23640  14.413   9.004   2.823 -0.1973 -0.1804  0.0339
 7567W        W23641  18.406  10.434   1.519 -0.3258 -0.2264 -0.1748
 7568W        W23642   3.319  16.988  12.148 -0.1983  0.1182 -0.1618
 7569W        W23643  17.409  17.236  13.688 -0.0676  0.1208 -0.1234
 7570W        W23644  17.750   3.423  14.570 -0.0156  0.0146  0.2041
 7571W        W23645  10.770  18.024  10.555 -0.4046  0.0714 -0.0373
 7572W        W23646   6.919  11.902   2.524 -0.0408 -0.0604  0.3426
 7573W        W23647  12.508   9.228  13.684  0.0063 -0.1066 -0.1165
 7574W        W23648  17.869   5.483  14.774  0.4098 -0.1282  0.1177
 7575W        W23649   8.600   0.908   6.113  0.0088 -0.3687  0.0055
 7576W        W23650  17.614   7.535   1.383  0.1151  0.0653  0.1971
 7577W        W23651   7.806   1.490   4.401 -0.0384  0.0973 -0.1311
 7578W        W23652  13.805   7.857   0.518  0.5649  0.1580 -0.0935
 7579W        W23653  17.364   1.538   3.074 -0.0881 -0.0427 -0.0645
 7580W        W23654  19.144  18.525   1.850  0.0682  0.0473  0.1879
 7581W        W23655  12.392   8.203   4.332  0.2256  0.0565  0.1997
 7582W        W23656  19.285  13.490  12.386  0.0302 -0.2333  0.0782
 7583W        W23657   0.348  11.850   2.262  0.2824 -0.1487  0.0102
 7584W        W23658   9.797  14.463   1.381 -0.0501 -0.0966  0.0257
 7585W        W23659  13.842   0.547   3.647  0.0746  0.0289  0.3127
 7586W        W23660   7.936   3.295   4.033 -0.0397  0.2015 -0.0296
 7587W        W23661  14.995  13.247  10.680  0.0270  0.1410 -0.2356
 7588W        W23662  13.148   2.607  14.700  0.2072 -0.1412 -0.2704
 7589W        W23663  17.257  14.434  12.590  0.1762 -0.1217  0.0954
 7590W        W23664   4.291  18.547   0.408 -0.0672  0.1153  0.2080
 7591W        W23665  11.860  17.204   3.661  0.0557  0.1392  0.0623
 7592W        W23666   6.765   4.796  14.950  0.0204  0.2361  0.0543
 7593W        W23667  12.645  15.371  10.334  0.0219  0.1492  0.1695
 7594W        W23668  15.373   8.425  12.479 -0.0601  0.1410  0.3268
 7595W        W23669   3.429  17.420   5.143  0.0813  0.0738  0.1028
 7596W        W23670   0.927  14.108   0.423 -0.3432  0.0174 -0.0168
 7597W        W23671   9.278   2.644  13.547 -0.1044 -0.2005  0.0414
 7598W        W23672   9.832   7.804  12.777 -0.2097 -0.0255  0.0630
 7599W        W23673  16.295  11.132  12.306  0.2997 -0.0164 -0.2829
 7600W        W23674  15.071   1.156   1.117  0.3242  0.2182 -0.1989
 7601W        W23675   3.778   8.350   4.150  0.0925 -0.2552 -0.3457
 7602W        W23676  16.345  16.728   1.475  0.0658  0.2593  0.0272
 7603W        W23677  17.135   8.687   2.497 -0.1623 -0.1078  0.4598
 7604W        W23678  18.740  16.750   1.476 -0.0398  0.0444 -0.2282
 7605W        W23679  14.872  15.313   3.439  0.0765 -0.1037  0.0327
 7606W        W23680  11.047  12.557   3.722 -0.0460  0.1404 -0.0376
 7607W        W23681  14.019   4.460   3.430  0.3866 -0.1248  0.1907
 7608W        W23682   6.068  15.477   2.445 -0.4184  0.1059 -0.1421
 7609W        W23683   0.691  11.547   2.644 -0.0297  0.0768  0.2807
 7610W        W23684   9.176   3.280  10.318  0.4219  0.0204  0.2867
 7611W        W23685   4.629  18.142   5.248 -0.1898 -0.1319 -0.1701
 7612W        W23686  14.294  15.003  13.350  0.1124 -0.1400 -0.2582
 7613W        W23687  16.087   6.090   3.038  0.0750 -0.1674 -0.2699
 7614W        W23688   7.034  16.920   0.034 -0.3178  0.0179 -0.1338
 7615W        W23689  16.564  17.466   3.379  0.0070 -0.3082 -0.3726
 7616W        W23690  16.887   6.023   1.595  0.0369 -0.0778  0.3275
 7617W        W23691  11.007  14.837  12.491  0.1887  0.0491  0.1993
 7618W        W23692  14.108   3.709  13.735 -0.0313  0.1551 -0.5508
 7619W        W23693  10.797   8.853  11.917  0.1412 -0.2732 -0.0362
 7620W        W23694   7.200  16.411  10.286  0.1537 -0.0454 -0.1925
 7621W        W23695   2.473  10.528  11.878  0.2015 -0.1885 -0.2908
 7622W        W23696   4.511   9.260   5.425 -0.1046  0.1619 -0.0722
 7623W        W23697  12.130   9.241  15.026 -0.4008  0.1830  0.1410
 7624W        W23698   3.356  18.398   4.440 -0.1533  0.1463 -0.1530
 7625W        W23699  11.266   6.279   1.356 -0.0342 -0.2256 -0.0840
 7626W        W23700   3.340   7.059   1.075 -0.1645 -0.2262 -0.4049
 7627W        W23701  12.529  15.850   1.535 -0.3930 -0.0810  0.0237
 7628W        W23702  15.804  15.862  14.230  0.4064  0.4645 -0.2637
 7629W        W23703   2.959   5.740  14.393  0.2059 -0.1249 -0.0649
 7630W        W23704  10.324  11.052  13.751 -0.0755  0.1855  0.1885
 7631W        W23705  16.176   6.692   3.555 -0.0684  0.1082 -0.2280
 7632W        W23706   3.077   5.223   2.229 -0.1270  0.4141  0.1546
 7633W        W23707   3.207  14.342  10.460  0.0529 -0.1683 -0.0844
 7634W        W23708  16.998   0.422   2.300  0.1976  0.1514 -0.1466
 7635W        W23709   1.798  13.396  10.234  0.0294 -0.0604  0.1112
 7636W        W23710  11.021   6.068   1.729 -0.1228 -0.2885 -0.0376
 7637W        W23711  14.595   0.073   3.500  0.4181  0.4875 -0.1289
 7638W        W23712  12.647  11.236   1.137 -0.1380 -0.0011 -0.2049
 7639W        W23713   9.602  13.044  12.465 -0.3650  0.1870 -0.1211
 7640W        W23714   7.287  16.795  13.070 -0.0340  0.3694  0.2398
 7641W        W23715   5.654  16.143  15.049 -0.5918  0.0430 -0.1480
 7642W        W23716  14.120   3.463   1.316  0.0778  0.1511  0.3464
 7643W        W23717  10.365   4.262  11.338 -0.3046 -0.1179 -0.1590
 7644W        W23718   5.299  15.181   4.491 -0.2369 -0.0740  0.2819
 7645W        W23719   9.277  12.417   2.843  0.1363 -0.4429 -0.0307
 7646W        W23720   2.202  17.975   4.101 -0.0433 -0.1875  0.0645
 7647W        W23721   1.694  16.792  14.346  0.4051 -0.0468  0.0373
 7648W        W23722  15.982  15.602  14.963 -0.1932 -0.0050 -0.0941
 7649W        W23723  11.845   4.090   9.752 -0.2002  0.1191  0.0436
 7650W        W23724   5.144  12.319  12.409 -0.1719 -0.0114 -0.4435
 7651W        W23725   6.785   5.206   3.674 -0.0740  0.1564  0.3568
 7652W        W23726  17.022  18.906   1.000  0.0175 -0.0519  0.3338
 7653W        W23727  10.290  18.608   4.466  0.1704 -0.0319  0.2127
 7654W        W23728   3.624  14.224   1.250  0.2186 -0.1793 -0.1675
 7655W        W23729   6.738   3.726  11.884  0.0416 -0.2696 -0.0943
 7656W        W23730  13.181  15.447   9.497 -0.0467 -0.1540  0.2786
 7657W        W23731  13.403   7.600  13.862  0.0619 -0.0137  0.3948
 7658W        W23732   4.465   7.816   0.080  0.4855  0.1690 -0.0429
 7659W        W23733  11.104   3.845  11.643 -0.1746 -0.2811 -0.2698
 7660W        W23734  15.671   2.462  13.719  0.3723 -0.1312 -0.0092
 7661W        W23735  11.861  12.855   1.358 -0.2203 -0.2166 -0.1199
 7662W        W23736  18.516   9.893   5.012 -0.0908 -0.1007  0.4134
 7663W        W23737   0.430  10.780   5.068  0.0304 -0.2771  0.0584
 7664W        W23738   3.735  15.806   4.186 -0.2742 -0.1883  0.2052
 7665W        W23739  12.221   4.314   2.762  0.1323  0.1902 -0.1716
 7666W        W23740  12.463  11.506  10.263  0.5544 -0.1804  0.1493
 7667W        W23741   7.030   2.599   2.691 -0.0775 -0.1037  0.0460
 7668W        W23742  10.587  18.407   3.000 -0.0170 -0.2424 -0.5933
 7669W        W23743   9.079   7.306  14.616 -0.0129 -0.1480 -0.0662
 7670W        W23744  11.709  10.242  13.920  0.1394  0.1089 -0.0988
 7671W        W23745   2.278   7.312  11.106  0.0678  0.0473 -0.4993
 7672W        W23746   3.229   7.891   3.760 -0.4953  0.1196  0.2291
 7673W        W23747   1.277  11.228   9.275  0.0703 -0.3218 -0.1872
 7674W        W23748   3.111   3.418   1.664  0.1389  0.2359 -0.0016
 7675W        W23749  10.630  19.013  10.708  0.1244 -0.3524 -0.0459
 7676W        W23750  16.257  19.114  12.433  0.1693  0.0251 -0.3915
 7677W        W23751  13.326  19.204   4.101 -0.1054  0.0080 -0.0445
 7678W        W23752   5.964   2.417   4.182  0.1521  0.3185  0.0990
 7679W        W23753  17.165  19.180  10.308 -0.1023  0.0812 -0.1184
 7680W        W23754   6.108  11.627  12.236 -0.0813  0.0764  0.1407
 7681W        W23755  16.252  16.069   9.628  0.1467  0.2181  0.2224
 7682W        W23756  12.532  15.733   3.542 -0.2272 -0.2151 -0.0541
 7683W        W23757   6.948  17.774  11.816  0.0578 -0.2371  0.2737
 7684W        W23758   0.501   9.742   4.276  0.0951  0.1039  0.2739
 7685W        W23759   8.369   1.925   5.952 -0.2331 -0.0946 -0.2699
 7686W        W23760   5.697   7.933   3.754 -0.0296  0.4298  0.0931
 7687W        W23761  17.971  12.897  11.117  0.1213 -0.0932 -0.1917
 7688W        W23762   9.529   2.581   3.270  0.3020  0.1985  0.0599
 7689W        W23763  10.912  11.807  11.717 -0.3136  0.2731 -0.1780
 7690W        W23764   7.976  18.986   0.652 -0.0140  0.0529  0.0879
 7691W        W23765  11.210  18.528   4.860 -0.1491  0.0764 -0.0209
 7692W        W23766   1.761   5.083  11.759 -0.0687 -0.2209 -0.1124
 7693W        W23767  11.800  19.036   4.446  0.0000  0.0484  0.0129
 7694W        W23768  10.250  14.214   4.057  0.0031 -0.1659 -0.2543
 7695W        W23769  10.084   9.421   4.486 -0.1701  0.0782 -0.1350
 7696W        W23770  14.742  12.042   0.278  0.1685 -0.1077  0.0401
 7697W        W23771   1.917  10.053  13.030  0.1753  0.3580 -0.2486
 7698W        W23772  16.770   6.998   1.159  0.2175 -0.2267 -0.0692
 7699W        W23773  18.441   6.842   0.096 -0.0198  0.0922 -0.1848
 7700W        W23774   3.794   2.304  14.753  0.2228  0.0001 -0.0309
 7701W        W23775   9.367   2.568   5.129  0.1041  0.1123  0.3253
 7702W        W23776   6.280   6.947   2.413  0.2352  0.0362  0.2995
 7703W        W23777   8.363   7.577   1.133 -0.2965  0.3275  0.0983
 7704W        W23778  18.607  10.317   2.006 -0.0245  0.1983  0.0531
 7705W        W23779  15.115  11.459  11.704  0.1992 -0.0127 -0.0912
 7706W        W23780  15.198  14.835   0.965  0.3896  0.1300 -0.1405
 7707W        W23781  14.454  10.158   4.481 -0.1780  0.1918  0.1451
 7708W        W23782  16.424   8.176   3.598 -0.3777  0.0237  0.0364
 7709W        W23783   0.736   2.028  11.232 -0.0994 -0.2887  0.0363
 7710W        W23784  10.228  10.566  12.480  0.1882 -0.0699  0.0190
 7711W        W23785   9.563   8.966   1.274 -0.3421  0.3226 -0.3478
 7712W        W23786   0.825  14.928   2.365 -0.3435 -0.0379 -0.1272
 7713W        W23787   7.543  11.425  14.831  0.1141  0.1067 -0.3376
 7714W        W23788  14.013  18.555  14.655  0.3439 -0.2812 -0.3699
 7715W        W23789   4.262   6.848   1.674 -0.4461  0.0163 -0.1605
 7716W        W23790   6.243   9.926  12.179 -0.1690 -0.1948 -0.2972
 7717W        W23791   8.818   0.455  14.722  0.1509 -0.0988  0.2129
 7718W        W23792   2.790  18.674   3.429  0.3281  0.1034 -0.5925
 7719W        W23793   7.719   7.696   5.738  0.0590  0.0363 -0.1710
 7720W        W23794  12.638  11.281  11.789 -0.4955  0.1110  0.0563
 7721W        W23795  12.612  16.486   4.732  0.2898 -0.1701 -0.4208
 7722W        W23796   9.934  14.268  13.460 -0.0426  0.2133 -0.1981
 7723W        W23797   3.012   6.389  11.664 -0.0294 -0.3686 -0.0131
 7724W        W23798   9.354   2.170  13.647 -0.2218  0.1244  0.0796
 7725W        W23799   2.803  12.918  14.607  0.2596 -0.0339  0.3276
 7726W        W23800  19.168  11.147  11.467 -0.2213 -0.0105  0.3582
 7727W        W23801  11.620   5.586  14.429 -0.2738 -0.0482  0.1525
 7728W        W23802  10.981   8.022   5.999  0.0791  0.0968  0.0062
 7729W        W23803   3.310  10.910   4.718 -0.0248  0.3957  0.3295
 7730W        W23804   8.876   1.004   2.081 -0.2839  0.3770  0.0165
 7731W        W23805  15.051   7.640  11.298 -0.2864  0.1208 -0.0298
 7732W        W23806   1.559  16.348   0.069 -0.0916 -0.0536  0.0075
 7733W        W23807   4.012  10.016  14.501 -0.0371 -0.1249 -0.1848
 7734W        W23808   0.601   5.087  12.910 -0.1799  0.0993 -0.1805
 7735W        W23809   5.892   0.550  13.078 -0.1598 -0.0154 -0.1681
 7736W        W23810  16.779   0.292   0.175  0.0166  0.1690  0.4626
 7737W        W23811  16.855   1.156   0.063 -0.4273  0.0238 -0.0991
 7738W        W23812  13.175  13.384   2.694  0.0312  0.1926  0.1636
 7739W        W23813   4.299   1.163   3.170  0.1192  0.1056  0.0859
 7740W        W23814   6.734   2.544   0.852 -0.0411  0.0720  0.3261
 7741W        W23815   3.726   9.041  13.252 -0.1439  0.3677  0.0627
 7742W        W23816   6.046  13.049  11.652 -0.2819  0.1121  0.0878
 7743W        W23817   8.898   9.672   0.467 -0.2280 -0.1288 -0.1313
 7744W        W23818   0.254  18.203   4.157 -0.1478  0.1456 -0.1353
 7745W        W23819  13.418   3.423   4.794  0.0060  0.0413 -0.4079
 7746W        W23820   6.505   9.022   3.628 -0.0044 -0.0382 -0.3891
 7747W        W23821  10.698   0.603   2.035  0.1738  0.2021  0.2660
 7748W        W23822   7.791  15.646  13.835  0.0737  0.0414  0.0433
 7749W        W23823   2.352   5.996  13.723 -0.1152  0.1948  0.3170
 7750W        W23824  12.930   5.172   5.582 -0.2062 -0.1841  0.1679
 7751W        W23825  17.737  17.792   3.489  0.0337  0.3223 -0.0637
 7752W        W23826   1.532  12.140   3.810 -0.0228  0.2352  0.2644
 7753W        W23827  19.003  16.393  14.556  0.2914  0.0531 -0.3643
 7754W        W23828  18.882  12.582  11.579  0.0455 -0.1441  0.2718
 7755W        W23829   8.804  13.328   5.518  0.3205  0.1119  0.0545
 7756W        W23830  14.195  11.552   4.451 -0.0642 -0.1955  0.0233
 7757W        W23831  11.987  14.353  11.088  0.0735  0.2096 -0.2913
 7758W        W23832   1.090  12.163  10.401  0.1456  0.1170 -0.2341
 7759W        W23833  16.374   7.961   0.399 -0.0372  0.1496 -0.2355
 7760W        W23834  13.495   7.595   2.376  0.3552  0.3326 -0.1283
 7761W        W23835  12.434  15.443  11.680 -0.0137 -0.3924 -0.3556
 7762W        W23836  15.152  19.195  11.615  0.0471  0.3154  0.2570
 7763W        W23837   4.266   7.377  13.561 -0.0952 -0.1591  0.1653
 7764W        W23838  17.285   1.788  11.351  0.0026 -0.1020  0.2363
 7765W        W23839  14.878   2.164   0.350  0.0769  0.0331  0.2131
 7766W        W23840  13.440  12.843  15.029 -0.1431 -0.0648  0.0200
 7767W        W23841  14.615   4.334  12.643 -0.0606  0.0314  0.0327
 7768W        W23842  13.914   2.048  14.815 -0.1014 -0.0619 -0.0341
 7769W        W23843   5.979  10.620   1.241 -0.2462 -0.0476 -0.4290
 7770W        W23844   3.566   5.884   1.805  0.6007 -0.1761 -0.2087
 7771W        W23845   4.077  14.139  13.413 -0.0896 -0.2097  0.2298
 7772W        W23846   9.364  17.883   1.035 -0.0787 -0.0154 -0.1000
 7773W        W23847   8.328  17.760  10.591  0.2883 -0.1419  0.0069
 7774W        W23848   4.268  15.151   1.886 -0.0943  0.1282 -0.1063
 7775W        W23849   3.169  13.354   3.727  0.2503 -0.1522  0.0839
 7776W        W23850  16.848  11.879  11.469  0.0723  0.4177 -0.0326
 7777W        W23851  18.863  16.592   1.930 -0.1743  0.0094  0.0967
 7778W        W23852   1.997   3.929   0.510  0.0172  0.1968  0.1940
 7779W        W23853  18.443   6.460  12.759  0.4563  0.4310 -0.2313
 7780W        W23854  13.753   8.540   2.983  0.1516 -0.0386 -0.1168
 7781W        W23855  17.830   5.692  10.715 -0.1050 -0.1385 -0.0019
 7782W        W23856   0.825   2.354  10.717  0.0393  0.1161 -0.0840
 7783W        W23857  13.458  16.205  14.200  0.0419  0.2115 -0.0664
 7784W        W23858   3.674   4.872   1.631 -0.1945 -0.2778  0.0381
 7785W        W23859  10.906  14.462  14.024  0.0349 -0.0375 -0.3895
 7786W        W23860   6.571   9.971  10.897  0.2287  0.2101  0.1600
 7787W        W23861   9.892  14.392   3.141 -0.3793  0.0338  0.0812
 7788W        W23862  12.219   9.036   9.657 -0.0306 -0.0184  0.3854
 7789W        W23863  13.380  13.898   4.176 -0.3305 -0.2065  0.0910
 7790W        W23864  17.194  10.529  12.242  0.5037 -0.0334 -0.1494
 7791W        W23865   0.953   4.036  12.801  0.0588  0.0578 -0.3422
 7792W        W23866  10.167   6.164   2.763 -0.1038 -0.1894  0.1024
 7793W        W23867  15.083   8.816   1.989 -0.4594 -0.3549 -0.1072
 7794W        W23868  16.225   2.425   0.086  0.0235  0.1255  0.1615
 7795W        W23869   2.510  15.144   2.620 -0.2747  0.5009 -0.0333
 7796W        W23870   4.486   2.642  13.197  0.2085 -0.0284 -0.0295
 7797W        W23871   5.442   6.890   2.545  0.3286 -0.2090 -0.1365
 7798W        W23872  11.419   6.216  13.312 -0.0305  0.2355  0.0764
 7799W        W23873   2.811  10.205   3.946  0.0662  0.1783 -0.2849
 7800W        W23874  15.119  12.784  14.227  0.0325  0.2104 -0.0266
 7801W        W23875   5.843  11.327   2.975 -0.2228  0.1314 -0.0449
 7802W        W23876  18.963  13.153   5.038 -0.1492 -0.0984 -0.0736
 7803W        W23877  17.866   0.350  14.925  0.3635  0.0059 -0.2558
 7804W        W23878   8.524  10.062   4.634  0.0821 -0.3952  0.1730
 7805W        W23879   9.817   3.996   2.881  0.4058 -0.0827  0.1413
 7806W        W23880   7.230  10.609  14.581 -0.2163 -0.0321 -0.0294
 7807W        W23881  16.436  14.306  11.325  0.2658 -0.2290 -0.0947
 7808W        W23882  16.408   5.655   1.009  0.1958 -0.0161  0.3140
 7809W        W23883   7.795  14.556   2.760  0.0668 -0.0594 -0.1921
 7810W        W23884   2.440   6.817   1.369 -0.0542 -0.0159 -0.0578
 7811W        W23885   7.721   5.480  13.063 -0.2562  0.0479 -0.4057
 7812W        W23886  18.662   8.508   1.961 -0.1491  0.1002  0.3584
 7813W        W23887  16.947   5.241  10.356 -0.1013  0.2033 -0.3731
 7814W        W23888  15.347  14.626   9.666  0.1388 -0.0931  0.1088
 7815W        W23889  10.590   8.208   0.384 -0.0135 -0.0384  0.0080
 7816W        W23890  18.612   6.903  10.634 -0.0883 -0.0121  0.0745
 7817W        W23891  12.147   7.583   0.735 -0.1128 -0.0378  0.3282
 7818W        W23892  10.122  16.878  11.686 -0.1245  0.1120 -0.3370
 7819W        W23893  13.054  15.168  12.717  0.2590  0.2055 -0.3263
 7820W        W23894  10.723  11.577   3.617 -0.1572 -0.0432  0.1979
 7821W        W23895   7.927   6.746  11.364  0.0976  0.3415 -0.0469
 7822W        W23896   3.461   8.986   3.716 -0.2548 -0.0137  0.0230
 7823W        W23897   1.903   5.944  12.819 -0.2484  0.1822 -0.0156
 7824W        W23898   6.922   3.399   3.970  0.1170 -0.0258 -0.0770
 7825W        W23899  17.657   3.953   2.637 -0.0877  0.1045 -0.1729
 7826W        W23900  10.623   7.953  12.159 -0.2771  0.0571 -0.3747
 7827W        W23901   2.311   8.643  13.957 -0.1540  0.0772 -0.0933
 7828W        W23902   5.613   2.099  11.721 -0.1161  0.3508 -0.1777
 7829W        W23903  15.796  14.191   2.008 -0.0200 -0.3069  0.0631
 7830W        W23904  17.756   7.557   2.302 -0.0126 -0.1206  0.0995
 7831W        W23905   4.992   6.892  10.451 -0.1721  0.5665  0.1811
 7832W        W23906   2.947   1.626  14.611 -0.2201  0.2296  0.1383
 7833W        W23907   7.958  18.640  13.381 -0.4695 -0.2244 -0.2778
 7834W        W23908   8.898   8.527  11.615 -0.2990  0.3971 -0.1567
 7835W        W23909   8.157  17.028  10.587 -0.2222  0.2470  0.2732
 7836W        W23910   6.531  17.178  14.927 -0.1844 -0.0888 -0.1810
 7837W        W23911   5.268   7.974  10.953  0.0402  0.1001  0.0147
 7838W        W23912   9.828   6.447  12.722  0.0205  0.0301  0.0320
 7839W        W23913  18.167  11.421   5.741 -0.1235  0.0579 -0.0218
 7840W        W23914  14.699   8.364  12.457 -0.0908  0.2847  0.0616
 7841W        W23915   3.810   3.774   0.262 -0.1766 -0.0201  0.3926
 7842W        W23916  15.629   3.218   1.088 -0.0646  0.0525 -0.1994
 7843W        W23917   5.422   7.953   6.503  0.0022 -0.0177 -0.2864
 7844W        W23918   7.288   1.734   4.558 -0.0846  0.2439  0.1295
 7845W        W23919  18.982   4.662  12.055 -0.2635  0.0455  0.2374
 7846W        W23920  14.711   8.347   2.844 -0.2925 -0.0589  0.1675
 7847W        W23921  10.501   2.199   4.820  0.1956  0.1649  0.2009
 7848W        W23922   7.660  12.380   3.955  0.1204 -0.0156 -0.0891
 7849W        W23923   7.213   7.648  15.052 -0.0458 -0.0485  0.2209
 7850W        W23924   0.031   6.369  12.338  0.1624 -0.0373  0.1586
 7851W        W23925   3.556   1.833   0.992 -0.1089  0.0365  0.4531
 7852W        W23926  12.568   0.393   1.946  0.1778 -0.3282  0.0331
 7853W        W23927  13.624  17.178  12.519 -0.1254 -0.2723 -0.2528
 7854W        W23928   3.889  15.164   0.737  0.1162 -0.1427 -0.5036
 7855W        W23929   6.344  10.056  14.626  0.0255  0.1052  0.0003
 7856W        W23930   8.286   0.325   4.057 -0.1245  0.0900  0.0755
 7857W        W23931  12.361  11.276   0.357 -0.2130  0.1332  0.2765
 7858W        W23932  15.436   8.666  14.586  0.0605  0.0308  0.1614
 7859W        W23933  15.070   1.035  10.271  0.0390 -0.1195  0.2197
 7860W        W23934   9.783  16.138  12.296 -0.0268  0.1391  0.0301
 7861W        W23935   8.574   7.866   3.150  0.1540 -0.0792  0.3097
 7862W        W23936  11.679   2.806   2.140 -0.1946 -0.0627  0.4076
 7863W        W23937  17.854  16.964  11.533 -0.2228  0.1085  0.0021
 7864W        W23938  11.014  10.529   2.063 -0.1737 -0.2601 -0.3491
 7865W        W23939  10.462   8.218   5.886  0.2690  0.1015  0.0227
 7866W        W23940  17.852  18.872  13.109 -0.1016 -0.1700 -0.2669
 7867W        W23941  18.180  15.502   1.450 -0.0762 -0.1695  0.1637
 7868W        W23942  13.981  13.289  13.491  0.0856  0.1224 -0.0017
 7869W        W23943   4.719  16.716   0.494 -0.0175 -0.0580  0.0926
 7870W        W23944   0.441  10.847  12.425 -0.0512 -0.1901 -0.1364
 7871W        W23945  17.677  17.921   2.462 -0.0455  0.2171  0.0771
 7872W        W23946   9.533   8.675  13.971  0.0363 -0.1818  0.0917
 7873W        W23947  18.404   6.217   4.478 -0.0705 -0.1074 -0.1413
 7874W        W23948  12.853  14.776  10.297 -0.1164 -0.2678 -0.1240
 7875W        W23949  15.667  14.438  11.555  0.2408 -0.0307 -0.2854
 7876W        W23950   9.477   8.953   2.483  0.3059  0.2032 -0.0625
 7877W        W23951  11.755   1.404   4.892  0.4131 -0.4527  0.2777
 7878W        W23952  14.401  10.360   0.546 -0.0778  0.1181  0.1331
 7879W        W23953   9.878  12.119  12.339  0.3059 -0.0458 -0.2933
 7880W        W23954  14.254  10.284   3.144  0.2209 -0.1284 -0.0489
 7881W        W23955   2.994  12.833  11.077  0.2153  0.0351  0.2824
 7882W        W23956   8.767  14.206   2.712 -0.1500 -0.0426 -0.0552
 7883W        W23957  18.377   8.108   4.752  0.5790 -0.2840 -0.1049
 7884W        W23958   1.854   5.525  10.761  0.2000  0.1959  0.0333
 7885W        W23959   4.652  10.680   1.331  0.0924  0.3982 -0.3172
 7886W        W23960  12.085   0.394   3.530  0.0525 -0.0915  0.3110
 7887W        W23961   3.237  18.726  12.009 -0.0905 -0.1621  0.1602
 7888W        W23962  17.422   5.378   2.733  0.1177 -0.0641  0.1138
 7889W        W23963   0.654  16.557  14.110  0.2269 -0.1421  0.0741
 7890W        W23964  14.853  16.926   4.622  0.1129 -0.1243  0.0193
 7891W        W23965  16.613  12.914  11.083  0.0412 -0.0449  0.2767
 7892W        W23966   6.101   2.820  11.203 -0.0469 -0.0722  0.2886
 7893W        W23967  10.481   7.665   5.171  0.1139 -0.2072 -0.1604
 7894W        W23968   8.758   7.997   1.341 -0.0213  0.0254  0.1966
 7895W        W23969  11.528   4.023   0.127  0.0829  0.0518  0.2671
 7896W        W23970   0.711  13.539   3.966 -0.0705 -0.1044 -0.0997
 7897W        W23971  10.829   8.032  11.342  0.3352 -0.2263  0.1533
 7898W        W23972   2.550   0.769  13.728 -0.3989 -0.2551  0.0056
 7899W        W23973  17.877   1.063   4.577  0.2860 -0.1946 -0.0344
 7900W        W23974   4.081   8.418  10.953 -0.0840 -0.2325  0.1985
 7901W        W23975   8.156  13.067  14.411 -0.1697 -0.3701 -0.0269
 7902W        W23976   8.302   7.495   0.110  0.1811 -0.1133 -0.0114
 7903W        W23977   5.420  17.445   4.132  0.0903 -0.0115  0.1944
 7904W        W23978   9.455  11.552   0.832  0.0158 -0.1542  0.0823
 7905W        W23979   3.619   0.028  14.295  0.2365 -0.1577 -0.1031
 7906W        W23980   7.185  15.635  11.819 -0.0424 -0.4900  0.2323
 7907W        W23981   3.491  16.062   3.034 -0.1637  0.2407  0.0576
 7908W        W23982   7.568   9.945   4.860 -0.0242  0.1321 -0.0767
 7909W        W23983   6.473   9.829   2.216 -0.1879  0.2385  0.0897
 7910W        W23984  12.152   0.924  13.219 -0.0266  0.2288 -0.1816
 7911W        W23985   9.396   1.439   9.920  0.0830  0.0797  0.3101
 7912W        W23986   5.388   2.365  14.647 -0.2787 -0.1482 -0.1379
 7913W        W23987   0.355   8.740  14.887  0.1430  0.2297 -0.1605
 7914W        W23988   0.968  11.930  11.915  0.2707  0.1459 -0.1648
 7915W        W23989   2.768   5.530   5.906 -0.2143  0.0437  0.0676
 7916W        W23990   0.036   9.605  10.395  0.1632 -0.0517  0.1903
 7917W        W23991   9.380   9.972   2.478  0.0675 -0.0080  0.5325
 7918W        W23992   3.832  12.176  12.050 -0.1682 -0.3655 -0.0455
 7919W        W23993  18.862  11.794   4.285  0.0875  0.1249  0.2496
 7920W        W23994   7.084   8.771  13.724  0.1323  0.2936  0.0369
 7921W        W23995  12.845   3.340   4.795 -0.1252  0.0666  0.0932
 7922W        W23996   1.310   9.709   2.498 -0.0516 -0.2312 -0.0889
 7923W        W23997   6.128   2.547  12.895 -0.2321  0.2285  0.4663
 7924W        W23998   0.500  14.930   5.266 -0.0172  0.2889  0.2046
 7925W        W23999  11.851   2.991   3.176  0.0055  0.0301  0.3918
 7926W        W24000  17.781  10.796   3.666 -0.0824 -0.0906  0.0395
 7927W        W24001  12.543  16.837   4.151 -0.3555 -0.0637 -0.2903
 7928W        W24002   2.395   1.197  12.457  0.0958  0.3124 -0.3438
 7929W        W24003  13.519  14.137  13.951 -0.2585  0.0737  0.1647
 7930W        W24004  13.163   2.559   4.980  0.3104 -0.0234  0.2201
 7931W        W24005   3.937   9.821   1.933  0.0677  0.0531  0.2063
 7932W        W24006  18.328   8.172   2.027  0.1957  0.1441 -0.5117
 7933W        W24007   1.362  15.373  14.660 -0.1016  0.1328 -0.1684
 7934W        W24008   6.530   8.109  14.382 -0.2118 -0.2726 -0.1350
 7935W        W24009  11.558  14.506   1.943  0.1728 -0.1626 -0.0012
 7936W        W24010  15.646   4.509   1.375 -0.1634 -0.2043  0.2254
 7937W        W24011   7.069   2.745   3.235  0.3165  0.1939  0.1924
 7938W        W24012  17.933   0.104  13.498  0.5544  0.1726 -0.0602
 7939W        W24013   7.374   5.937   2.752  0.1691  0.2681 -0.2562
 7940W        W24014  11.780  12.092   2.114  0.2196  0.2145 -0.0329
 7941W        W24015   2.303  10.327  13.808 -0.1238  0.0063 -0.1753
 7942W        W24016  12.546   5.151  12.130 -0.1919 -0.0028 -0.4246
 7943W        W24017   8.718   0.885   3.341  0.0325  0.3128 -0.1535
 7944W        W24018   6.189   6.611   6.075  0.0548  0.1312 -0.3358
 7945W        W24019   7.512  15.781  14.725 -0.3096 -0.0573 -0.0213
 7946W        W24020  13.981  15.551   4.036  0.3851  0.0995 -0.2890
 7947W        W24021  18.532  15.557   2.075 -0.1857 -0.0131 -0.0945
 7948W        W24022  11.781   6.145   5.350  0.4324  0.0464 -0.0796
 7949W        W24023   5.880  11.204   0.421 -0.1242  0.1030  0.1953
 7950W        W24024  18.036   5.934   3.687 -0.0315  0.1598  0.0268
 7951W        W24025   9.230  12.505  14.146 -0.0088 -0.4054 -0.0485
 7952W        W24026  11.157   1.758   1.141 -0.0365  0.0608  0.3740
 7953W        W24027   6.396   4.485   5.327  0.0670 -0.0351  0.1076
 7954W        W24028   3.310   5.560  14.788  0.2113  0.1252 -0.2102
 7955W        W24029  15.842   1.986   2.698  0.1476 -0.2244 -0.1641
 7956W        W24030   0.637   4.714  14.553  0.0469 -0.1796  0.4108
 7957W        W24031   8.569  12.792   0.587  0.3779 -0.2060  0.0766
 7958W        W24032  10.556   7.145   4.030  0.0817  0.0570 -0.4301
 7959W        W24033   7.581  14.225   3.486 -0.5551  0.2245  0.2361
 7960W        W24034  12.739  14.584   2.876  0.1422  0.0580  0.0324
 7961W        W24035   5.418   6.218  14.690  0.0628 -0.2249  0.5927
 7962W        W24036  18.225   4.647  13.723 -0.2825  0.0160 -0.2297
 7963W        W24037   1.562   0.983  13.269  0.0272 -0.1083 -0.2358
 7964W        W24038   2.616   6.660  12.101  0.2225  0.1053 -0.0017
 7965W        W24039   3.233  19.093  11.623 -0.0700  0.0914  0.0701
 7966W        W24040   0.513  16.117   1.072 -0.3481  0.1989  0.2261
 7967W        W24041   0.592   2.089   0.948 -0.2463  0.1043  0.2047
 7968W        W24042  13.590   2.559   2.632  0.0859 -0.1688 -0.0762
 7969W        W24043  17.448   0.516   1.226  0.4167 -0.0683  0.3703
 7970W        W24044  14.884  10.574   2.342  0.1373 -0.1826 -0.3366
 7971W        W24045   3.008   1.191  13.781 -0.1555  0.0392 -0.0610
 7972W        W24046  16.526   8.771   0.044  0.1350 -0.2322  0.4114
 7973W        W24047   8.097  14.673   2.109  0.2099 -0.0671 -0.1912
 7974W        W24048  16.936   6.171   1.092  0.0999 -0.1847  0.4709
 7975W        W24049   1.188  13.150   4.535  0.0722  0.0152  0.0096
 7976W        W24050  15.688   6.865   3.157 -0.0918  0.3746 -0.1668
 7977W        W24051   2.856  12.251   1.313  0.2505  0.2169  0.0410
 7978W        W24052  13.511  16.029  11.320  0.0804  0.0872  0.0813
 7979W        W24053   6.712  16.227  10.318 -0.1007  0.0549 -0.2199
 7980W        W24054  19.026  14.432   1.419  0.0106  0.0821  0.0177
 7981W        W24055   4.403  10.921   1.022  0.4928  0.0393  0.1118
 7982W        W24056  12.884   8.114   0.400 -0.1796 -0.1566  0.1555
 7983W        W24057   9.674   1.950  10.066  0.4972 -0.0128  0.3162
 7984W        W24058  15.211  13.649  13.748 -0.2684  0.1317  0.0975
 7985W        W24059  10.466  17.031  14.373 -0.1609 -0.0734 -0.1548
 7986W        W24060  19.040  13.613   5.600 -0.2359 -0.2134  0.3137
 7987W        W24061  10.915   7.273   1.278  0.2841  0.0263 -0.0660
 7988W        W24062  16.108  15.866  11.621 -0.0651  0.0005  0.2949
 7989W        W24063   4.855  13.016   4.135  0.0528 -0.0804 -0.0834
 7990W        W24064  16.849   3.717   3.794  0.0120 -0.2480  0.2227
 7991W        W24065  14.828  14.463   0.857 -0.0352  0.0856  0.4896
 7992W        W24066   1.178   3.286  10.173  0.1086  0.0529  0.2987
 7993W        W24067  19.109   0.809   4.210 -0.2140  0.1180  0.1865
 7994W        W24068   2.649   2.115  12.389 -0.0814 -0.0985 -0.2213
 7995W        W24069   9.702  12.236  14.008  0.3468  0.1138  0.0879
 7996W        W24070   1.042   1.637   3.455  0.1835  0.1448 -0.2184
 7997W        W24071  16.595   2.493  13.832 -0.3306  0.1253  0.0209
 7998W        W24072   6.790   2.582   3.955 -0.1417 -0.2844  0.1141
 7999W        W24073  19.084  17.229  11.256  0.0876 -0.1731  0.0503
 8000W        W24074  13.362   9.546  12.582  0.1971 -0.2040 -0.0578
 8001W        W24075   3.583  19.265   2.971  0.0729  0.1202 -0.0261
 8002W        W24076  10.181  15.333   1.669 -0.0097 -0.3399 -0.1818
 8003W        W24077  13.516  17.210   1.597 -0.0477 -0.1310 -0.3536
 8004W        W24078  15.863   1.708   3.990 -0.1476  0.1283  0.0094
 8005W        W24079   4.280  13.574   4.325 -0.0706 -0.1709  0.3200
 8006W        W24080  10.795   7.617  12.536 -0.0980 -0.0155  0.2176
 8007W        W24081   2.699  18.010   4.024  0.3471 -0.2492  0.3494
 8008W        W24082  11.846  11.834  12.375 -0.1154  0.0795  0.3933
 8009W        W24083  14.911   0.648   9.959 -0.2300  0.0468  0.0084
 8010W        W24084   4.123   2.526   1.523 -0.1370 -0.0741  0.4193
 8011W        W24085   2.080   4.968  12.137  0.0061 -0.1492  0.2217
 8012W        W24086   3.370  15.440   4.902 -0.1097  0.1735  0.1367
 8013W        W24087  13.869   5.054  11.796  0.1364 -0.0999 -0.0520
 8014W        W24088   9.207   0.363   1.507  0.3775 -0.3865 -0.0688
 8015W        W24089  18.271   3.700  11.724 -0.0007 -0.1201  0.2088
 8016W        W24090  14.044   3.734   4.017  0.3989 -0.0819  0.1153
 8017W        W24091  13.247  17.258  12.189 -0.1106  0.0474  0.3026
 8018W        W24092   1.892   0.166  13.912  0.1585 -0.2811 -0.4273
 8019W        W24093  13.270   8.493   3.651 -0.1361 -0.0845 -0.0886
 8020W        W24094  18.738  16.876  11.389  0.0781  0.0723  0.0558
 8021W        W24095  18.361   6.339   1.113 -0.1102  0.4484 -0.1572
 8022W        W24096   7.086   5.434   0.473  0.0338 -0.1036  0.0723
 8023W        W24097  16.479  15.969  14.356 -0.0394 -0.1731  0.2396
 8024W        W24098  10.844   9.875  13.699  0.0960 -0.2852 -0.1636
 8025W        W24099  10.162   2.890  10.110 -0.2998  0.2160  0.0025
 8026W        W24100  18.276  16.930   1.581 -0.2801  0.2556 -0.2317
 8027W        W24101   1.805   1.114   4.456 -0.0721 -0.0492 -0.0161
 8028W        W24102   1.028   4.357  10.809 -0.4846 -0.1988 -0.0576
 8029W        W24103  14.609  18.886   3.369 -0.1234  0.0769 -0.0922
 8030W        W24104   2.870   3.386  10.949 -0.0910  0.0848  0.0734
 8031W        W24105  13.954  13.519  14.974  0.2004  0.0174 -0.3842
 8032W        W24106   8.126   3.635   2.803 -0.0589  0.2847  0.1450
 8033W        W24107   1.241   5.927  13.740 -0.0253  0.0893 -0.1597
 8034W        W24108   4.932   8.995   6.024  0.1586  0.0422 -0.1477
 8035W        W24109   3.046   7.982   3.261  0.0710  0.1645  0.0919
 8036W        W24110  13.175   3.645   1.291  0.1711  0.1642  0.1466
 8037W        W24111  16.896  12.924   5.553 -0.1640 -0.2670  0.3777
 8038W        W24112  11.576  17.636   2.779  0.2347 -0.0705  0.3458
 8039W        W24113   9.115   0.854   2.520  0.0015 -0.1010 -0.0123
 8040W        W24114  16.265  17.632   5.000  0.0001 -0.3637 -0.1655
 8041W        W24115  17.984  16.477   0.701 -0.0339  0.0732 -0.0660
 8042W        W24116   0.881   7.689   1.551  0.1026 -0.1708  0.1562
 8043W        W24117  14.450   2.502   5.528 -0.0181  0.0822 -0.0625
 8044W        W24118  10.573   2.963  12.283 -0.1931  0.3250  0.0517
 8045W        W24119   3.004   2.397  10.970  0.0865  0.1344 -0.0096
 8046W        W24120   4.544   7.129   2.696 -0.2752  0.2705  0.5419
 8047W        W24121  11.132   7.574   5.962  0.1336 -0.1014 -0.1661
 8048W        W24122   9.293   5.332  10.887 -0.3076  0.0727  0.0730
 8049W        W24123  18.956   8.044   4.778 -0.3265  0.1956  0.0902
 8050W        W24124  14.695   7.412   2.464 -0.2516  0.3468 -0.0808
 8051W        W24125   4.888  18.003   2.690  0.3378 -0.2716  0.0808
 8052W        W24126  17.720   7.106  13.107  0.1791  0.0370  0.1492
 8053W        W24127   7.200  12.756  11.065 -0.7159  0.0904  0.0291
 8054W        W24128   1.346  11.327   3.637 -0.4105 -0.0804  0.0539
 8055W        W24129   3.487  10.019  11.703 -0.0405  0.3694 -0.0647
 8056W        W24130   7.732  15.671   5.372 -0.3356  0.0112 -0.2472
 8057W        W24131   5.815   6.838   2.172  0.1719  0.3381  0.0733
 8058W        W24132  17.622   5.709   3.283 -0.0543 -0.2213  0.2570
 8059W        W24133   2.954  11.959   0.393  0.0277  0.2501 -0.1175
 8060W        W24134   7.106   8.688   1.965 -0.3234  0.0798 -0.0806
 8061W        W24135  10.860   2.265  13.569 -0.2829 -0.1561  0.0621
 8062W        W24136  12.155   9.239  10.926 -0.1239  0.2176 -0.3962
 8063W        W24137   7.504  17.966  11.701  0.1094  0.2728  0.0637
 8064W        W24138   6.339   7.439   4.586  0.0084 -0.4570 -0.0651
 8065W        W24139   2.262   2.212   5.037 -0.0469 -0.0929 -0.2036
 8066W        W24140   6.878   1.457  13.837  0.1306  0.2369 -0.4650
 8067W        W24141  14.826   3.344   1.834  0.0409 -0.2134 -0.1313
 8068W        W24142  12.662   4.455   2.878  0.1431 -0.1338 -0.1564
 8069W        W24143  14.267   6.481  14.149 -0.0403 -0.0814 -0.0340
 8070W        W24144   5.590   9.112  11.826 -0.3780 -0.2627 -0.1153
 8071W        W24145  10.549  15.868  11.596  0.2766  0.1473  0.1943
 8072W        W24146  14.606  11.735   4.692 -0.0880 -0.1065  0.3163
 8073W        W24147   5.065   6.403   2.031  0.3025  0.1024 -0.2470
 8074W        W24148   5.993   4.154  14.725 -0.1107  0.0385 -0.2637
 8075W        W24149  17.797  19.107   3.270 -0.3230 -0.0639  0.2075
 8076W        W24150  14.544  18.223   1.396  0.1413 -0.0169 -0.1153
 8077W        W24151  19.131   5.185   2.886  0.1346  0.3194  0.3162
 8078W        W24152   7.934  13.611  12.003  0.3759  0.0631 -0.1598
 8079W        W24153   4.431   8.067   9.995  0.4127 -0.0212  0.0301
 8080W        W24154   8.589  10.714  12.195 -0.0822  0.1389  0.0165
 8081W        W24155   5.337   3.064  11.523 -0.0449 -0.0504  0.0749
 8082W        W24156  12.109  14.971   0.856 -0.0103  0.0443  0.1674
 8083W        W24157  11.459  14.400   4.342 -0.0308 -0.0128  0.2001
 8084W        W24158   3.553   0.179   0.565  0.0621  0.0103  0.1340
 8085W        W24159  12.595   4.025  14.369  0.2612  0.0652  0.1722
 8086W        W24160   1.112   4.687  14.335  0.2349  0.0535  0.1581
 8087W        W24161   9.603  16.797   0.478  0.0883  0.1620 -0.1236
 8088W        W24162   1.588   0.682   0.424 -0.1634 -0.1655  0.1905
 8089W        W24163   3.145  12.185  11.237  0.3009  0.2845  0.1811
 8090W        W24164   6.554   8.747  12.788  0.1902  0.0534 -0.0855
 8091W        W24165   3.597  18.246   2.704 -0.0412 -0.2004 -0.0239
 8092W        W24166   7.409  15.709   1.586  0.0316  0.0322 -0.0351
 8093W        W24167   9.482   1.013  11.374  0.1368  0.2434  0.0850
 8094W        W24168   3.857  15.863   2.596  0.2968  0.4408  0.2678
 8095W        W24169  12.176   0.711   2.812  0.0626  0.0604 -0.2455
 8096W        W24170  13.232  18.409   1.472  0.0587  0.0180  0.0994
 8097W        W24171   6.119  15.620   5.508  0.4080  0.1866 -0.1094
 8098W        W24172   7.436   8.014   1.707 -0.2349 -0.2602 -0.1351
 8099W        W24173  17.106   6.996  12.271  0.5615  0.0418 -0.1794
 8100W        W24174   6.233   9.052   5.789  0.1038  0.1516  0.2614
 8101W        W24175   4.136   1.483  11.416 -0.0999  0.1349  0.1291
 8102W        W24176  12.562   1.009   2.877  0.1430  0.2439 -0.0083
 8103W        W24177  16.971   4.571   0.028 -0.0964  0.3728 -0.1041
 8104W        W24178  14.211   2.760  14.376  0.1536 -0.0493 -0.0733
 8105W        W24179   2.337  14.464  10.060  0.2835  0.0801  0.4848
 8106W        W24180  17.088  12.011   0.696  0.0320  0.0483  0.1539
 8107W        W24181   9.849   7.272  12.050 -0.2895  0.0780 -0.1764
 8108W        W24182   3.288   7.492   0.452 -0.0198 -0.0735  0.1321
 8109W        W24183   4.693  15.855  14.622  0.1444  0.0344  0.0947
 8110W        W24184   4.263   1.671  12.239 -0.0669  0.2428  0.1018
 8111W        W24185  14.757  19.216  12.524  0.0777  0.0228 -0.0094
 8112W        W24186  18.108  17.993  14.741  0.0729 -0.1441 -0.1627
 8113W        W24187  16.961   9.939   3.128 -0.1636  0.2401  0.1413
 8114W        W24188   0.197  11.319   0.960  0.2677  0.4186  0.0795
 8115W        W24189   9.121   1.809   3.220 -0.0503 -0.0623 -0.0503
 8116W        W24190  12.319  17.160  12.524  0.3528  0.2800  0.1037
 8117W        W24191  16.895   3.376   4.884  0.0840 -0.0726 -0.2393
 8118W        W24192   6.564  12.950  13.474 -0.0577  0.0032 -0.0684
 8119W        W24193   2.091  12.286   2.392 -0.0120  0.0178 -0.3023
 8120W        W24194   6.062   5.139  13.363  0.2350  0.1644  0.4574
 8121W        W24195  14.491   3.745   1.668  0.0755  0.1318  0.3702
 8122W        W24196   3.317   9.066   1.115  0.0904 -0.0796 -0.1841
 8123W        W24197   7.874   6.840   1.158  0.0070  0.0810 -0.3841
 8124W        W24198  10.474   6.025   0.705 -0.3226 -0.1297  0.0137
 8125W        W24199  12.945  16.840  11.095  0.1213 -0.1650  0.3237
 8126W        W24200  12.989  18.661  12.660  0.0507  0.0566  0.0551
 8127W        W24201  17.567  19.175  14.050  0.1935  0.0707 -0.1770
 8128W        W24202   4.287  12.463   5.499  0.0590  0.1880 -0.1020
 8129W        W24203  18.810  18.491  11.466  0.2014 -0.0085 -0.2773
 8130W        W24204   4.633  17.693  13.260  0.2430 -0.0684  0.0667
 8131W        W24205   0.376  16.579   4.371  0.1117 -0.0680 -0.1630
 8132W        W24206  10.191  17.785  11.596  0.0880 -0.1097  0.0782
 8133W        W24207  12.549   5.212  14.902  0.3161  0.3134 -0.1966
 8134W        W24208   7.810   1.575   1.602  0.2641 -0.1636 -0.0909
 8135W        W24209   3.300   6.118  13.959  0.1359  0.0001  0.1188
 8136W        W24210  12.017   3.707  13.228 -0.0166 -0.1603  0.3080
 8137W        W24211   9.005  16.445   3.454 -0.1760 -0.0738  0.1372
 8138W        W24212  11.702   7.558  10.990  0.0238 -0.2756  0.1400
 8139W        W24213   0.792   8.447  11.127  0.2175 -0.0734  0.3550
 8140W        W24214   6.443   3.946   5.147 -0.2672  0.0513  0.0229
 8141W        W24215   3.421   4.683  14.420 -0.3988 -0.0748  0.1271
 8142W        W24216   3.321   8.260   2.346 -0.0574  0.0406 -0.1618
 8143W        W24217   0.338  16.911  14.022 -0.2027  0.1152 -0.1972
 8144W        W24218   4.912  14.330   2.868  0.0986  0.0428  0.0920
 8145W        W24219   4.141   2.514   5.499 -0.0562  0.0191 -0.0898
 8146W        W24220  17.652  12.380  10.952  0.1268  0.2083  0.1573
 8147W        W24221   1.196  15.517   0.962 -0.1512 -0.1622  0.5058
 8148W        W24222  15.364   4.501  10.989 -0.1576 -0.0149 -0.1435
 8149W        W24223   1.089  15.118   1.939 -0.1328  0.3200 -0.1104
 8150W        W24224   1.281  16.704  13.020  0.0581  0.1594  0.2122
 8151W        W24225   3.583   8.709   2.317 -0.4527  0.0673 -0.2184
 8152W        W24226   0.928   0.488  14.434 -0.0795  0.3056 -0.2623
 8153W        W24227   2.264  18.652  12.749 -0.0644  0.1588  0.1368
 8154W        W24228  11.996  19.040  10.912  0.2267 -0.1110  0.0387
 8155W        W24229  14.082   6.713   2.385  0.2279  0.2622 -0.1437
 8156W        W24230   6.671   7.024   4.305 -0.0555  0.0661 -0.0367
 8157W        W24231  11.069  18.788   5.370  0.0224 -0.2348 -0.2394
 8158W        W24232  18.412   3.440   2.598 -0.3719 -0.0474 -0.1237
 8159W        W24233   8.374  18.130  10.930 -0.0210 -0.0733 -0.1119
 8160W        W24234  15.852   3.515  13.936 -0.3230  0.1115  0.1760
 8161W        W24235  10.835   6.010   4.195  0.0103  0.1328  0.6413
 8162W        W24236   3.078   2.386   4.749  0.1617  0.0938 -0.1790
 8163W        W24237  17.727   4.350  10.540  0.3233  0.1545  0.3543
 8164W        W24238  14.328  17.611  13.978 -0.1631 -0.2939 -0.0268
 8165W        W24239  18.826  10.488   1.166 -0.3328 -0.2183  0.2864
 8166W        W24240  16.420   9.790  11.965  0.2289 -0.0143 -0.0220
 8167W        W24241   1.639   0.320   5.464 -0.0482 -0.0917  0.1354
 8168W        W24242   5.336   1.208   3.750 -0.3422 -0.1883 -0.1474
 8169W        W24243  15.282   7.782   4.626  0.1564 -0.2520  0.2392
 8170W        W24244   6.706   6.070   0.046 -0.0283 -0.1828  0.1025
 8171W        W24245  18.362  14.680  12.037 -0.1046  0.2122 -0.1962
 8172W        W24246  15.538   9.564   3.925 -0.1231 -0.0532  0.0685
 8173W        W24247   8.626  10.028  12.754 -0.1599 -0.2172  0.1981
 8174W        W24248  14.840   2.347  14.811 -0.3653 -0.2302  0.5038
 8175W        W24249   6.067  18.735   3.730 -0.3898  0.0678  0.1956
 8176W        W24250  15.014   0.085  13.929  0.3408  0.0083 -0.3782
 8177W        W24251   5.783   9.381   9.520 -0.0020  0.0291 -0.0545
 8178W        W24252   6.760  18.919   2.031 -0.2377 -0.1541  0.0542
 8179W        W24253   4.343   6.723  12.539 -0.0784 -0.0004  0.1571
 8180W        W24254   1.191   0.372   3.621  0.3273 -0.1109 -0.0589
 8181W        W24255   7.423   5.105   2.316 -0.1000  0.4053 -0.0780
 8182W        W24256  16.054   3.012   3.418 -0.3214 -0.1287 -0.2350
 8183W        W24257  18.718   3.264   4.286  0.0811  0.0261 -0.3608
 8184W        W24258   0.717  18.583  11.453 -0.1243 -0.0173  0.1262
 8185W        W24259   0.169   6.602  14.154  0.0507 -0.3428 -0.0835
 8186W        W24260  18.302   3.889   4.603  0.1546  0.4523  0.0207
 8187W        W24261  12.530  17.905   4.106  0.1514  0.5541 -0.1504
 8188W        W24262   3.019  11.097   2.912  0.1321  0.1170  0.0747
 8189W        W24263  14.317  18.402   1.826  0.0696 -0.1427 -0.1673
 8190W        W24264  18.633  11.118  11.601 -0.0989  0.1491  0.0837
 8191W        W24265   1.374  18.203  10.154  0.3513  0.1842 -0.2320
 8192W        W24266   4.226   6.089   2.876 -0.2987 -0.1788  0.3172
 8193W        W24267   1.424  14.610   5.404  0.1539  0.1506 -0.4906
 8194W        W24268  18.462  17.663  11.968 -0.1626  0.0462  0.1753
 8195W        W24269  11.507   6.764   2.368 -0.2666  0.2402 -0.0186
 8196W        W24270   9.713   4.738   5.775 -0.4174  0.2283  0.2159
 8197W        W24271   7.969   7.409   2.383  0.1530  0.0577  0.2660
 8198W        W24272   6.610  13.419   0.812 -0.0063 -0.0407  0.2672
 8199W        W24273   7.492  13.002   4.770  0.1554 -0.2707 -0.3587
 8200W        W24274  10.800   6.016  13.550 -0.4568 -0.0173 -0.0687
 8201W        W24275   0.778  13.753  13.764  0.2008 -0.0312  0.0381
 8202W        W24276   4.807   4.625   2.337 -0.3641 -0.1440 -0.0197
 8203W        W24277  18.488  19.200  11.565  0.0417 -0.0629 -0.0667
 8204W        W24278  14.445   8.639   3.751  0.1802 -0.0440 -0.2185
 8205W        W24279   0.649  15.138   9.459  0.3288 -0.0147  0.0655
 8206W        W24280   1.424   0.407   2.073 -0.1808 -0.3750  0.0186
 8207W        W24281  13.444   2.154   4.190  0.0889 -0.3801 -0.0350
 8208W        W24282   8.459   6.946   2.545  0.2073  0.2502  0.0971
 8209W        W24283   5.670   0.732  12.541 -0.0528 -0.1532 -0.2543
 8210W        W24284   7.521   4.558   4.568 -0.1415 -0.1384 -0.3736
 8211W        W24285   5.286   7.067   1.606 -0.2092  0.1050  0.0811
 8212W        W24286  10.142  15.584  14.936 -0.1685  0.2641 -0.3521
 8213W        W24287   2.544  18.914  12.296 -0.1912  0.0083 -0.3015
 8214W        W24288   7.062   8.337   5.243 -0.4118 -0.0641 -0.1454
 8215W        W24289  15.443   5.905   2.342  0.2389 -0.0034 -0.0191
 8216W        W24290   6.393  18.031  12.528 -0.1680  0.3040 -0.1099
 8217W        W24291   8.375   1.960   5.402  0.0505  0.2192  0.2343
 8218W        W24292   7.677   1.942  14.173 -0.1035  0.1282  0.1368
 8219W        W24293  13.067  11.160  12.596  0.4286 -0.2683  0.0659
 8220W        W24294  10.611  10.654  13.817 -0.2818  0.2620 -0.1819
 8221W        W24295  14.390   8.464   0.597 -0.4669  0.2607  0.0821
 8222W        W24296  10.465   4.631  12.546 -0.1634  0.4027  0.0512
 8223W        W24297   8.267   6.664   5.576 -0.0336  0.1517 -0.0953
 8224W        W24298  10.311   3.083   1.718 -0.3560 -0.2892  0.2361
 8225W        W24299  12.190   1.026  10.753 -0.0859  0.0392  0.0229
 8226W        W24300   0.696   5.283   5.157  0.0833 -0.0180 -0.2128
 8227W        W24301   2.747  14.364   0.800  0.2051 -0.0529 -0.1621
 8228W        W24302   8.172  10.347   3.979  0.3240 -0.0295 -0.2767
 8229W        W24303  12.514   6.550   4.966 -0.2293 -0.3353  0.0847
 8230W        W24304   4.145  18.767   3.784  0.1080  0.1012 -0.2117
 8231W        W24305  15.219   7.516   2.654  0.2479  0.0331 -0.1285
 8232W        W24306   0.956  18.483   3.529 -0.6060  0.2128  0.0389
 8233W        W24307   1.808   7.670   4.281 -0.1212 -0.0535  0.2218
 8234W        W24308   9.781   7.178  11.487  0.2400 -0.0466  0.2680
 8235W        W24309   2.040   9.036  12.769 -0.0033 -0.1150  0.1455
 8236W        W24310  10.304  14.939   1.286 -0.2535  0.1706  0.2830
 8237W        W24311   1.256   0.220  10.821  0.2924  0.0934 -0.2216
 8238W        W24312  18.168   0.756  11.201 -0.1487 -0.1979  0.2106
 8239W        W24313  18.876   2.549   4.816 -0.1272 -0.1621  0.0877
 8240W        W24314   5.971   6.256   3.800  0.0954  0.1650  0.0710
 8241W        W24315   4.932  10.686   5.733  0.0289  0.1470  0.3066
 8242W        W24316   8.015  14.166  13.555 -0.0889  0.1673 -0.0090
 8243W        W24317   1.647   5.352   4.755 -0.0578  0.3121  0.4591
 8244W        W24318   6.131   3.917   3.224 -0.0124 -0.1278 -0.1642
 8245W        W24319  16.341   3.551  14.009  0.1081 -0.1506  0.0547
 8246W        W24320  10.893   5.470   2.472 -0.1372 -0.0967  0.3657
 8247W        W24321  17.250   8.307  10.076 -0.2064  0.2827 -0.0372
 8248W        W24322   4.275  15.095  12.440 -0.0809  0.1941 -0.1230
 8249W        W24323   2.541   0.415  14.085 -0.0708 -0.1106 -0.0119
 8250W        W24324   4.453  18.443   4.542  0.0266  0.2576 -0.1114
 8251W        W24325  15.320   4.984  12.628 -0.0075 -0.1513  0.0316
 8252W        W24326   0.882   9.281  11.943 -0.6281  0.1064  0.1973
 8253W        W24327   9.999  12.659  13.668  0.0617  0.2195 -0.1510
 8254W        W24328  16.536  18.784   2.980 -0.1352  0.1699  0.0336
 8255W        W24329   4.013  16.301   2.846 -0.1486  0.0545 -0.4203
 8256W        W24330  13.762   4.144   2.348 -0.2118 -0.1094 -0.0925
 8257W        W24331   8.552   1.776   3.722 -0.2967  0.1937 -0.2934
 8258W        W24332  14.211  12.495   4.998  0.0188 -0.0522  0.1712
 8259W        W24333   1.331  11.719  10.335 -0.5898  0.1084 -0.0605
 8260W        W24334  11.736  10.911   1.084 -0.0361 -0.1683  0.3297
 8261W        W24335   1.287   6.052   4.235  0.0640  0.1116 -0.0722
 8262W        W24336   9.624   5.458  14.100 -0.1658 -0.0309  0.1955
 8263W        W24337   4.380   6.980   0.064  0.2058 -0.0704 -0.2270
 8264W        W24338  17.281   8.321  11.616  0.1558 -0.1435 -0.1797
 8265W        W24339   6.657   2.738  11.684  0.0154 -0.1953  0.1049
 8266W        W24340   5.009   4.642   1.869  0.1809 -0.2288 -0.0923
 8267W        W24341  17.239  10.638   3.777 -0.0691 -0.1845  0.2792
 8268W        W24342  14.980   0.319  11.447  0.2801  0.1510  0.0464
 8269W        W24343  10.025  16.703   0.213  0.2238 -0.1145 -0.0186
 8270W        W24344   6.843  14.151   5.976 -0.1086 -0.6474 -0.3949
 8271W        W24345   5.089   6.132   1.188  0.0133 -0.1770 -0.2736
 8272W        W24346   0.916   1.311   0.362  0.0385 -0.2439 -0.4511
 8273W        W24347   6.730  18.021   0.428 -0.3591  0.0429  0.0332
 8274W        W24348  13.101  11.767  12.346  0.1809 -0.1120 -0.2277
 8275W        W24349   1.637   2.494   4.588  0.3495 -0.0221  0.0081
 8276W        W24350  17.678   6.780   5.198 -0.0565  0.0447 -0.0207
 8277W        W24351  16.260  15.319   3.535 -0.1554  0.1235  0.1000
 8278W        W24352   2.881  14.738  14.102  0.4390  0.2628  0.1219
 8279W        W24353  13.664   2.958  12.016 -0.0766  0.0712  0.0783
 8280W        W24354  18.024  15.336  14.478  0.1055  0.1957  0.0878
 8281W        W24355  18.122  11.402   4.247  0.0874  0.0220  0.0820
 8282W        W24356  18.618   3.375   2.183 -0.1646 -0.1675 -0.0659
 8283W        W24357   4.987  19.288  13.096 -0.0025 -0.0912  0.0484
 8284W        W24358   8.281   8.907  11.316 -0.2565 -0.0935 -0.4372
 8285W        W24359  13.753   1.807  13.515 -0.0164  0.1576  0.2797
 8286W        W24360   3.575   6.288   3.779  0.0845  0.0005 -0.1552
 8287W        W24361  16.856  19.024  11.201 -0.1039 -0.0655 -0.1417
 8288W        W24362  12.517   1.939  14.378  0.3611  0.0428  0.0324
 8289W        W24363   9.230   8.385  13.153 -0.2632 -0.2922  0.0623
 8290W        W24364  14.396   0.887   0.419  0.0368  0.2738  0.2170
 8291W        W24365   9.028   7.685  11.580 -0.0799  0.1427  0.1153
 8292W        W24366  18.153   4.133  12.125 -0.0959 -0.1450  0.2422
 8293W        W24367  14.740  19.297  14.711 -0.2135  0.0903  0.1064
 8294W        W24368   6.613  15.744  11.615  0.0048  0.1567 -0.3374
 8295W        W24369   8.194   3.589   0.547  0.3006  0.0613  0.2369
 8296W        W24370   6.956   4.605   5.744  0.0071 -0.1539 -0.1520
 8297W        W24371   0.125  11.697  12.084  0.0454  0.2306  0.2689
 8298W        W24372  18.964   1.581  10.711 -0.2666 -0.2818  0.1809
 8299W        W24373   3.307   9.500   5.180 -0.0446 -0.1830  0.3846
 8300W        W24374   4.549   4.198   0.183  0.0544 -0.0179  0.3265
 8301W        W24375   2.395  19.050  10.630  0.3184  0.3730 -0.0356
 8302W        W24376  16.197   1.643   1.623  0.0530  0.3955  0.3253
 8303W        W24377   1.355   9.416  10.570  0.3335  0.0601  0.0298
 8304W        W24378   0.704  17.909   1.657 -0.0686  0.0523  0.0092
 8305W        W24379   3.814   5.235  13.390  0.1129  0.2024  0.0821
 8306W        W24380  15.371  15.120  11.326 -0.1773  0.0026  0.0370
 8307W        W24381  13.960   2.236   2.222  0.2726  0.0795 -0.2940
 8308W        W24382  14.281   6.282   1.224  0.1440 -0.1338 -0.1875
 8309W        W24383  14.716   2.819   3.158 -0.1123  0.0534  0.0101
 8310W        W24384  13.816  11.130   2.248  0.1017  0.0269 -0.1563
 8311W        W24385   7.538   5.312  11.995  0.2193  0.1113 -0.0807
 8312W        W24386   7.328   3.221  11.981  0.0626  0.1774  0.3347
 8313W        W24387   3.686  17.676   1.425  0.2242 -0.3406 -0.1384
 8314W        W24388  10.524  12.718  12.067  0.0816  0.1394 -0.2725
 8315W        W24389  10.073  18.923  10.280  0.0601  0.3724  0.1482
 8316W        W24390   2.496   4.605  14.561 -0.2806  0.1328 -0.1082
 8317W        W24391   8.105  11.621  11.458 -0.5487  0.0321  0.1459
 8318W        W24392  13.984   4.628  13.885 -0.2099 -0.2164  0.0604
 8319W        W24393  10.263  15.913  12.134  0.0533 -0.0659 -0.0064
 8320W        W24394  16.706  10.143   5.482 -0.0018 -0.0934 -0.1287
 8321W        W24395   0.515  19.240   1.828  0.3127  0.1907 -0.2512
 8322W        W24396  14.334  14.663  11.208 -0.0210  0.2654  0.3900
 8323W        W24397   2.481   3.619   3.312  0.0611 -0.2915  0.0170
 8324W        W24398  12.734  14.687   2.243 -0.1813  0.1936 -0.2601
 8325W        W24399   7.742  18.467  11.069 -0.2455 -0.0572  0.1352
 8326W        W24400   2.654  18.884   4.195  0.0468  0.0027 -0.0055
 8327W        W24401   0.982   5.840   4.581  0.0519  0.1211 -0.1506
 8328W        W24402  13.553  18.158  13.779  0.0725 -0.1564 -0.0580
 8329W        W24403   2.112   1.011   2.011 -0.2453  0.1163 -0.0885
 8330W        W24404   0.322   2.980   5.114 -0.2272 -0.1712 -0.2158
 8331W        W24405   6.342  11.115  10.331 -0.3866 -0.1198 -0.0576
 8332W        W24406  14.823   4.270  10.802  0.2906  0.0557 -0.0808
 8333W        W24407  13.288   3.582  15.043  0.1069  0.2044  0.1750
 8334W        W24408   2.823  16.134   3.853  0.1825  0.3354  0.2685
 8335W        W24409  18.592  12.265  11.289  0.1553  0.3165 -0.1914
 8336W        W24410   8.986   9.468  10.769 -0.0757 -0.0948  0.2523
 8337W        W24411   6.802  17.958   0.905 -0.0190  0.2876 -0.4203
 8338W        W24412  13.567   1.148   1.117 -0.0883 -0.2701  0.1361
 8339W        W24413   0.122   3.433   2.534 -0.1314  0.2178 -0.1146
 8340W        W24414   4.318   1.462   1.424  0.1233 -0.2272  0.0705
 8341W        W24415   7.389   5.981   3.560  0.0606  0.1516  0.3018
 8342W        W24416  12.862   7.440  13.820  0.2739  0.0169 -0.1351
 8343W        W24417  15.758   7.570   2.037 -0.2752 -0.1777  0.1010
 8344W        W24418   0.004  10.706   1.316 -0.0798  0.0594  0.0112
 8345W        W24419  12.604   2.378  15.012  0.0633 -0.1065  0.2490
 8346W        W24420   2.388   1.094   4.598 -0.0536  0.2701  0.1261
 8347W        W24421   6.396  17.391  13.245 -0.1825  0.0244 -0.1130
 8348W        W24422   4.629   4.885  10.107  0.0278 -0.0578 -0.2106
 8349W        W24423  10.237  15.205   2.171  0.2683 -0.3435  0.2848
 8350W        W24424   5.657   3.794  11.531 -0.0607  0.3356 -0.2186
 8351W        W24425   2.444   5.306  11.027 -0.0045 -0.5113  0.1051
 8352W        W24426  17.584  12.745  10.651 -0.4132 -0.0840  0.2675
 8353W        W24427   9.860   5.573  11.746 -0.0486  0.0368  0.1440
 8354W        W24428  16.692  17.443   1.602  0.0844  0.1085  0.1701
 8355W        W24429   5.481   6.187   1.473  0.1077 -0.1461 -0.0506
 8356W        W24430  13.395  17.016  13.600 -0.2107 -0.0651  0.2691
 8357W        W24431   1.160  13.769  10.131 -0.0220 -0.1033 -0.1454
 8358W        W24432   8.401   0.569   1.910  0.1331 -0.0908  0.0060
 8359W        W24433   7.134   2.392  14.742 -0.2233  0.2088 -0.0498
 8360W        W24434   8.779  11.761  14.953 -0.4121 -0.2078  0.0210
 8361W        W24435  11.838  13.658   4.634 -0.0881 -0.0163 -0.3334
 8362W        W24436   0.798  13.373  12.881 -0.2433 -0.3878  0.3649
 8363W        W24437  14.271  18.063  11.575  0.0633  0.0410  0.2195
 8364W        W24438  14.785  13.769   2.886  0.2857 -0.0398  0.0174
 8365W        W24439  17.320  10.401   1.415 -0.3797  0.0899  0.0571
 8366W        W24440   6.573   9.458   4.873 -0.2146 -0.1477 -0.1367
 8367W        W24441   9.950  14.004  10.264 -0.0330 -0.0705 -0.0266
 8368W        W24442   0.850  18.077  11.864 -0.0233 -0.1745 -0.2464
 8369W        W24443  16.217  13.797  13.982  0.1266  0.2798 -0.1673
 8370W        W24444   3.203  10.982  13.318 -0.0699 -0.4419 -0.4004
 8371W        W24445   6.876  12.792   2.137  0.3509  0.1266 -0.0454
 8372W        W24446   8.209  17.442   2.737 -0.2328  0.0564  0.1569
 8373W        W24447   5.889   7.227   2.463 -0.1169 -0.0759 -0.0253
 8374W        W24448  15.348  12.814   2.260  0.0532  0.1737  0.0294
 8375W        W24449   2.714  13.495   3.496  0.2637  0.0832 -0.0609
 8376W        W24450  13.327   4.199  12.220 -0.0328  0.1607  0.0273
 8377W        W24451   9.549   1.732   3.920 -0.0625 -0.0737  0.0399
 8378W        W24452   3.314   4.468  15.023 -0.0382  0.0028 -0.3245
 8379W        W24453   3.015  11.897  14.095 -0.1247  0.1606  0.1411
 8380W        W24454   6.076  13.647  11.083 -0.1702 -0.1743 -0.0433
 8381W        W24455  13.499   6.527   0.553 -0.1047 -0.3282 -0.0554
 8382W        W24456  13.116  14.525   3.527  0.1743  0.0323 -0.0365
 8383W        W24457   4.878   4.446  14.904  0.0198  0.0202  0.0459
 8384W        W24458  18.607   6.698   4.745 -0.2774  0.1132  0.1697
 8385W        W24459   7.421   0.404   0.817 -0.2015 -0.0201 -0.0247
 8386W        W24460  14.721  16.251   0.690  0.2339 -0.1540  0.1668
 8387W        W24461   2.590   4.824   5.204  0.0221 -0.1532  0.0367
 8388W        W24462  11.618   8.205   1.294 -0.0122 -0.3856 -0.2705
 8389W        W24463  11.819   6.774  12.641 -0.2803  0.0366  0.1857
 8390W        W24464  17.172   4.372  10.614 -0.2536  0.1387 -0.1530
 8391W        W24465  15.775   9.931  12.565 -0.0710 -0.0763  0.0767
 8392W        W24466   6.197   2.413   4.643  0.0732  0.2104 -0.1857
 8393W        W24467  18.952  10.115   2.927  0.1240  0.0787  0.0340
 8394W        W24468   0.133   4.931  12.023  0.0114 -0.0959  0.0230
 8395W        W24469  18.070  12.588  14.866  0.0142 -0.1086  0.0070
 8396W        W24470   8.717   6.735   4.469 -0.1664 -0.2780 -0.2291
 8397W        W24471   2.989  10.937   3.867  0.1414 -0.4082 -0.0544
 8398W        W24472  12.962  17.458  11.721  0.0332  0.2822  0.1956
 8399W        W24473  14.854   8.273   3.692  0.0966 -0.1421  0.3122
 8400W        W24474   4.167  17.777   1.299  0.0518  0.0759 -0.1070
 8401W        W24475   8.912   9.892  13.613  0.0360  0.1006  0.0944
 8402W        W24476   5.800   8.441  12.118  0.2431  0.1495 -0.0859
 8403W        W24477   2.793  13.133   5.424  0.4413  0.2732  0.0835
 8404W        W24478   1.713   6.102   3.747 -0.1050  0.1647 -0.2452
 8405W        W24479   7.350   5.423   0.926 -0.0187  0.1724 -0.1926
 8406W        W24480  18.584  18.177   2.107 -0.0041  0.1158 -0.0196
 8407W        W24481   2.180  18.123  13.470 -0.2605 -0.1021 -0.1235
 8408W        W24482  17.428   2.690   1.271  0.1556  0.1943  0.1057
 8409W        W24483   1.240  13.893  12.343  0.2038  0.1035 -0.0268
 8410W        W24484  11.949  10.721   5.147  0.0975  0.4733 -0.0408
 8411W        W24485   4.497  12.963   3.552 -0.3418 -0.1797  0.0392
 8412W        W24486  17.087   7.958   1.120  0.0158  0.0107 -0.0087
 8413W        W24487  10.353   0.690   3.384  0.1439  0.1392 -0.3533
 8414W        W24488   0.710   2.286   2.776  0.1299 -0.1753 -0.0579
 8415W        W24489   8.744  18.120  13.663 -0.0943  0.0759 -0.3772
 8416W        W24490   2.323   4.560  11.939 -0.0061  0.2118  0.1892
 8417W        W24491  11.698   8.489  12.586  0.0841 -0.1156  0.1271
 8418W        W24492   0.606   5.488   6.137  0.0782  0.0331 -0.0789
 8419W        W24493  13.865  18.595   3.235 -0.1176  0.3261  0.0407
 8420W        W24494  14.528   3.251  13.012  0.5385  0.1547  0.2242
 8421W        W24495  11.823  17.344  14.502  0.1057  0.1208 -0.0097
 8422W        W24496   3.465   9.397  10.941 -0.0066  0.2387  0.0217
 8423W        W24497  17.347   2.002  13.673 -0.1650  0.0626  0.0069
 8424W        W24498  14.597   0.842  12.819 -0.0868 -0.0972  0.2866
 8425W        W24499  18.456   7.620   0.273 -0.2194  0.1105  0.2757
 8426W        W24500   1.582   1.555  14.042 -0.0836 -0.0592 -0.1027
 8427W        W24501   8.737   8.821   0.293 -0.1685 -0.0847  0.2912
 8428W        W24502   5.301  16.908  15.020 -0.0090  0.0920 -0.0061
 8429W        W24503  15.611   9.985   2.289  0.0577  0.0368 -0.0202
 8430W        W24504   1.980   5.800   0.492  0.0186  0.0870 -0.0552
 8431W        W24505   1.428   3.272  14.153  0.3620 -0.0963  0.2633
 8432W        W24506   6.514   6.354   1.352  0.1456 -0.0019  0.0745
 8433W        W24507   7.620  10.412  14.078  0.2089 -0.0225  0.0064
 8434W        W24508  14.367  10.778   3.070  0.3761 -0.1408  0.1735
 8435W        W24509  15.369  15.460   0.103  0.3018 -0.0686  0.0050
 8436W        W24510  14.174  14.172   1.903  0.0075  0.1096 -0.0645
 8437W        W24511  10.325   3.277   0.121 -0.0549 -0.0710  0.1885
 8438W        W24512   6.185   6.109  13.671  0.1678  0.1423 -0.0750
 8439W        W24513   0.724   4.096  12.208 -0.2463  0.0304  0.3098
 8440W        W24514   5.861  10.767   3.865 -0.0809  0.3222  0.1992
 8441W        W24515  10.543  11.645  14.351  0.0157 -0.1787  0.0317
 8442W        W24516   8.216   5.837   6.640 -0.1893  0.1218 -0.2788
 8443W        W24517  10.312   7.163   0.423  0.1616 -0.1291 -0.2260
 8444W        W24518  11.212  16.242   2.223  0.0369 -0.1282  0.0094
 8445W        W24519   7.233  17.146  11.707 -0.0601  0.2803 -0.1812
 8446W        W24520   7.476  10.077  13.700  0.1856 -0.1144 -0.0026
 8447W        W24521   8.266  15.069   0.676  0.3128 -0.0454  0.1301
 8448W        W24522  17.102   6.817  11.699  0.1811  0.1342 -0.1770
 8449W        W24523  16.705   9.763  13.450  0.0511 -0.1071  0.0031
 8450W        W24524   1.201   4.590   4.624  0.2743 -0.1256  0.0876
 8451W        W24525  11.621  13.293  12.891 -0.0810  0.0116 -0.0033
 8452W        W24526  12.162   3.787   2.908  0.2008 -0.1606  0.3277
 8453W        W24527   9.364   8.015   3.740  0.0174  0.2278 -0.3721
 8454W        W24528   4.092  11.828   4.282  0.0983 -0.2721 -0.2512
 8455W        W24529   0.033   5.762   4.827 -0.1549  0.0585 -0.1391
 8456W        W24530  16.732   1.451  12.490 -0.1126  0.1247  0.1400
 8457W        W24531  17.794   2.292  11.939 -0.3332 -0.2743  0.0905
 8458W        W24532   1.017  15.878   0.267  0.1068  0.0714 -0.1410
 8459W        W24533  14.850  15.043  14.235  0.2053 -0.0544  0.1098
 8460W        W24534  12.607   7.342  12.468 -0.0112  0.0156 -0.0647
 8461W        W24535  11.767   7.634   4.854 -0.0166 -0.0210 -0.0536
 8462W        W24536  15.810  13.897   3.435  0.2545 -0.4468  0.3288
 8463W        W24537  10.104  13.678  12.054 -0.0034  0.3146 -0.2565
 8464W        W24538  12.864  11.409  14.529 -0.2621 -0.2121 -0.4015
 8465W        W24539  12.081   8.653  13.748  0.2136  0.1021  0.3282
 8466W        W24540   5.997  11.791   1.384  0.0686  0.0231 -0.0493
 8467W        W24541   2.751  12.133  11.871  0.0828  0.4455 -0.0006
 8468W        W24542   5.294  15.395   1.568  0.0461  0.3050  0.1328
 8469W        W24543   3.532  12.538   9.468  0.0456  0.1255 -0.0420
 8470W        W24544  13.606  10.193   3.357 -0.2228  0.4037 -0.0013
 8471W        W24545  15.098  15.717  11.076 -0.0798  0.1116 -0.0007
 8472W        W24546  15.725   1.501   3.510 -0.3200  0.2576 -0.1046
 8473W        W24547  13.339  10.173   3.818 -0.1940 -0.0969 -0.1630
 8474W        W24548  10.851  18.526  12.160 -0.1335 -0.2916  0.0839
 8475W        W24549  11.540   4.555  14.473  0.0184  0.1474  0.1390
 8476W        W24550   7.621   8.088  11.306  0.0932 -0.2292  0.2431
 8477W        W24551  10.291  12.731   9.938  0.0300 -0.0553 -0.2359
 8478W        W24552  14.738  10.983   2.779  0.0995 -0.1180  0.1781
 8479W        W24553  16.323  13.954   0.944 -0.0479  0.1033 -0.1763
 8480W        W24554  16.460   1.853   0.509  0.0929  0.1165 -0.3275
 8481W        W24555   5.210  13.103  13.808 -0.1072  0.1770 -0.1014
 8482W        W24556  11.081  18.077   3.919  0.2416 -0.0519  0.2227
 8483W        W24557   4.572   4.784  11.542 -0.1337  0.0842 -0.2740
 8484W        W24558   3.286  13.938  11.663  0.2514  0.0753 -0.0571
 8485W        W24559   3.609   4.349  14.058  0.1022 -0.2431  0.0273
 8486W        W24560  15.520   3.860   1.978  0.0192  0.2450  0.0532
 8487W        W24561  13.575   2.460  11.944 -0.2680 -0.5506  0.1238
 8488W        W24562  18.872  16.391   4.843  0.1368 -0.0478  0.3252
 8489W        W24563   7.613  11.781   3.274  0.2281  0.1146 -0.2121
 8490W        W24564   8.901  16.145   1.080 -0.0303 -0.1638 -0.1929
 8491W        W24565   4.649   2.559   1.485 -0.1222  0.2164  0.0927
 8492W        W24566   9.805  11.929   3.404  0.1022 -0.0687  0.0715
 8493W        W24567  14.749  12.027  14.096  0.1352  0.2401  0.0860
 8494W        W24568   0.700   5.232  11.459  0.1242  0.2997 -0.3104
 8495W        W24569   0.635   8.105   3.832 -0.0901  0.3315 -0.1794
 8496W        W24570   4.544  13.916   0.399  0.3380 -0.0423  0.0265
 8497W        W24571   4.330   4.390  14.835 -0.0650 -0.0301 -0.1428
 8498W        W24572  11.196   0.043  12.589  0.0984  0.1364  0.0075
 8499W        W24573   0.561  12.363  13.704  0.1703  0.1435  0.0440
 8500W        W24574   9.496   1.624   2.211  0.0781  0.1039 -0.1057
 8501W        W24575   2.387   1.023   9.955  0.3025 -0.1561 -0.0377
 8502W        W24576   6.750  11.198   0.161  0.1585 -0.1742 -0.1733
 8503W        W24577   8.608   9.284   0.519  0.3895  0.1360 -0.1180
 8504W        W24578   3.757   7.741   5.341  0.0282  0.0207 -0.0886
 8505W        W24579   9.217   9.168  11.269 -0.1865 -0.0403 -0.2563
 8506W        W24580  18.997  16.709  10.452  0.1958 -0.0468 -0.2333
 8507W        W24581  16.672  11.158   1.440  0.2228  0.2214  0.0211
 8508W        W24582  18.733  13.819  14.751 -0.1001 -0.3304 -0.0910
 8509W        W24583  17.096  18.946  12.663 -0.1516 -0.0373 -0.5259
 8510W        W24584   4.375  12.386  10.716  0.2289 -0.3437  0.2888
 8511W        W24585  10.768   6.005  10.093 -0.0378 -0.1492  0.2483
 8512W        W24586   5.170  15.084  14.708  0.1425  0.1362  0.1837
 8513W        W24587  13.977  10.619   2.577  0.4485  0.1307 -0.0492
 8514W        W24588  15.081   5.449   0.294 -0.1614 -0.1775 -0.2122
 8515W        W24589  13.112   0.179   2.585  0.2678  0.0614 -0.0667
 8516W        W24590   1.649   0.510   3.827 -0.2786  0.1934  0.0870
 8517W        W24591   0.965   2.143  12.179  0.0209  0.1379  0.0734
 8518W        W24592  18.059   7.781   1.903  0.4838  0.0004 -0.0792
 8519W        W24593   4.023  14.105   0.359 -0.1035  0.2307 -0.2033
 8520W        W24594  11.138  16.830   4.955 -0.0151 -0.1681 -0.0818
 8521W        W24595  16.974   7.189   2.573 -0.1678  0.1335  0.3841
 8522W        W24596   7.712  15.999  14.320  0.0077  0.4212 -0.2856
 8523W        W24597   4.605  11.802   0.646  0.1382  0.5296  0.0004
 8524W        W24598  19.187  16.784   5.167  0.1929  0.0769  0.5951
 8525W        W24599  15.462  14.283   2.525  0.2198 -0.1026 -0.1456
 8526W        W24600  17.599  13.119  11.547  0.0512 -0.0289 -0.1889
 8527W        W24601  14.919  11.463  13.940  0.1656 -0.0973 -0.0096
 8528W        W24602   4.473  17.045  13.483  0.1884  0.2038 -0.3786
 8529W        W24603  14.782  14.643   1.296 -0.1697 -0.0645  0.0783
 8530W        W24604   5.056  15.770  12.964  0.5171  0.1866  0.0849
 8531W        W24605   6.592  16.010   3.073  0.1807 -0.1585  0.3032
 8532W        W24606   9.755   5.247   3.844 -0.3256  0.0508  0.4546
 8533W        W24607   4.328   5.692   3.548 -0.4808 -0.1327  0.0106
 8534W        W24608  11.818  13.314  14.430  0.0386 -0.1172  0.3015
 8535W        W24609  17.772  15.592   3.263 -0.0278 -0.1094 -0.0342
 8536W        W24610   8.090   2.217  14.845  0.0056  0.0361 -0.0108
 8537W        W24611  13.528   8.153   3.267  0.0534  0.1392 -0.0403
 8538W        W24612  10.077   8.311  11.583  0.0686 -0.3785 -0.0075
 8539W        W24613   4.031   4.920   4.953 -0.0710 -0.1867  0.1482
 8540W        W24614  17.365   3.562  12.086  0.2682 -0.1370  0.3621
 8541W        W24615  14.300  13.853  14.791 -0.0396  0.0418 -0.2485
 8542W        W24616   1.716   4.361   0.576  0.3519 -0.0554 -0.1537
 8543W        W24617   0.857  14.795   4.337  0.0119  0.3465 -0.0848
 8544W        W24618  11.674   5.025   0.294  0.1351  0.3774  0.2254
 8545W        W24619   9.783   7.673   3.746 -0.2546 -0.0750  0.0599
 8546W        W24620  11.363   7.424   1.370  0.1184  0.0877  0.1220
 8547W        W24621  18.261  16.124  10.107 -0.0109 -0.2740 -0.0837
 8548W        W24622  14.958  17.858  11.797  0.2306 -0.0953  0.1332
 8549W        W24623  14.214   4.021   1.265  0.1079 -0.1147  0.3697
 8550W        W24624  10.663  11.332  13.994 -0.1350  0.3096 -0.0342
 8551W        W24625  13.581  14.694   3.348 -0.0241  0.0074  0.0325
 8552W        W24626   7.345  11.400   1.752  0.1317 -0.2236  0.0907
 8553W        W24627   6.491  13.884  14.885  0.2013  0.0709 -0.1967
 8554W        W24628   6.892  19.258  11.595 -0.0789 -0.2398 -0.2198
 8555W        W24629  11.803  11.287   0.504  0.0441 -0.1850  0.2002
 8556W        W24630  12.694  16.667   5.340 -0.1620 -0.0736 -0.2211
 8557W        W24631   1.126   8.217  12.630  0.1177 -0.2120  0.1315
 8558W        W24632   3.079  12.371  12.281 -0.1543  0.0413 -0.0956
 8559W        W24633  18.850   2.425  14.506 -0.4470 -0.1321 -0.0719
 8560W        W24634   7.861   8.885   2.509 -0.0014  0.1943  0.0484
 8561W        W24635   2.206   0.860  14.512  0.1504 -0.0853 -0.0180
 8562W        W24636   5.695   5.944   4.109  0.0033 -0.1056 -0.2772
 8563W        W24637   6.464  16.649  13.552 -0.2713 -0.1051 -0.2756
 8564W        W24638  17.221   5.938   0.056  0.2012 -0.2969  0.4152
 8565W        W24639   5.639  14.644   3.619 -0.1398  0.3566 -0.0792
 8566W        W24640  17.050  18.677  14.352  0.0589  0.5213 -0.0373
 8567W        W24641  10.717   3.482  14.325  0.1562 -0.1115 -0.1422
 8568W        W24642   0.072   1.642   3.050  0.2669 -0.0465  0.0924
 8569W        W24643  15.188   0.991  11.735  0.0396  0.1720  0.0951
 8570W        W24644  18.092  14.437  14.755 -0.0007  0.0987 -0.0670
 8571W        W24645   6.713   5.421   1.838  0.0561 -0.0723  0.1108
 8572W        W24646   3.717  16.744  10.712 -0.1425  0.0928  0.2479
 8573W        W24647   6.084   0.974  11.119 -0.0473  0.0887  0.0619
 8574W        W24648  10.835  11.681  12.764  0.5621 -0.0105 -0.0837
 8575W        W24649  15.215   8.468   4.526 -0.1835 -0.1860  0.2346
 8576W        W24650   2.504   7.600  14.374 -0.0477  0.2383 -0.2063
 8577W        W24651  15.362  13.772  14.874 -0.1924  0.2827 -0.2313
 8578W        W24652   4.721  13.567  12.342 -0.0338  0.1793  0.0081
 8579W        W24653   6.767  14.701  13.581 -0.2949  0.1854  0.2388
 8580W        W24654   4.877   0.015   3.479  0.0940 -0.1009  0.1034
 8581W        W24655   2.767   5.891  14.919  0.1549  0.0270 -0.0208
 8582W        W24656   3.588   5.380   2.889 -0.2488  0.2403  0.1673
 8583W        W24657   5.442   3.137   5.302  0.2936 -0.0837 -0.2201
 8584W        W24658  12.907   6.218  14.495  0.0684 -0.0017 -0.0001
 8585W        W24659   9.341  16.320   5.171 -0.1604 -0.1089  0.2963
 8586W        W24660   9.408  12.206   1.874 -0.1406 -0.2017 -0.2382
 8587W        W24661  15.794   2.469  11.850 -0.0381  0.2030 -0.2087
 8588W        W24662  17.184  13.311   4.792  0.1399 -0.2982  0.3388
 8589W        W24663   8.363  13.880   0.110  0.0663  0.4629 -0.2154
 8590W        W24664  18.034  11.526   4.710 -0.0920 -0.3869 -0.2781
 8591W        W24665  10.099  18.234  11.402 -0.0313 -0.0712  0.2582
 8592W        W24666   0.806   5.839  14.028 -0.4045 -0.3345 -0.1340
 8593W        W24667  18.654   9.891   2.188 -0.1540 -0.0249 -0.1552
 8594W        W24668   8.979   9.038   5.438  0.3399 -0.0716 -0.0727
 8595W        W24669   5.298  15.476   5.381  0.0758 -0.1661 -0.0205
 8596W        W24670  17.794   2.705   4.734 -0.1077 -0.1185 -0.2557
 8597W        W24671   1.915  18.207   3.123 -0.0861  0.2334 -0.2488
 8598W        W24672   4.315   2.995   1.738 -0.1490 -0.3685  0.0051
 8599W        W24673  16.755   2.162   1.846 -0.3767  0.2057  0.2816
 8600W        W24674  11.191  14.946   0.952 -0.3423  0.2726  0.3684
 8601W        W24675  14.070   9.670  13.854 -0.2910 -0.0141 -0.2971
 8602W        W24676  11.877  10.892  11.284 -0.2656 -0.0543  0.1510
 8603W        W24677  18.188   9.077   2.131 -0.3149  0.1517  0.0712
 8604W        W24678  18.615  17.458   4.754  0.0183  0.3173 -0.0630
 8605W        W24679   5.691  14.591   1.034  0.0759 -0.1736 -0.1841
 8606W        W24680   2.838   8.185  11.304  0.2464 -0.2893  0.2810
 8607W        W24681   6.295  17.987   0.014 -0.1513 -0.2905 -0.2348
 8608W        W24682  13.609   5.580  12.972 -0.2563 -0.4086 -0.0351
 8609W        W24683   0.657   1.017   1.143 -0.0317  0.1060  0.0712
 8610W        W24684  11.103  12.635   1.093 -0.0643 -0.1980  0.0799
 8611W        W24685  17.596   5.669  12.612  0.0129  0.2913  0.0954
 8612W        W24686   8.094  13.569  14.352 -0.1294 -0.4929  0.2056
 8613W        W24687  11.623  10.302  12.524 -0.4966  0.1821 -0.0287
 8614W        W24688  19.171  16.748   4.693  0.2306 -0.3843  0.0645
 8615W        W24689   5.002  10.257  12.854 -0.1740  0.0174  0.0932
 8616W        W24690  12.044  11.724   0.363 -0.3187 -0.2300 -0.1113
 8617W        W24691   5.434   0.682  11.937  0.0433  0.0580 -0.1852
 8618W        W24692  10.893   6.690  14.008 -0.1827  0.0121 -0.0220
 8619W        W24693   6.795   3.422  14.465  0.0503 -0.3266 -0.1501
 8620W        W24694  14.961  11.954  13.095 -0.1118 -0.1232 -0.0586
 8621W        W24695   5.797   6.491   5.263 -0.1120  0.0966 -0.3893
 8622W        W24696   8.043   4.728   1.412  0.1158 -0.1763 -0.0475
 8623W        W24697   2.632   8.172  13.173 -0.0107 -0.1443 -0.2138
 8624W        W24698   4.689  10.622   3.376  0.2225  0.1334 -0.2632
 8625W        W24699   9.087   5.374   5.948  0.0387  0.1038  0.3103
 8626W        W24700   6.731  13.957  11.147  0.0818 -0.0701 -0.2107
 8627W        W24701   9.367   9.119   2.016  0.0278 -0.0430 -0.2558
 8628W        W24702   7.406   4.613   3.169  0.3620  0.1727  0.0650
 8629W        W24703   6.684   2.245   2.537  0.0087 -0.1679 -0.0907
 8630W        W24704   0.305   5.884   5.245 -0.0881 -0.3637  0.0190
 8631W        W24705  14.095   0.943   3.408 -0.0263  0.0667  0.0578
 8632W        W24706  17.421  12.743   4.710  0.0725 -0.0432  0.2483
 8633W        W24707   4.113   6.364  13.944  0.1800  0.0168  0.2514
 8634W        W24708  18.965  13.920  10.572  0.0687  0.3016  0.0563
 8635W        W24709  12.461  17.704  12.561 -0.0659  0.1051  0.3329
 8636W        W24710   3.947   7.846  15.030 -0.6315  0.1898  0.4953
 8637W        W24711  12.284   4.804   2.739 -0.0663 -0.1229 -0.0391
 8638W        W24712   8.176  13.137   3.365  0.1440 -0.2783 -0.1717
 8639W        W24713  15.354   7.285  13.163 -0.0468  0.0440 -0.3036
 8640W        W24714  12.683  12.710  11.279 -0.1550  0.2589 -0.2989
 8641W        W24715   6.716   7.783   0.250  0.2651  0.3166  0.0750
 8642W        W24716  11.358   2.660   2.982  0.0919  0.3690  0.0203
 8643W        W24717  12.617  12.407  12.616  0.0134 -0.1873  0.1228
 8644W        W24718   6.530   7.475  13.755  0.2231  0.1378 -0.4956
 8645W        W24719   0.704   9.791   3.809  0.0667  0.3800 -0.1002
 8646W        W24720   4.451  10.409   2.315 -0.0951  0.0051 -0.1131
 8647W        W24721   4.445   0.136  11.272  0.1596 -0.0566  0.1006
 8648W        W24722   9.600   8.759   4.046 -0.0891 -0.0809  0.1524
 8649W        W24723   0.580  13.616  13.325  0.0588 -0.1967 -0.1057
 8650W        W24724  16.273   3.381  13.190  0.2603 -0.1282  0.3127
 8651W        W24725   5.782   0.844  14.735 -0.2041 -0.2300 -0.2224
 8652W        W24726  13.807  11.474  11.981  0.0461 -0.0487 -0.0110
 8653W        W24727   6.784  19.130  14.217  0.0042 -0.0219 -0.2621
 8654W        W24728  16.415  11.344   1.031  0.0288  0.1257  0.2215
 8655W        W24729   2.846   9.908   4.851 -0.0152 -0.2793  0.0069
 8656W        W24730   8.798   4.534  14.191  0.0604 -0.0642 -0.1757
 8657W        W24731   9.324   6.919   4.472 -0.0940 -0.1076 -0.1688
 8658W        W24732  16.499   5.799   3.329 -0.0422  0.2296  0.1019
 8659W        W24733  16.080  13.920   4.916  0.0825  0.0523  0.3485
 8660W        W24734   3.379  13.585   1.415  0.2634 -0.0193 -0.0034
 8661W        W24735  12.179   6.394   3.155  0.2670  0.0817 -0.0833
 8662W        W24736  11.730   8.110   1.827 -0.3389  0.0660  0.1218
 8663W        W24737   7.007  17.379   1.664  0.1789 -0.0245  0.0564
 8664W        W24738   9.765   8.518   0.158  0.2370 -0.1889  0.0694
 8665W        W24739   2.987  14.812   2.144 -0.1091  0.1114 -0.3413
 8666W        W24740   8.816   7.531   1.984  0.1625 -0.0903 -0.3063
 8667W        W24741  14.962  12.575   2.486  0.0021 -0.2987 -0.1408
 8668W        W24742  16.114  13.526  13.044 -0.0626  0.0616 -0.1088
 8669W        W24743   3.025  12.560  10.009 -0.1427 -0.0480  0.2150
 8670W        W24744   0.249  15.407   5.309  0.1160 -0.0386  0.1425
 8671W        W24745   7.285   6.612  11.952 -0.1979  0.4202  0.1397
 8672W        W24746   5.588  11.127   2.022  0.0377  0.3479 -0.0651
 8673W        W24747  12.666  18.551   2.306 -0.0471 -0.1713 -0.1272
 8674W        W24748  15.208  16.291   2.602  0.1104 -0.5185  0.0301
 8675W        W24749   3.342  17.931  11.583 -0.3131  0.1436  0.4195
 8676W        W24750   0.492   0.210  14.285 -0.0474  0.0357  0.1084
 8677W        W24751   9.386   7.812   5.031 -0.0142  0.0420 -0.0788
 8678W        W24752  18.782   3.891  11.618  0.1411  0.2773  0.0089
 8679W        W24753   8.672   9.180   4.951 -0.3134  0.3622 -0.0219
 8680W        W24754  12.243  15.736   3.122 -0.3578 -0.2810  0.1623
 8681W        W24755  10.205  18.637   1.696 -0.3102  0.0799  0.0423
 8682W        W24756  13.581  12.169  11.288  0.0895 -0.0837  0.2006
 8683W        W24757  19.049   0.100   1.968 -0.2863  0.3900  0.0374
 8684W        W24758  18.991  19.167   0.024  0.0532 -0.0175 -0.4998
 8685W        W24759   1.851   8.514  10.523  0.0027  0.1238  0.3320
 8686W        W24760   7.508  16.857   0.869 -0.1424 -0.2588  0.1085
 8687W        W24761   1.837  16.502  11.716  0.3913 -0.3329 -0.3834
 8688W        W24762  17.443  19.030   9.878  0.0379 -0.2852 -0.2344
 8689W        W24763   0.147  18.126  12.148  0.0092 -0.0686  0.2836
 8690W        W24764   3.660   2.771   2.095 -0.1034 -0.1228 -0.1875
 8691W        W24765   1.928   7.154   0.282 -0.0278 -0.0021  0.2937
 8692W        W24766  10.279  17.915   3.057  0.2803  0.0351 -0.1507
 8693W        W24767  11.431  12.082   3.731  0.1769 -0.3548  0.0283
 8694W        W24768  16.244  15.037   2.413 -0.0810 -0.0330 -0.2578
 8695W        W24769   1.190   7.066  10.823 -0.2709 -0.2160 -0.1499
 8696W        W24770   2.134   9.764   4.034  0.0039  0.2761  0.0617
 8697W        W24771   7.576   2.605   4.979  0.0847  0.0941 -0.2196
 8698W        W24772  10.874   3.277   1.043  0.0247 -0.3119 -0.1205
 8699W        W24773   1.627   6.463   2.295 -0.3350  0.2550  0.3273
 8700W        W24774  11.972  15.645  14.844 -0.0266  0.1324  0.0287
 8701W        W24775  12.936   6.234  10.140 -0.1132  0.1522  0.0248
 8702W        W24776   4.846   1.119  11.579  0.0065  0.1993 -0.1823
 8703W        W24777  10.566  14.543  12.991  0.0307  0.1911  0.4180
 8704W        W24778   8.049  18.491  13.868 -0.0995  0.1208 -0.2499
 8705W        W24779   5.791   4.654   3.984  0.1168 -0.1582 -0.0473
 8706W        W24780  18.986   0.468  10.377  0.1219  0.1917 -0.3161
 8707W        W24781   5.583   7.033  11.716 -0.2699 -0.4830 -0.2147
 8708W        W24782  18.200  12.974  10.686 -0.0366  0.0494  0.2096
 8709W        W24783  15.375   9.577  12.029 -0.0789 -0.1689 -0.1561
 8710W        W24784   5.769  13.611   0.358 -0.0900 -0.1637  0.1804
 8711W        W24785   0.994   1.282   4.390  0.2299  0.0806 -0.1305
 8712W        W24786   9.262  16.607  11.468  0.0814  0.0726  0.2585
 8713W        W24787   6.724   9.188  14.736 -0.0515  0.1674 -0.2022
 8714W        W24788  16.265  16.452   5.212 -0.2695  0.0599 -0.2096
 8715W        W24789  16.587  18.225  13.236 -0.0617  0.1581 -0.0746
 8716W        W24790   8.316   0.361  11.942 -0.1669 -0.2925 -0.0886
 8717W        W24791  10.178   3.512   4.032  0.1149  0.3567  0.3122
 8718W        W24792   9.242  17.565   4.519 -0.0942 -0.5375  0.4532
 8719W        W24793   4.532  11.909   2.074 -0.0555 -0.0634  0.2781
 8720W        W24794   0.722   5.331  12.458  0.2306  0.1089 -0.0911
 8721W        W24795  18.221   2.641  10.111 -0.2328 -0.1174  0.3377
 8722W        W24796  18.978  11.323   0.592 -0.1446  0.0018  0.1314
 8723W        W24797  18.692  13.237   3.995 -0.2030 -0.4779 -0.0368
 8724W        W24798   7.290   7.427   5.479  0.0463  0.0093 -0.1073
 8725W        W24799  18.571  18.513  14.458  0.4686 -0.2227 -0.1029
 8726W        W24800   0.934   6.646  10.912  0.0726 -0.0555  0.5650
 8727W        W24801  15.584   1.839  14.953  0.0891  0.0169 -0.3552
 8728W        W24802   4.570  13.913  14.204  0.0473  0.0090  0.1952
 8729W        W24803  13.681  15.987   2.083  0.2496 -0.2231  0.0923
 8730W        W24804  10.609   9.689   0.560 -0.0557 -0.2097  0.1478
 8731W        W24805  16.004  18.188  14.865 -0.3212  0.1187 -0.2028
 8732W        W24806   4.060   9.989   3.664 -0.0692  0.0384 -0.2417
 8733W        W24807   3.410  11.744  13.009 -0.2677 -0.0833 -0.1662
 8734W        W24808  13.275   4.949   5.292 -0.0508  0.0810 -0.3175
 8735W        W24809  12.274  18.191   2.748 -0.1240 -0.0231 -0.0174
 8736W        W24810   6.201   9.591  12.592 -0.0264  0.0410  0.0498
 8737W        W24811   0.202   5.969  12.109 -0.2503  0.3100 -0.2120
 8738W        W24812   5.209  16.791   4.270 -0.1713  0.2000  0.0296
 8739W        W24813   2.632  11.451   4.456  0.3248 -0.0297 -0.0985
 8740W        W24814   6.990  13.735  13.985 -0.3176 -0.0387  0.0720
 8741W        W24815   6.653  13.992   5.096 -0.1650 -0.0943 -0.0143
 8742W        W24816   4.326   4.877  11.054  0.2151 -0.4052 -0.0541
 8743W        W24817   4.719  14.786   3.127 -0.4175  0.2513 -0.0690
 8744W        W24818   9.903  16.514  10.662  0.1709  0.3260  0.2251
 8745W        W24819  11.414   6.224   5.654  0.4117  0.2762  0.3090
 8746W        W24820  15.851  13.615  13.667 -0.1437 -0.0859 -0.3913
 8747W        W24821   3.330   4.500  11.741  0.1924 -0.2338 -0.1055
 8748W        W24822   7.672   9.935  12.793  0.2301 -0.3499  0.0035
 8749W        W24823  15.005  11.475  12.986 -0.2630  0.2913  0.0110
 8750W        W24824   2.992  17.374  12.204  0.1034  0.1718  0.2191
 8751W        W24825  18.092  11.140   2.025  0.1658 -0.2395  0.0901
 8752W        W24826   4.494   9.637   3.662  0.0913  0.1342 -0.0773
 8753W        W24827  14.332  11.010  15.052 -0.1047 -0.0879 -0.1161
 8754W        W24828   6.766  14.329  12.250  0.2500  0.0848  0.0247
 8755W        W24829   5.409   8.507   5.621 -0.2490 -0.0661  0.2043
 8756W        W24830  15.045  10.509  14.968 -0.0685  0.3768 -0.4021
 8757W        W24831   8.859   5.071  12.751 -0.2545  0.2329 -0.0309
 8758W        W24832   0.238   3.453  13.846  0.1257  0.1994  0.0678
 8759W        W24833  17.381   7.286   4.584 -0.1324 -0.2213 -0.0836
 8760W        W24834   7.146  10.086   5.122  0.2109  0.1618  0.3893
 8761W        W24835   8.239   4.165   2.793  0.1587  0.2560 -0.0651
 8762W        W24836  15.183   8.423  14.209  0.2250 -0.3148  0.3404
 8763W        W24837   9.928   0.288  14.753 -0.0280 -0.1450 -0.0693
 8764W        W24838   2.082  11.753   3.670  0.2352  0.0030  0.0836
 8765W        W24839  10.742   4.077  10.698 -0.1755 -0.0870 -0.0043
 8766W        W24840  10.286   5.471  14.403  0.1080  0.0560  0.0970
 8767W        W24841   8.049   8.929   1.049  0.1334  0.0896 -0.2033
 8768W        W24842  15.771   8.865   1.830 -0.0097 -0.0891 -0.1032
 8769W        W24843   5.941  10.925  13.268 -0.0036  0.2499 -0.2801
 8770W        W24844  10.461  13.017   5.617 -0.1339  0.0384  0.1659
 8771W        W24845   1.916   8.480  11.045  0.1919 -0.2970  0.0525
 8772W        W24846   2.251   1.718  14.000  0.0569  0.0313 -0.1284
 8773W        W24847   8.345   7.969   1.641  0.1344  0.1335 -0.1739
 8774W        W24848   3.247  16.313  10.702  0.0992  0.0051  0.0641
 8775W        W24849   7.241   4.460   1.767 -0.2409  0.0772  0.2627
 8776W        W24850  18.355   1.063   0.029 -0.1288 -0.0963  0.0376
 8777W        W24851  13.380   7.991  12.159 -0.1998  0.2129 -0.0715
 8778W        W24852  14.749   2.822  10.637  0.0673 -0.0725 -0.1910
 8779W        W24853  18.146   0.808   0.420  0.1384 -0.0356  0.2412
 8780W        W24854  15.127  14.968   4.892  0.1563 -0.2429 -0.1263
 8781W        W24855   6.297  18.104  13.834 -0.1030  0.0173 -0.0158
 8782W        W24856  10.968  12.417  14.618 -0.0226 -0.0515 -0.0897
 8783W        W24857   9.374   8.623  12.670 -0.1856 -0.2002 -0.1397
 8784W        W24858   0.385   5.478  13.251 -0.0979 -0.1719 -0.2665
 8785W        W24859  12.427  12.815  10.419  0.2763 -0.3139 -0.0776
 8786W        W24860   8.809  12.284   3.558  0.0326  0.2100 -0.3584
 8787W        W24861  12.296  16.278   2.585 -0.2250 -0.1638  0.0758
 8788W        W24862   8.416  19.022  13.227 -0.1795 -0.1246  0.6502
 8789W        W24863  10.535  15.516   5.307 -0.0448 -0.1175 -0.1073
 8790W        W24864  13.609   6.409  13.447  0.6576 -0.1162 -0.2013
 8791W        W24865   6.033  12.323   4.770 -0.1896 -0.1410 -0.3297
 8792W        W24866  17.137   5.493   2.249  0.2262  0.5235  0.0154
 8793W        W24867  17.600   3.606  11.170 -0.2757 -0.0453 -0.2017
 8794W        W24868  16.776   8.535  12.232  0.0056  0.1328  0.0699
 8795W        W24869  13.480  13.192  11.546  0.0559 -0.0134 -0.0519
 8796W        W24870  12.440  13.963  14.291 -0.1766  0.0522  0.3153
 8797W        W24871  11.777  15.495  14.371 -0.3448 -0.1524  0.1683
 8798W        W24872   6.041  10.678  12.831 -0.2917  0.0718 -0.0084
 8799W        W24873  12.775   1.537   2.977  0.2605  0.3342  0.3634
 8800W        W24874  14.608  12.770   2.757  0.2116 -0.0390  0.1014
 8801W        W24875  10.745   6.441   1.838 -0.2752  0.0381 -0.1266
 8802W        W24876   3.604  14.436   1.752 -0.0216  0.1222 -0.0212
 8803W        W24877  14.502  13.533   0.148  0.0281 -0.1398  0.2214
 8804W        W24878  11.963  11.461  11.039  0.1189  0.0484 -0.0792
 8805W        W24879   5.141   2.145   5.517 -0.1421  0.1049  0.0416
 8806W        W24880  15.326  14.405  10.163  0.1325 -0.1112  0.0164
 8807W        W24881   5.392   5.620   5.385 -0.4709 -0.0912 -0.1190
 8808W        W24882   8.196   5.757   3.607 -0.0360 -0.0902 -0.1470
 8809W        W24883  12.083  11.219   1.815  0.0431  0.0604  0.2086
 8810W        W24884  14.119   8.607   2.713 -0.2350 -0.0579 -0.2441
 8811W        W24885  13.917  13.023  10.867 -0.3941  0.0636 -0.3625
 8812W        W24886   6.829  16.965  11.454  0.0049 -0.0859  0.4120
 8813W        W24887   2.162   0.651   1.301 -0.2152 -0.0709 -0.0778
 8814W        W24888  17.581  16.110   4.441 -0.0600  0.1754  0.0245
 8815W        W24889  14.174   5.554  14.188 -0.1149 -0.2292  0.2091
 8816W        W24890   0.713   9.614   3.285 -0.0781 -0.3923  0.2436
 8817W        W24891   4.460   3.691   1.562 -0.1303 -0.3579 -0.0783
 8818W        W24892  13.958  14.481  11.969 -0.3054 -0.2929 -0.2347
 8819W        W24893  18.948  13.793  11.870 -0.1446  0.2072  0.2909
 8820W        W24894   1.145   9.520   3.567 -0.1823  0.2056  0.4967
 8821W        W24895   7.177   0.704   5.322  0.1332  0.0273 -0.2857
 8822W        W24896  11.777   0.574  10.840 -0.0912 -0.0169 -0.3712
 8823W        W24897   0.421  16.018   4.654 -0.4861 -0.1171 -0.2209
 8824W        W24898   3.058   1.892  11.082  0.0259  0.1962  0.1992
 8825W        W24899   4.605   2.550  11.883 -0.1530 -0.0322 -0.1362
 8826W        W24900  10.590  18.969   4.204  0.1926 -0.3164 -0.3747
 8827W        W24901   4.252  13.642  13.178 -0.1200  0.0592 -0.2439
 8828W        W24902  16.267   4.646   5.333  0.0198  0.2682  0.2476
 8829W        W24903   9.940  16.383   3.602  0.2363  0.1276  0.0113
 8830W        W24904  10.910  11.495   1.247  0.1582  0.3956 -0.0488
 8831W        W24905  15.766   0.664   1.647  0.1369  0.0757  0.0196
 8832W        W24906  11.145  15.849   2.654 -0.3446 -0.2946 -0.1678
 8833W        W24907   0.055  18.460  14.976 -0.1437 -0.0141  0.0583
 8834W        W24908  10.195   3.828  14.345 -0.1846 -0.0420  0.1139
 8835W        W24909   8.301  12.827   5.000  0.1748 -0.0329 -0.2470
 8836W        W24910   0.228   0.064   2.247  0.1667  0.3649 -0.2228
 8837W        W24911  13.836   5.146   4.508 -0.0276  0.2895  0.0410
 8838W        W24912   8.242  13.680   3.227  0.1757  0.3425  0.3451
 8839W        W24913  18.448   4.183  14.903  0.1672  0.1533  0.3114
 8840W        W24914  19.196   3.911  13.163 -0.1707  0.2479  0.2678
 8841W        W24915   1.738   2.289   1.826 -0.1073 -0.2787  0.0137
 8842W        W24916  14.530  17.490   2.187 -0.0546 -0.0452  0.0801
 8843W        W24917   5.739   1.975   3.413 -0.0135  0.5931 -0.1025
 8844W        W24918   0.900   6.245  11.322  0.0934  0.0655  0.2053
 8845W        W24919   3.426  13.099   1.425  0.2144 -0.1018  0.1964
 8846W        W24920  11.553   6.750   5.705  0.0976 -0.1157 -0.0411
 8847W        W24921   5.593   7.406   4.032  0.0073  0.2164  0.0298
 8848W        W24922  19.078  15.750   2.825 -0.2086  0.3238  0.2210
 8849W        W24923   3.666  18.854  11.456  0.0542  0.4364  0.2121
 8850W        W24924  13.075  16.193   4.907 -0.1001 -0.1113 -0.3002
 8851W        W24925   1.123  17.497   9.739 -0.1992  0.1043  0.1346
 8852W        W24926   6.906   3.355  12.322 -0.1783 -0.2135 -0.0952
 8853W        W24927   8.474  10.360   2.744  0.0809 -0.1238  0.3213
 8854W        W24928   4.338  17.577  13.653 -0.3764  0.0356 -0.2559
 8855W        W24929   1.094  10.971   1.959 -0.1416 -0.1989  0.3148
 8856W        W24930  14.636   4.346   0.634 -0.1232 -0.0151  0.2610
 8857W        W24931  13.921   2.826  12.399  0.0855 -0.1972  0.0349
 8858W        W24932  12.935  13.810   2.262  0.1805  0.1011  0.1661
 8859W        W24933  13.489  14.563   0.710 -0.1126  0.0363 -0.0301
 8860W        W24934  13.737   8.443   2.464 -0.1651  0.1120 -0.0510
 8861W        W24935   6.223  17.375  12.728 -0.2585 -0.1442  0.3475
 8862W        W24936   0.168   6.482   5.259  0.0507  0.2067 -0.3375
 8863W        W24937   5.980  13.108  14.634  0.0836  0.1701  0.0895
 8864W        W24938  13.975   5.215   2.642  0.0437  0.0837 -0.1679
 8865W        W24939   3.358   8.716   0.537 -0.0754  0.1617  0.1273
 8866W        W24940   7.655   7.455   0.068 -0.1895 -0.2803 -0.2598
 8867W        W24941   3.096   4.352  14.172  0.0093 -0.1490 -0.0879
 8868W        W24942   9.067   3.151   1.893  0.2283  0.3170 -0.0432
 8869W        W24943  13.137  12.253   1.456 -0.2737  0.0443  0.1866
 8870W        W24944  12.243   1.358   4.663  0.1979  0.0148  0.1427
 8871W        W24945  13.223  13.320  14.207 -0.0396  0.1361 -0.4042
 8872W        W24946  15.732   9.984   0.219 -0.2676  0.0186  0.0058
 8873W        W24947   6.839  13.424  14.974  0.0248  0.2201 -0.1045
 8874W        W24948  13.094   2.922  11.214  0.2651 -0.0968  0.1628
 8875W        W24949   5.638   5.082   4.044 -0.0903 -0.1687  0.0952
 8876W        W24950  14.319   4.151  10.702  0.2375 -0.4357 -0.1335
 8877W        W24951  18.391   5.915   1.946 -0.4136  0.2791  0.4366
 8878W        W24952  16.007   3.751   0.217 -0.1514  0.2509  0.0893
 8879W        W24953  17.865  17.541   2.199  0.0477  0.1935  0.0824
 8880W        W24954  13.713   7.097   1.478  0.0543  0.0093 -0.0504
 8881W        W24955  13.200  18.367   0.119 -0.2915  0.0751  0.0808
 8882W        W24956  16.950  17.233   4.877 -0.1794 -0.2362 -0.0104
 8883W        W24957   3.212  11.418  12.096 -0.3614 -0.1195 -0.1525
 8884W        W24958  16.337  17.009  12.176 -0.0385 -0.3537 -0.0173
 8885W        W24959  14.921  14.099  14.628  0.1576  0.0955 -0.3406
 8886W        W24960  16.997   2.740   3.890 -0.0524 -0.1247 -0.1005
 8887W        W24961  11.735  17.916   1.591  0.0325 -0.1071 -0.1944
 8888W        W24962   4.586  13.451  15.041  0.1468  0.2549  0.1042
 8889W        W24963  14.623   5.988   4.676  0.0506  0.1596  0.0883
 8890W        W24964   6.025  14.780  11.772  0.1058  0.0947  0.0002
 8891W        W24965  12.455   0.057   0.066 -0.2418 -0.1931 -0.0448
 8892W        W24966   2.046   6.849  13.515 -0.1044 -0.2108 -0.0732
 8893W        W24967  15.078   2.859  15.039  0.2519 -0.1324 -0.0548
 8894W        W24968  17.084   2.296   3.678  0.2895 -0.1377  0.4052
 8895W        W24969  12.614   2.738  11.486 -0.1644 -0.2556  0.2393
 8896W        W24970   1.021   7.589  13.655 -0.1486  0.2802  0.0504
 8897W        W24971  11.714  18.216  11.293 -0.1542  0.4264 -0.1334
 8898W        W24972  13.798   4.914   0.586 -0.3769  0.0663 -0.1764
 8899W        W24973   6.256  15.377   1.429  0.2918  0.0017  0.1714
 8900W        W24974   2.086   5.445  11.920 -0.0695 -0.1113  0.3135
 8901W        W24975  15.176  18.688   4.495  0.2996 -0.1423 -0.0030
 8902W        W24976  14.863  11.976  11.792  0.2225 -0.1442  0.1829
 8903W        W24977   6.006  14.348   2.783 -0.1498 -0.1563  0.1187
 8904W        W24978  16.183   9.244  15.046  0.0495 -0.0956 -0.2711
 8905W        W24979  16.195  15.644  11.095  0.1387 -0.1386  0.0235
 8906W        W24980  16.651  17.571  11.451  0.2366  0.2635 -0.1440
 8907W        W24981  14.019   0.602   1.586  0.1734 -0.1202 -0.1527
 8908W        W24982  10.793   0.967   3.423  0.0826  0.1654 -0.3758
 8909W        W24983  18.013  15.150  13.077  0.0698 -0.1649 -0.3032
 8910W        W24984  11.690  13.393  12.225 -0.0455 -0.4104 -0.0124
 8911W        W24985  13.752   4.424   0.377  0.1925 -0.1214 -0.1416
 8912W        W24986   1.564   8.386   0.015  0.0809 -0.0156 -0.0277
 8913W        W24987   9.280  15.285   1.087 -0.1610 -0.1429 -0.1168
 8914W        W24988   7.593  12.372   2.549  0.2631 -0.1319 -0.0115
 8915W        W24989  11.901   0.663   2.403  0.2356  0.0238  0.0276
 8916W        W24990   2.608   7.433  12.001 -0.0517  0.4395 -0.3028
 8917W        W24991  12.542   0.551   3.399  0.2708 -0.1756 -0.2466
 8918W        W24992  13.298   6.139   0.870 -0.1833  0.1284 -0.3860
 8919W        W24993  14.494  14.391   1.618  0.2819  0.0131  0.1558
 8920W        W24994   0.637   1.200   4.686  0.0763 -0.1712 -0.1764
 8921W        W24995   3.843   9.797   0.326  0.0017  0.0833 -0.1202
 8922W        W24996  18.390   1.501  11.579  0.0442 -0.0826  0.0870
 8923W        W24997   1.006  13.996   2.029 -0.4038  0.2737  0.2287
 8924W        W24998   2.190   0.431  12.882 -0.4149 -0.1541 -0.4014
 8925W        W24999  18.743   1.596   3.566 -0.2012  0.1191  0.1565
 8926W        W25000  18.577   4.421   2.933  0.2071  0.0367 -0.1188
 8927W        W25001   2.497  10.295   0.491  0.0696 -0.0943 -0.3069
 8928W        W25002  18.254  14.579   3.019 -0.0507  0.0576  0.1221
 8929W        W25003  16.216   2.505  11.426 -0.1643 -0.1262  0.0358
 8930W        W25004   8.073   2.722   3.257 -0.0648  0.0861  0.3171
 8931W        W25005   3.575  13.650   4.431 -0.3027 -0.3015 -0.2483
 8932W        W25006   7.701  13.969  14.364  0.1295 -0.0590 -0.4650
 8933W        W25007   8.420   9.352   3.766 -0.1206  0.0319  0.3080
 8934W        W25008   9.980  11.768   4.810 -0.0421 -0.1750 -0.0363
 8935W        W25009  13.740  17.048   9.382 -0.2142  0.0325  0.2051
 8936W        W25010   2.056  10.476  13.367  0.1698 -0.1492  0.3189
 8937W        W25011  17.641   9.585   4.713 -0.2955 -0.0299 -0.0571
 8938W        W25012   7.665  14.594  12.732  0.0830 -0.0989  0.0442
 8939W        W25013   4.859   9.956  15.053  0.0062 -0.1611 -0.2045
 8940W        W25014  12.586  16.977   1.390 -0.2817  0.0140  0.1717
 8941W        W25015   2.932   3.190  12.274 -0.3032  0.0256 -0.1190
 8942W        W25016   1.458   3.556  11.440  0.1214 -0.1507 -0.3403
 8943W        W25017  16.840  11.188   0.522 -0.3718 -0.1635 -0.4848
 8944W        W25018  15.110  10.183   4.565  0.3341  0.2171  0.0640
 8945W        W25019  13.675   0.149   4.678 -0.0776  0.1214 -0.3704
 8946W        W25020  13.594   0.307   1.017 -0.0342  0.1374 -0.3005
 8947W        W25021   7.914   2.784   1.736  0.1825 -0.0174 -0.2472
 8948W        W25022   9.875   5.093  13.853 -0.0987 -0.1396  0.1966
 8949W        W25023   9.957   6.082   0.861  0.1505  0.1190  0.3541
 8950W        W25024  15.772   3.212  10.821  0.1441  0.0401  0.0171
 8951W        W25025   8.968   5.806  11.127  0.0491  0.0437  0.1159
 8952W        W25026  14.537  14.537   2.254  0.0446  0.1239 -0.1413
 8953W        W25027  11.185  15.213   4.698 -0.3171  0.0882  0.0202
 8954W        W25028   9.284   9.507  15.050  0.0762 -0.0059  0.2062
 8955W        W25029   5.757   8.870   1.008 -0.3611  0.0725  0.0757
 8956W        W25030  10.516  16.015  13.943 -0.3472  0.0295 -0.2456
 8957W        W25031  11.075   9.431   4.289 -0.1376 -0.0297  0.0767
 8958W        W25032  18.079   4.658   4.190 -0.3144  0.4102  0.0346
 8959W        W25033   2.483   0.353   4.512 -0.3736  0.0328 -0.2140
 8960W        W25034   5.294   2.236  13.186 -0.1143 -0.0031 -0.1798
 8961W        W25035   0.090  19.254  13.311  0.0123  0.4637 -0.2986
 8962W        W25036   3.173   4.323   3.447 -0.2036 -0.2712  0.4121
 8963W        W25037  14.448  16.473  11.352  0.1130  0.0813  0.2280
 8964W        W25038   6.736  15.570   4.922  0.2556  0.1019  0.2695
 8965W        W25039  10.885  10.671   4.178 -0.4736  0.1313 -0.1167
 8966W        W25040  13.582   9.523  10.469 -0.1453 -0.2101 -0.0537
 8967W        W25041   6.300   9.179  13.328  0.4405 -0.0748  0.1815
 8968W        W25042   8.187  16.886   3.524  0.0152 -0.0898  0.0690
 8969W        W25043  10.432   4.068  13.342  0.0482 -0.0898 -0.1157
 8970W        W25044   0.737  12.873   1.620  0.0878  0.0895 -0.2768
 8971W        W25045   9.556   4.197  13.794  0.0076  0.2230  0.0521
 8972W        W25046  15.163  16.231  10.266  0.1639 -0.0594 -0.1785
 8973W        W25047  14.856  14.278   1.973  0.0066  0.0443  0.0355
 8974W        W25048  17.170  12.489  10.772 -0.0519 -0.1659 -0.3125
 8975W        W25049  18.532  10.760  12.498  0.0173  0.2028  0.0132
 8976W        W25050  16.452   5.705   2.706 -0.1540 -0.3310 -0.1900
 8977W        W25051  16.716   8.624  10.795  0.3930 -0.0667 -0.0001
 8978W        W25052  18.429  19.190  12.947 -0.0073 -0.1234 -0.1016
 8979W        W25053  18.408   0.238  13.326  0.1137  0.1178  0.3837
 8980W        W25054   9.438  12.244   0.169  0.0695 -0.1246 -0.1863
 8981W        W25055  18.594   9.051   1.753  0.1093 -0.0794  0.3719
 8982W        W25056  12.540   1.863   3.392 -0.0724  0.0091 -0.1232
 8983W        W25057  18.533   2.017   3.402 -0.4841 -0.2467  0.0576
 8984W        W25058  18.409  12.170  13.590  0.2312 -0.0476  0.0561
 8985W        W25059   0.981   5.115   1.577 -0.1520 -0.2556  0.1294
 8986W        W25060  17.777   7.139  10.960 -0.0082 -0.3831 -0.2946
 8987W        W25061  12.674  18.520  13.258 -0.1565  0.2316 -0.0995
 8988W        W25062  10.973   5.862   0.048 -0.0163  0.1718  0.0360
 8989W        W25063  16.588  11.373  10.555  0.1187 -0.2226  0.1228
 8990W        W25064   5.491  14.231   1.988  0.2270  0.0766 -0.1010
 8991W        W25065  13.813  12.548  12.095 -0.0202  0.0758 -0.4657
 8992W        W25066  12.178  18.512  14.870  0.2122 -0.0547  0.2834
 8993W        W25067   6.432   1.432   4.464 -0.5328  0.0299 -0.0835
 8994W        W25068   3.271   4.144  10.784 -0.2639 -0.0295  0.3308
 8995W        W25069  16.251  18.842  12.960  0.0960 -0.0650  0.2979
 8996W        W25070   3.586   0.905  12.082 -0.1155 -0.1745 -0.0129
 8997W        W25071  14.474   2.451   2.774 -0.4918 -0.0884 -0.0971
 8998W        W25072   2.807  10.205  10.964  0.0603  0.0400  0.0974
 8999W        W25073   8.627  16.208   3.002  0.1663  0.1616  0.3052
 9000W        W25074   1.374   2.965  13.451  0.1473 -0.5493 -0.0405
 9001W        W25075  16.477  13.366  12.746 -0.1131 -0.0130  0.1503
 9002W        W25076  14.346   0.839  10.468 -0.1858 -0.2320 -0.0775
 9003W        W25077   4.443  10.214  14.818 -0.4915 -0.2803  0.3429
 9004W        W25078   4.649  17.239   0.437 -0.1330 -0.3177  0.0255
 9005W        W25079  11.866   7.215   5.429  0.0767 -0.2054  0.3545
 9006W        W25080   7.256   6.659   3.489  0.3792 -0.1924 -0.0057
 9007W        W25081  12.637   3.400   0.634  0.4403 -0.1182  0.2300
 9008W        W25082   1.996   6.595   0.147  0.3813  0.3081 -0.0758
 9009W        W25083  11.509   2.220   2.821  0.0491 -0.0595  0.3019
 9010W        W25084  11.422  17.406   4.256 -0.0080  0.1121 -0.1597
 9011W        W25085   1.723   1.564  10.154 -0.5151 -0.0672  0.2608
 9012W        W25086   8.090   6.282   5.327 -0.0229  0.2016 -0.2290
 9013W        W25087  13.860  15.214  11.501  0.2887 -0.3018 -0.1458
 9014W        W25088  18.387   8.980  10.605 -0.0714 -0.0629 -0.0391
 9015W        W25089   5.995  18.640  13.211 -0.2498 -0.1615  0.4612
 9016W        W25090   2.138  12.619  10.495  0.0745  0.0210  0.0303
 9017W        W25091   2.979  18.080   4.678  0.0367  0.3631  0.0837
 9018W        W25092   9.213   3.720  12.361 -0.1919 -0.4098  0.1272
 9019W        W25093  15.050  12.586  13.655 -0.2976 -0.2244  0.0365
 9020W        W25094   9.305   0.322  13.974 -0.0248  0.2761  0.2183
 9021W        W25095  19.010   8.915  11.276 -0.0454  0.0100 -0.1815
 9022W        W25096   5.335   5.089   3.570  0.1910  0.1220 -0.0683
 9023W        W25097  10.794  13.303   3.519 -0.1828  0.0975  0.2783
 9024W        W25098  15.472   6.060   5.710 -0.4646  0.1750  0.0627
 9025W        W25099   9.251   2.470  10.743 -0.0023  0.1127 -0.0574
 9026W        W25100   0.124   7.294  10.721  0.0648 -0.2932 -0.2536
 9027W        W25101  13.126   5.441   0.664  0.1675 -0.1903 -0.0027
 9028W        W25102  13.811   0.090  15.017  0.1038 -0.0619  0.0276
 9029W        W25103   6.617  16.811   3.944  0.0419  0.1994 -0.0509
 9030W        W25104  15.657   2.635  14.775 -0.2653 -0.0716 -0.3067
 9031W        W25105   3.747  17.761   4.919  0.1369  0.2083 -0.0016
 9032W        W25106   7.617  13.960  11.318 -0.1127 -0.3060 -0.0977
 9033W        W25107  12.069  14.224   2.575  0.0548  0.1739  0.2275
 9034W        W25108   4.423  15.616  10.665 -0.1756 -0.1623 -0.4532
 9035W        W25109  12.780   0.328   4.314  0.2099 -0.0313 -0.2060
 9036W        W25110  15.005  15.778  13.394 -0.0168  0.1857  0.2410
 9037W        W25111  16.470   2.552   1.090 -0.1854 -0.1794 -0.0305
 9038W        W25112  16.475   7.824  10.215  0.0536 -0.1028  0.1689
 9039W        W25113  15.316  18.043  10.494  0.1066 -0.1434  0.3644
 9040W        W25114  11.360  16.190   1.755  0.2838  0.0486 -0.1551
 9041W        W25115   5.907   5.985  14.578 -0.1041 -0.0401 -0.0563
 9042W        W25116  16.124   1.929   3.486 -0.3278 -0.0109  0.1050
 9043W        W25117  18.895  16.057   4.130  0.0495 -0.0003 -0.0361
 9044W        W25118  13.149   2.802  12.083  0.0105  0.3232 -0.1965
 9045W        W25119   6.924   2.882   1.639  0.0653 -0.2021 -0.0677
 9046W        W25120  11.843   7.433  11.878  0.0820 -0.1467 -0.3551
 9047W        W25121  10.670  10.159  11.694 -0.1601  0.1545 -0.1714
 9048W        W25122  15.464  13.443   3.326  0.1211 -0.0887  0.0736
 9049W        W25123  19.166  17.747   3.396 -0.1095 -0.0765  0.0997
 9050W        W25124  12.779   4.032   3.182 -0.2810 -0.0171 -0.0016
 9051W        W25125  16.218   8.647   1.496 -0.0995  0.0622 -0.0460
 9052W        W25126  13.154  15.361   1.760  0.3346  0.1214 -0.1403
 9053W        W25127  16.893   1.574  12.032 -0.0845 -0.0778  0.1474
 9054W        W25128   8.873  17.783  10.843 -0.3553 -0.1872  0.1672
 9055W        W25129   2.629   6.636  10.542  0.1161  0.2140 -0.4554
 9056W        W25130  18.106   8.085   5.515 -0.0536  0.1312 -0.0804
 9057W        W25131   8.484  16.473  10.414  0.1113 -0.2022 -0.1538
 9058W        W25132  15.183  14.688  12.331 -0.0665 -0.1272 -0.1148
 9059W        W25133  15.550  16.617   0.964 -0.1004  0.0002  0.0465
 9060W        W25134   3.503  18.931   3.748 -0.0402  0.3115 -0.2951
 9061W        W25135  11.474   3.616   2.544 -0.1562 -0.0588 -0.5196
 9062W        W25136  15.152   5.076  13.580 -0.0099 -0.2666 -0.2672
 9063W        W25137   4.931  13.893  12.005 -0.2777  0.0633  0.4294
 9064W        W25138   0.365  13.020  12.532  0.0663 -0.0919  0.0101
 9065W        W25139   3.217   9.602   2.620  0.3103  0.3316 -0.2112
 9066W        W25140  16.121  17.402  14.396  0.0087 -0.1570  0.0217
 9067W        W25141   2.258   7.680  12.361 -0.3437 -0.2301  0.0972
 9068W        W25142  11.197  12.327  12.163 -0.1309 -0.1178  0.1156
 9069W        W25143   6.870  19.010   3.783 -0.2385 -0.0220  0.5247
 9070W        W25144   5.213   3.653  14.949 -0.2713  0.0357  0.2156
 9071W        W25145  16.307  11.721   0.588  0.1374 -0.2105 -0.1598
 9072W        W25146   4.688  19.251  13.559  0.2713  0.1436 -0.0544
 9073W        W25147   7.496   5.244   0.050 -0.1055 -0.3302  0.0636
 9074W        W25148  17.650  19.025   0.011  0.3515  0.0074 -0.1961
 9075W        W25149   3.886  15.479   1.748  0.0540 -0.2943 -0.1022
 9076W        W25150  11.237   7.394  12.441 -0.0380  0.1557  0.1722
 9077W        W25151  13.982  17.334  10.374 -0.1662 -0.0976 -0.1392
 9078W        W25152   8.572   8.905   4.005 -0.1540 -0.3859  0.0692
 9079W        W25153   4.526  17.877   4.816 -0.3153 -0.5388  0.0043
 9080W        W25154   5.612  17.843   3.306 -0.1738 -0.2318 -0.0316
 9081W        W25155   6.180  14.224  10.524 -0.0792 -0.0389 -0.2181
 9082W        W25156  15.153  12.020   4.884 -0.1294 -0.1787  0.1695
 9083W        W25157  10.444  14.267   5.541  0.0334 -0.0775 -0.2223
 9084W        W25158   5.877   0.408   9.886  0.1235 -0.2307  0.1393
 9085W        W25159   1.074   8.997  10.392  0.0251 -0.1359  0.0624
 9086W        W25160   9.992   8.542   4.303 -0.0797 -0.2405 -0.2043
 9087W        W25161   1.087   0.174  10.270 -0.3154  0.3250 -0.3759
 9088W        W25162  13.068   9.142   4.228 -0.1445 -0.0002  0.0493
 9089W        W25163   8.675  14.455  14.520 -0.2208  0.0279  0.0898
 9090W        W25164  19.065   2.718  12.118  0.1747 -0.1905  0.0890
 9091W        W25165   9.779  15.823   0.173 -0.2522  0.1471 -0.0997
 9092W        W25166   0.047   4.205   3.227 -0.0605 -0.0611  0.1213
 9093W        W25167  15.214  12.441   3.416  0.0430 -0.2181  0.2144
 9094W        W25168  19.291   1.966   4.714 -0.0376 -0.1080 -0.3129
 9095W        W25169  10.968  18.356   2.517 -0.1065  0.0849 -0.0546
 9096W        W25170   9.186  16.078   0.651  0.0189 -0.0502 -0.2090
 9097W        W25171  14.071   1.462  12.173 -0.2980  0.3726 -0.1127
 9098W        W25172  16.110  19.302  12.841 -0.0912  0.2439  0.0415
 9099W        W25173  18.175  14.343   4.793 -0.1000 -0.2036 -0.1342
 9100W        W25174   8.065   0.624   4.394 -0.0391 -0.0538  0.3213
 9101W        W25175   6.603  13.701   1.695 -0.4504 -0.3848  0.0527
 9102W        W25176   4.156  15.186  10.583  0.0901 -0.4327 -0.1530
 9103W        W25177  11.383   2.891   4.544  0.0475 -0.0107  0.4356
 9104W        W25178   7.624  12.111   2.048 -0.1301  0.2688 -0.2263
 9105W        W25179   1.373   5.009   5.085  0.3201 -0.1099 -0.0262
 9106W        W25180   7.177   2.158   2.249 -0.1124 -0.2398  0.1713
 9107W        W25181  17.002   8.525   4.520 -0.0433 -0.0999 -0.1716
 9108W        W25182   6.927  17.493   0.971  0.4019 -0.0049 -0.1187
 9109W        W25183  14.434   9.136   4.024 -0.2233 -0.1043  0.1620
 9110W        W25184  16.188   2.866  13.160 -0.0064  0.0838 -0.2644
 9111W        W25185   0.746   8.382   1.825 -0.2103  0.0807 -0.1229
 9112W        W25186   5.793   4.170   4.551 -0.0950 -0.0053 -0.2759
 9113W        W25187  13.910  16.588   4.681 -0.0793  0.0320 -0.2865
 9114W        W25188   8.404   2.201   1.136 -0.3057  0.2684 -0.3931
 9115W        W25189  16.086   0.127   9.921  0.2783  0.0198  0.0799
 9116W        W25190   8.836   0.184   5.507 -0.0895 -0.1492 -0.2352
 9117W        W25191   1.647  14.355   2.944 -0.0345  0.2208 -0.0256
 9118W        W25192  16.962  17.149   3.400  0.1737 -0.4079  0.0381
 9119W        W25193   0.559  12.747   2.572 -0.0567  0.0241 -0.0687
 9120W        W25194   2.951   7.122   2.896  0.1018 -0.1263 -0.3676
 9121W        W25195   5.046   4.540   3.444 -0.1726  0.1378  0.0329
 9122W        W25196   1.175   4.025  11.231  0.0216  0.2635  0.2564
 9123W        W25197  15.740  18.287  11.300 -0.1742 -0.0541 -0.0362
 9124W        W25198  18.133  13.809   9.058  0.0085 -0.1376 -0.2299
 9125W        W25199   9.387   7.529  11.978 -0.3288 -0.0761 -0.0559
 9126W        W25200   4.356   2.038  11.211  0.0893  0.3223  0.1584
 9127W        W25201   6.573   2.229  10.370  0.0106 -0.1325  0.1865
 9128W        W25202  10.225   1.444   1.305 -0.3308 -0.0518  0.0480
 9129W        W25203   3.957  15.244  14.736  0.5581 -0.0600  0.4833
 9130W        W25204  11.816  16.440   1.661 -0.1025 -0.0257  0.3192
 9131W        W25205   8.642  13.326   3.569  0.0919  0.0830  0.0874
 9132W        W25206   8.040  16.513  10.633  0.0092 -0.2216  0.0525
 9133W        W25207  15.700   2.699  12.832 -0.0815  0.1745  0.0527
 9134W        W25208  17.425   7.446   5.056 -0.0169  0.2588  0.2497
 9135W        W25209  11.924  10.153  10.635  0.0291 -0.2670  0.0868
 9136W        W25210  15.577   9.869   1.430  0.2589 -0.0753  0.0591
 9137W        W25211  15.128  10.035  11.273 -0.3435  0.1675 -0.1490
 9138W        W25212   0.213  15.389   0.233 -0.1540  0.0269  0.1952
 9139W        W25213   4.883  16.296   0.567  0.5329  0.2648 -0.1697
 9140W        W25214  10.814   9.527   1.775  0.2861  0.3215 -0.2238
 9141W        W25215   1.099  19.221   4.269  0.0263 -0.0956  0.0500
 9142W        W25216  15.454   2.621  12.266  0.1123  0.2460  0.1253
 9143W        W25217   3.854   7.089  12.429 -0.2972  0.0030 -0.0126
 9144W        W25218  17.763  15.171  11.842 -0.0161  0.0748 -0.0673
 9145W        W25219   3.439  17.189  10.741 -0.0003  0.0241  0.1199
 9146W        W25220   9.995   1.030   2.508 -0.1850  0.0737 -0.1732
 9147W        W25221   4.654   5.743   3.117  0.2052 -0.1487 -0.0570
 9148W        W25222   1.233   9.605   4.816  0.1897  0.1336 -0.1232
 9149W        W25223  10.951   9.558   5.088 -0.0114 -0.2049  0.2439
 9150W        W25224  12.453  12.499  13.858 -0.1993  0.0205 -0.1823
 9151W        W25225   9.083   8.899   1.201 -0.0918 -0.1411 -0.0531
 9152W        W25226  16.272  19.090   1.490 -0.1368 -0.1202 -0.4208
 9153W        W25227  17.771  10.059   2.616  0.1023 -0.2079  0.0571
 9154W        W25228   7.613   7.093   0.819 -0.1400 -0.1248 -0.3293
 9155W        W25229  11.246  12.277   3.273  0.3147 -0.1917 -0.2691
 9156W        W25230  12.246   2.562   1.023  0.1279 -0.2348 -0.1924
 9157W        W25231   0.719   1.030  13.861 -0.2964  0.0405  0.2727
 9158W        W25232  13.599  14.715  11.288  0.2100  0.2624 -0.2188
 9159W        W25233  13.600  11.013  14.428 -0.1095 -0.4305  0.1439
 9160W        W25234   9.154   6.566   1.291  0.0337 -0.1160  0.1376
 9161W        W25235   7.014   7.673   4.833  0.2282 -0.3548 -0.0881
 9162W        W25236  15.731   6.027   1.856  0.2747 -0.0529  0.1948
 9163W        W25237  16.246   8.526  11.547 -0.1538  0.1066  0.1834
 9164W        W25238  16.693  10.299   2.864 -0.3889  0.0038  0.0430
 9165W        W25239   9.099   3.957  14.581 -0.0910 -0.0849  0.2154
 9166W        W25240  12.477   4.481   2.382 -0.0193  0.0994  0.0243
 9167W        W25241  15.861   9.656  11.696 -0.2492 -0.5463  0.1561
 9168W        W25242   1.577  12.454   3.425  0.0090 -0.0802 -0.2198
 9169W        W25243   8.318  17.726  14.318 -0.2571 -0.1261 -0.1919
 9170W        W25244   6.452   3.065  10.957 -0.2031  0.2211  0.3886
 9171W        W25245  10.308   9.899  14.831 -0.1853  0.1564  0.2435
 9172W        W25246  13.585  17.770   2.828  0.1287 -0.0444  0.3419
 9173W        W25247  11.218  19.147  11.426  0.0130  0.1557 -0.2575
 9174W        W25248  11.692   1.003  12.992  0.2415  0.1145 -0.0536
 9175W        W25249   5.689  13.560  12.369  0.0170  0.4053 -0.1072
 9176W        W25250   6.873   6.543   1.044  0.0620 -0.0272 -0.3171
 9177W        W25251  18.881  12.445   0.327  0.1502 -0.0680  0.0860
 9178W        W25252   6.410   6.972   2.931 -0.0001 -0.0514 -0.4414
 9179W        W25253  12.082  13.770  11.924  0.0415 -0.0230 -0.1233
 9180W        W25254  18.321  15.935  12.548 -0.1260  0.1733  0.2196
 9181W        W25255  11.331  18.657  13.216 -0.3823  0.3722  0.0450
 9182W        W25256   2.788  12.033   4.246  0.2790  0.1404 -0.0376
 9183W        W25257  16.777   6.433   4.406 -0.1202  0.3970  0.2668
 9184W        W25258   3.348   0.256   2.299  0.0123  0.1529  0.1782
 9185W        W25259  15.199  13.379   4.000 -0.0260  0.1765 -0.1682
 9186W        W25260   8.879  14.131  14.038  0.2340  0.0102  0.3083
 9187W        W25261  18.005   3.442   1.642  0.1173  0.0646  0.1571
 9188W        W25262  15.564   4.852  10.008 -0.3112  0.1559 -0.2068
 9189W        W25263  19.247   2.334  11.101 -0.0652  0.2574 -0.2201
 9190W        W25264  10.773  13.446   2.388  0.2560  0.0083  0.1066
 9191W        W25265   6.633  12.184   1.064  0.0826 -0.1091 -0.0760
 9192W        W25266   0.859   0.160   2.080 -0.0574  0.2444  0.0164
 9193W        W25267   8.024  18.642   1.621 -0.1114 -0.3191  0.1410
 9194W        W25268  10.572   9.941   3.744 -0.3312 -0.1347  0.0139
 9195W        W25269   9.179   5.011  13.251  0.1091 -0.2965 -0.4139
 9196W        W25270  15.335  18.819  11.285 -0.0071 -0.0675  0.0807
 9197W        W25271   0.549   3.202  11.774 -0.1001  0.1034 -0.1339
 9198W        W25272  18.384  11.827   0.266 -0.1786  0.2983  0.1266
 9199W        W25273   1.380   5.454   1.321 -0.0004  0.0507 -0.3257
 9200W        W25274   6.036   0.429   4.636 -0.0498 -0.3127  0.3318
 9201W        W25275  13.456  17.518  11.793 -0.0397 -0.0004  0.0998
 9202W        W25276  16.848  17.135   0.845 -0.3631 -0.6350 -0.0567
 9203W        W25277  13.195  13.120   3.124 -0.2180  0.4702 -0.0877
 9204W        W25278  12.328   5.932  13.763  0.0280 -0.1897 -0.2102
 9205W        W25279  12.107   6.356   3.710 -0.2210  0.0458 -0.0422
 9206W        W25280  14.859  19.258   3.050 -0.2449  0.0807  0.0440
 9207W        W25281   9.436  15.140   3.418  0.1763 -0.1335  0.0229
 9208W        W25282   5.402  14.498   2.771  0.1163 -0.1964 -0.2765
 9209W        W25283   6.999   2.686   6.052  0.0646 -0.1453 -0.0531
 9210W        W25284  14.682   9.973   4.037  0.1545  0.1086 -0.0614
 9211W        W25285  14.530   7.110  12.172  0.0289  0.0928 -0.1545
 9212W        W25286  13.000  12.404  13.561 -0.0219  0.0234 -0.2067
 9213W        W25287   1.947  16.822  12.773  0.1243  0.3586 -0.0623
 9214W        W25288  13.321  12.517   5.045  0.3869 -0.1859  0.1797
 9215W        W25289  15.069  10.968   1.272  0.0767  0.2621  0.0529
 9216W        W25290  17.423   2.177   0.168 -0.1023 -0.0434  0.0901
 9217W        W25291  17.830  14.042  12.286 -0.2164 -0.2814  0.0496
 9218W        W25292  11.238   4.443  14.885 -0.1909  0.0687  0.1933
 9219W        W25293   8.542   5.824   4.475 -0.2101  0.0639  0.1395
 9220W        W25294   3.877  15.605  10.758  0.2078 -0.3230  0.3306
 9221W        W25295  10.943  16.814   5.786 -0.0073  0.1661 -0.1154
 9222W        W25296  18.301  10.530   4.398  0.3126  0.0791  0.0747
 9223W        W25297  13.716   6.663   4.888 -0.1653 -0.1988 -0.0392
 9224W        W25298   9.155  19.264  12.320 -0.3399 -0.2697  0.0579
 9225W        W25299   1.193  10.103  12.367 -0.0995 -0.1061  0.1124
 9226W        W25300   8.489   0.652  12.558  0.3836  0.3682 -0.0825
 9227W        W25301  14.257   2.235   1.281  0.1682  0.0240  0.0678
 9228W        W25302   8.488   1.208  14.125 -0.0633 -0.1540  0.0049
 9229W        W25303   6.477   0.097   2.134 -0.0737  0.0900  0.2269
 9230W        W25304  14.900  11.417  11.120 -0.0332  0.3093 -0.3713
 9231W        W25305   2.669  10.446  12.410 -0.1764  0.1314  0.2781
 9232W        W25306  18.464  13.771   4.020  0.1332  0.0231 -0.2530
 9233W        W25307  10.342  12.815  11.273  0.1485 -0.0465 -0.2625
 9234W        W25308  14.486  15.504   1.959 -0.0477  0.2436 -0.0358
 9235W        W25309   1.285   9.698  13.721  0.0050 -0.2128 -0.2740
 9236W        W25310   5.863   4.385   1.714  0.1515  0.1079  0.1149
 9237W        W25311   0.412   5.683   0.619  0.2627 -0.0281  0.1441
 9238W        W25312   1.876   3.095   2.788 -0.0180 -0.1266  0.2154
 9239W        W25313   5.663  13.025  12.405  0.1309  0.0699 -0.1925
 9240W        W25314  11.586   8.840   2.048  0.2615  0.0251  0.2180
 9241W        W25315  13.403  13.851   2.744 -0.1641  0.0155  0.0067
 9242W        W25316   7.961   3.193   3.513  0.1786 -0.0586  0.3007
 9243W        W25317  18.905   8.165   2.852 -0.2867 -0.1123 -0.2692
 9244W        W25318   2.350   1.395   0.257 -0.0836 -0.3706 -0.0854
 9245W        W25319   9.699  14.707  13.380  0.2557  0.2115 -0.0691
 9246W        W25320   6.408  10.253   3.431  0.4087  0.1393 -0.1153
 9247W        W25321  11.522  15.915  14.303 -0.0171  0.2991 -0.0184
 9248W        W25322  16.196  19.231  11.920 -0.2590 -0.2787 -0.0418
 9249W        W25323   9.702   1.212   3.816  0.0096  0.1535  0.1886
 9250W        W25324   9.057   6.124  12.503 -0.0823  0.0275  0.0621
 9251W        W25325  17.919  10.068  11.327  0.1189  0.0035  0.1077
 9252W        W25326   7.025   8.496   3.249  0.3625 -0.0355 -0.0235
 9253W        W25327   6.752  10.938  10.780 -0.1969  0.2016 -0.0913
 9254W        W25328   6.834  14.264   3.957 -0.0127  0.1353  0.1560
 9255W        W25329   0.821   8.310   4.970 -0.3653  0.1171  0.2423
 9256W        W25330  19.220  15.418  14.527 -0.0414 -0.0412 -0.1542
 9257W        W25331   8.958  19.061   0.720  0.0032  0.0288 -0.0460
 9258W        W25332  15.861  13.856   1.072 -0.1527  0.0093 -0.1219
 9259W        W25333  14.884   1.806   9.692  0.1216 -0.1973  0.0530
 9260W        W25334   4.492   1.788   1.031 -0.0239  0.1204  0.3739
 9261W        W25335  18.537  15.374   0.431 -0.0023  0.0318  0.1528
 9262W        W25336   0.883  13.574   4.394  0.1469  0.0924 -0.0396
 9263W        W25337   8.103   3.554   0.031  0.2729  0.0078 -0.1714
 9264W        W25338   3.026  13.273  12.767  0.0720 -0.0768  0.1636
 9265W        W25339  14.556   8.526  14.344  0.0225 -0.0813 -0.5534
 9266W        W25340   4.858  19.225   2.054 -0.3816 -0.0189  0.2684
 9267W        W25341  14.711  11.051   3.949 -0.0824 -0.3424 -0.1463
 9268W        W25342   2.912   8.315  14.119 -0.0597  0.3642  0.0114
 9269W        W25343   7.894  13.233  13.831  0.0963 -0.0842  0.2561
 9270W        W25344  19.025   2.253   4.446  0.1027  0.2755  0.3271
 9271W        W25345  18.294  11.866   4.408  0.1351 -0.2094  0.1125
 9272W        W25346  19.203  16.077   3.189  0.0418  0.1507  0.0378
 9273W        W25347  15.592   5.417   5.380  0.2689  0.0567  0.0888
 9274W        W25348   5.471  10.161   1.763 -0.0331  0.1450  0.0566
 9275W        W25349   9.868  12.176  10.861 -0.1980  0.0410  0.0128
 9276W        W25350   7.489   2.532   5.602  0.0745  0.0395  0.0748
 9277W        W25351  17.955   3.359  13.940  0.5992  0.1502 -0.0820
 9278W        W25352  18.191   8.379   5.118 -0.1776 -0.0584  0.1378
 9279W        W25353  16.135   9.509  12.668  0.2852 -0.1742  0.6650
 9280W        W25354   9.355   0.269  14.915 -0.0177 -0.2319  0.1543
 9281W        W25355  11.792   5.056  14.473  0.1888 -0.1331  0.0135
 9282W        W25356   1.620   6.412  12.007  0.3229  0.1484 -0.3620
 9283W        W25357  17.692  13.944   2.040  0.1588  0.0976  0.0262
 9284W        W25358  10.696  18.252   4.353  0.3007 -0.2885 -0.2406
 9285W        W25359  18.622  14.853  13.440 -0.0182  0.0696 -0.1692
 9286W        W25360  16.426   0.359  12.055  0.0612  0.0997  0.0015
 9287W        W25361   9.113  15.456  14.740  0.3031  0.2128  0.2332
 9288W        W25362  10.017  14.607   2.656  0.3678  0.0412 -0.0380
 9289W        W25363  12.843   1.745   5.124  0.1258  0.0980  0.0271
 9290W        W25364  13.139  17.390  10.416 -0.0237  0.2648 -0.2303
 9291W        W25365  17.845  11.639   9.148  0.2009 -0.1349 -0.0463
 9292W        W25366   7.050   0.847   1.444 -0.1407  0.1918  0.3603
 9293W        W25367   4.509  15.292  11.684  0.0544 -0.1273  0.3092
 9294W        W25368  11.524  11.343  14.715  0.0466 -0.2105  0.2204
 9295W        W25369  10.689  10.432   1.710 -0.0098  0.1370  0.0464
 9296W        W25370  14.509   7.100   2.794  0.0417  0.0290  0.1939
 9297W        W25371  13.081   4.912   4.202  0.0822 -0.2050  0.0691
 9298W        W25372   1.178  14.420  11.491  0.1693  0.1000 -0.0729
 9299W        W25373   9.061  17.170  12.914  0.1641 -0.2073  0.1686
 9300W        W25374   8.662   9.406  13.477 -0.1149  0.0907  0.1878
 9301W        W25375  17.218  17.149   2.774  0.0484  0.2100 -0.1888
 9302W        W25376   3.945  18.552   4.484  0.3160  0.2868  0.1036
 9303W        W25377   4.606  17.376  11.800 -0.1605  0.1907  0.1798
 9304W        W25378  17.293   2.208   4.270 -0.1043 -0.2801 -0.0363
 9305W        W25379   4.069   5.646   4.962 -0.1167  0.0386  0.0704
 9306W        W25380  17.490  17.532  10.106 -0.0377  0.1755 -0.2908
 9307W        W25381   0.545  14.033   3.502  0.1193 -0.4447  0.0199
 9308W        W25382   9.769   2.339   5.179 -0.0843  0.2781 -0.2630
 9309W        W25383  13.505   9.327   4.951 -0.1223  0.1120  0.1450
 9310W        W25384   3.046  15.861  13.790 -0.2184 -0.0351 -0.4157
 9311W        W25385   9.339  17.422  12.034  0.0272  0.1114 -0.1614
 9312W        W25386   7.512  15.413   0.776  0.2250 -0.2542 -0.2826
 9313W        W25387   9.060   1.555  11.770 -0.0122 -0.1681  0.1751
 9314W        W25388  12.071  16.948  11.497  0.0388 -0.0103  0.0885
 9315W        W25389  13.257  11.181   5.081 -0.2878  0.4559 -0.0854
 9316W        W25390  10.172   5.161  12.975  0.2297  0.0858 -0.0021
 9317W        W25391   3.626   7.329   2.759  0.2368 -0.0544  0.1723
 9318W        W25392   5.502  10.775  10.642 -0.1545 -0.2939 -0.0690
 9319W        W25393   3.618   1.768   3.393  0.3493  0.1120  0.1563
 9320W        W25394  14.345  13.318   4.633 -0.0866 -0.3638 -0.0930
 9321W        W25395  18.285   6.816   3.441  0.0301 -0.0554 -0.2383
 9322W        W25396   4.489   1.893  11.672 -0.2358 -0.1078 -0.0507
 9323W        W25397  17.032   7.862  14.661 -0.2035 -0.2127  0.0258
 9324W        W25398   3.350  14.455  12.356 -0.1708 -0.0649 -0.1875
 9325W        W25399   4.836  13.483  14.025 -0.2263  0.3164 -0.1248
 9326W        W25400  15.438   1.843  14.411 -0.2929  0.1995  0.2024
 9327W        W25401   0.552  10.744   1.352 -0.1347  0.1609 -0.0870
 9328W        W25402   1.089   8.131   2.794 -0.0403 -0.0654 -0.2227
 9329W        W25403  19.277   8.669   4.114  0.3275  0.4306 -0.1109
 9330W        W25404  11.819   6.036  13.660  0.3832  0.1493 -0.3050
 9331W        W25405   6.372   7.075   4.899 -0.4311  0.0296  0.2435
 9332W        W25406   0.735   2.802  12.699  0.2643  0.1347 -0.1255
 9333W        W25407   2.651  18.180   0.673  0.0441 -0.2526  0.1309
 9334W        W25408   0.973   2.028   3.685  0.0939  0.1875 -0.3346
 9335W        W25409   0.338  16.800   4.945 -0.2396 -0.1140  0.2836
 9336W        W25410  14.184   2.349  14.116 -0.0870 -0.2383  0.2269
 9337W        W25411  15.329   0.998   2.305  0.1203 -0.0277  0.0647
 9338W        W25412  15.850   7.127  14.997  0.1123 -0.3402 -0.3176
 9339W        W25413   5.967  12.743  10.036 -0.2650  0.0743 -0.3327
 9340W        W25414  18.730  12.326  12.217  0.3660  0.3007 -0.0156
 9341W        W25415  14.046  10.175  14.505  0.1010 -0.1464 -0.1583
 9342W        W25416   0.038   0.130  11.495  0.0471  0.0363 -0.0264
 9343W        W25417   3.585   1.124  14.201 -0.0427 -0.0414 -0.0776
 9344W        W25418   4.804  15.354  13.631  0.0490 -0.1611  0.2314
 9345W        W25419   7.016   4.711  14.574  0.0208  0.3318 -0.1258
 9346W        W25420   7.698   9.784   5.313  0.1335  0.3431 -0.1752
 9347W        W25421  10.114   9.296   2.647  0.1076  0.1254  0.1357
 9348W        W25422  10.710   6.337   5.055  0.2279 -0.1773 -0.0741
 9349W        W25423   5.213  12.076  13.268 -0.0626 -0.0701  0.1694
 9350W        W25424  12.784   0.482  14.480  0.2787  0.1226 -0.1992
 9351W        W25425  13.830  12.376   2.201  0.2213  0.1595  0.1140
 9352W        W25426   4.531   1.242  14.555  0.3012 -0.1099 -0.0173
 9353W        W25427   8.246  13.505   3.785  0.0401  0.4301 -0.0630
 9354W        W25428   7.790   3.538   4.897  0.1742  0.0201 -0.0988
 9355W        W25429  10.828  13.256  11.812 -0.1580 -0.2037  0.0984
 9356W        W25430   8.161  14.723   3.044 -0.0250  0.0908 -0.0686
 9357W        W25431  17.253  14.991  11.598  0.2431  0.1955 -0.2421
 9358W        W25432   7.340  17.413   2.883 -0.1543 -0.1215 -0.2757
 9359W        W25433  14.557  15.928  11.399  0.2556  0.2349  0.1234
 9360W        W25434   8.211   8.516  14.529 -0.0642  0.3890  0.1862
 9361W        W25435  17.950   4.925   2.386  0.0075 -0.0628 -0.1576
 9362W        W25436   0.963  15.720  14.691 -0.1655 -0.0482 -0.0273
 9363W        W25437   5.428  17.645   4.580  0.1230 -0.0916  0.2970
 9364W        W25438   3.430  11.068   0.366  0.1152 -0.1683  0.1893
 9365W        W25439   3.661   6.656  12.207  0.0479 -0.1330  0.0429
 9366W        W25440   1.083  17.166  11.742 -0.2161 -0.1515  0.1122
 9367W        W25441  10.639   8.083   5.470  0.0450  0.2842  0.0819
 9368W        W25442   3.160   1.763   0.133  0.1027  0.0057 -0.2318
 9369W        W25443   6.552   8.531  11.212  0.5265  0.0956 -0.2944
 9370W        W25444  10.550  10.314   4.085 -0.0923 -0.4735  0.3905
 9371W        W25445   7.199  14.540   3.583  0.1670 -0.0175  0.3090
 9372W        W25446  17.022  12.832  14.747  0.2109  0.0722  0.1449
 9373W        W25447  13.225   1.445  11.786 -0.1554  0.0259 -0.0418
 9374W        W25448  17.479   6.617   4.218  0.0102 -0.0710  0.1585
 9375W        W25449   8.279  11.071  14.514 -0.0918 -0.1148 -0.2304
 9376W        W25450  15.936  16.298   1.820 -0.0524  0.0871 -0.0184
 9377W        W25451  18.822  12.669  13.448 -0.0560 -0.0144  0.0190
 9378W        W25452   9.659   3.480  12.391  0.2495 -0.1618 -0.0385
 9379W        W25453   4.706   0.550   4.370 -0.1790  0.1027  0.3264
 9380W        W25454   4.841   2.837  12.768 -0.0386  0.1997  0.5271
 9381W        W25455   3.038  15.573  14.194 -0.2468  0.2887  0.0348
 9382W        W25456   6.529   9.380   6.124 -0.2137  0.2067  0.2756
 9383W        W25457   3.414  11.972  12.161  0.0747 -0.1166 -0.1553
 9384W        W25458   9.474  17.785   2.347  0.1551  0.0671  0.2780
 9385W        W25459   4.373  13.461   0.454 -0.5145 -0.3734 -0.0027
 9386W        W25460  18.984  11.530  14.053  0.0461 -0.0594 -0.3375
 9387W        W25461  10.792  17.045  13.881  0.1382  0.1445 -0.3151
 9388W        W25462  19.164  10.134  13.845 -0.0529  0.0054  0.2028
 9389W        W25463  10.554   7.155  12.482 -0.0059 -0.0600 -0.1032
 9390W        W25464  16.912  16.130   0.712 -0.1869 -0.0416 -0.2435
 9391W        W25465  13.417   4.193   1.990  0.0038 -0.0477 -0.1500
 9392W        W25466   1.395  14.325  10.162  0.2648  0.1700  0.0946
 9393W        W25467  16.781   0.432  11.290  0.0575  0.4346  0.0129
 9394W        W25468   3.271  17.705   1.811 -0.0408 -0.0429  0.1634
 9395W        W25469   3.306   6.348   2.663  0.5225 -0.1425  0.0590
 9396W        W25470  11.899  15.029   3.794  0.0630  0.1863  0.2973
 9397W        W25471   6.514  16.631   2.070  0.5269  0.1653  0.2045
 9398W        W25472   0.627  14.445  11.406 -0.5521  0.1266 -0.3911
 9399W        W25473   1.217  17.614  10.263  0.0851 -0.0201  0.3106
 9400W        W25474   0.943  12.965  10.735 -0.1309 -0.0675  0.1072
 9401W        W25475  15.234   4.069  14.476  0.2032  0.2110 -0.2988
 9402W        W25476   6.593  13.161   1.382  0.0268  0.2632  0.2508
 9403W        W25477   9.463   3.993  14.933  0.1972 -0.0123 -0.2262
 9404W        W25478  11.440  18.136   2.434 -0.0098  0.1418  0.1987
 9405W        W25479  14.124   0.116  11.766  0.0733  0.1203  0.0819
 9406W        W25480   0.944  19.302   3.390  0.1127 -0.3154  0.1244
 9407W        W25481   1.959   1.732  14.381 -0.1173 -0.2002  0.0213
 9408W        W25482   8.956  15.180  10.496 -0.1823  0.2333 -0.1688
 9409W        W25483  13.730  10.666   3.783  0.0046 -0.1402  0.0413
 9410W        W25484   2.970  14.924  14.981  0.0308 -0.4549  0.1103
 9411W        W25485  12.731   8.117  11.627 -0.0009  0.0599 -0.0477
 9412W        W25486  17.040   5.163   4.985  0.3238  0.1439 -0.0530
 9413W        W25487  12.688   7.584  11.994  0.3993 -0.4927  0.2570
 9414W        W25488  19.100   8.346   1.544  0.0731 -0.2043  0.0679
 9415W        W25489  14.081   4.739   4.331 -0.2525 -0.1069 -0.1521
 9416W        W25490  15.083  12.531   1.416  0.2217  0.1756 -0.1675
 9417W        W25491  19.024   7.015  15.026  0.1643  0.1648  0.1472
 9418W        W25492  17.083   0.792  12.858  0.0721  0.1188  0.1476
 9419W        W25493   1.428   7.681   1.180 -0.0740 -0.1025  0.2147
 9420W        W25494  10.673   4.903   4.553  0.4521 -0.3176 -0.0707
 9421W        W25495   6.474  14.957  13.944 -0.1272 -0.1168 -0.0260
 9422W        W25496  11.260   1.773   2.891 -0.1872  0.0116  0.0414
 9423W        W25497   9.113  11.760   0.563 -0.1914  0.2328 -0.2219
 9424W        W25498   7.380   9.076   0.230 -0.0039  0.4244  0.5022
 9425W        W25499  15.404   4.282  13.639  0.0800  0.0560  0.2036
 9426W        W25500  17.553   5.239   5.085 -0.0519  0.0807  0.0758
 9427W        W25501  15.613  14.704   0.149 -0.2502 -0.0376 -0.1773
 9428W        W25502  18.167   2.402  11.589  0.0738 -0.0709  0.0855
 9429W        W25503  18.369   6.014  12.087 -0.1435  0.2810 -0.0520
 9430W        W25504  10.167   6.917   1.823  0.0684 -0.0389  0.2713
 9431W        W25505   0.350   7.839  13.888 -0.1974  0.0059 -0.0761
 9432W        W25506   3.135   2.702   2.064  0.2101 -0.1861 -0.2479
 9433W        W25507   3.937   2.763  13.325  0.0468  0.1934  0.0877
 9434W        W25508   9.643  12.204   3.836 -0.1455 -0.1935  0.1966
 9435W        W25509  13.711   3.499  13.185 -0.1040 -0.0163  0.3184
 9436W        W25510  19.254   6.102   9.612 -0.4560  0.1529 -0.0258
 9437W        W25511   6.750  10.956   0.654  0.3300  0.2485  0.1417
 9438W        W25512   9.514  13.561   4.803 -0.1293  0.1870 -0.2110
 9439W        W25513  10.099   5.498   3.580  0.0703 -0.2014  0.0182
 9440W        W25514  13.630  12.895   3.337 -0.0177  0.3694  0.0558
 9441W        W25515  16.976  14.453  11.463 -0.2282  0.1082  0.0853
 9442W        W25516  10.490  13.605   4.663 -0.2045 -0.3159  0.1327
 9443W        W25517   5.855   8.690   2.981 -0.0469  0.0349  0.2428
 9444W        W25518   1.219  11.326  14.442 -0.0999 -0.0386  0.1975
 9445W        W25519   1.145  17.191   0.125  0.1807  0.2523  0.2198
 9446W        W25520  16.312  12.124   1.524 -0.1092 -0.4055  0.1781
 9447W        W25521  15.322  18.937   2.808  0.0410 -0.1179  0.2716
 9448W        W25522  12.153  12.870   0.867 -0.1170  0.1246  0.2190
 9449W        W25523   9.538  12.483   1.337  0.4121  0.1955 -0.1367
 9450W        W25524  15.332  19.060   0.865  0.0899 -0.0419 -0.5237
 9451W        W25525   7.131  13.232   2.708 -0.1166 -0.0302  0.1133
 9452W        W25526  10.454  17.648  11.130 -0.3459 -0.1556 -0.1847
 9453W        W25527  15.447  17.460   1.819 -0.2149 -0.2934  0.0853
 9454W        W25528   5.646   6.526   1.783  0.0043  0.3199  0.1585
 9455W        W25529  11.131   9.927   3.392 -0.1614 -0.1513 -0.2223
 9456W        W25530   8.073  11.637  13.924  0.0501  0.2833  0.1347
 9457W        W25531  15.778   4.041   4.090 -0.3157 -0.0836 -0.0487
 9458W        W25532  10.363   0.291   3.662  0.0693  0.0054 -0.1538
 9459W        W25533   3.559   8.128  11.064  0.0699  0.0138  0.0541
 9460W        W25534   8.856   4.495   4.145 -0.1818  0.1335  0.3236
 9461W        W25535  15.804  13.796  10.807  0.2921  0.1730 -0.0013
 9462W        W25536  18.935  18.096   3.068 -0.3215  0.4396 -0.0894
 9463W        W25537  11.939   7.953   2.585 -0.0959  0.2175 -0.0506
 9464W        W25538   2.825   9.897   2.880 -0.4370  0.0656  0.4445
 9465W        W25539  12.516   7.920   3.928  0.2130  0.0355 -0.0683
 9466W        W25540  15.085   7.602   0.442 -0.1113 -0.1398  0.2088
 9467W        W25541  18.303  15.866   2.340 -0.0350 -0.1962 -0.1749
 9468W        W25542  16.325  14.348  12.727 -0.0290 -0.1254 -0.0418
 9469W        W25543  16.046   8.102  11.790  0.2018  0.0096  0.0662
 9470W        W25544   0.299  15.789   2.958  0.2213  0.1385  0.3484
 9471W        W25545   5.840  15.665  13.662  0.1299 -0.2299  0.0603
 9472W        W25546   2.173  14.887   1.285 -0.0648  0.5780 -0.3073
 9473W        W25547  18.836   7.201   4.880  0.1818 -0.4093 -0.1027
 9474W        W25548  15.459  13.103   5.407  0.0119  0.2309  0.0176
 9475W        W25549  11.717   5.660   1.107 -0.0520 -0.4006  0.1971
 9476W        W25550   5.378   2.814   3.583  0.0528  0.0377 -0.0978
 9477W        W25551  17.794   4.032  13.424 -0.3052  0.2256  0.0979
 9478W        W25552  11.411   2.241   3.298 -0.1086 -0.0699 -0.1860
 9479W        W25553   9.482  12.603   2.310 -0.2775  0.0970  0.0319
 9480W        W25554   5.529   4.822  11.302 -0.0677  0.2628  0.1622
 9481W        W25555  16.792  14.215  12.670  0.0192  0.0133  0.1300
 9482W        W25556  14.117   0.016   0.932  0.2623 -0.0394  0.1013
 9483W        W25557  10.930  18.812  11.169 -0.2537 -0.1036 -0.1169
 9484W        W25558  15.923   1.427  11.679 -0.3295 -0.0008 -0.1150
 9485W        W25559   8.788  17.800  13.284 -0.0113 -0.3744  0.0047
 9486W        W25560  11.926  10.151   5.139 -0.3046 -0.0146 -0.0294
 9487W        W25561   5.324   1.892  12.601 -0.2064 -0.1021 -0.1158
 9488W        W25562   0.329   9.282  12.156  0.1302 -0.1828 -0.0116
 9489W        W25563  17.193   7.320   1.835 -0.2064 -0.0610 -0.0497
 9490W        W25564  18.690   6.625   3.729 -0.2119 -0.1710 -0.1771
 9491W        W25565   1.565  16.691  10.620 -0.0067 -0.2155  0.0324
 9492W        W25566  13.446   5.073   3.930  0.0650 -0.0332 -0.0012
 9493W        W25567   2.874   7.213   4.315  0.0161 -0.0932  0.0523
 9494W        W25568   5.694   9.250   5.755  0.0941 -0.1013 -0.0751
 9495W        W25569  13.670  11.566  13.286 -0.1425 -0.0047  0.2195
 9496W        W25570  12.544  13.719  13.061  0.3553  0.1063 -0.2693
 9497W        W25571   5.723  17.638   5.517 -0.2382 -0.0311 -0.5029
 9498W        W25572  14.775   8.820  11.711  0.0484 -0.0868  0.2687
 9499W        W25573  17.569  17.262   8.800  0.3763  0.0835 -0.3974
 9500W        W25574  11.071   6.990  11.998 -0.1462  0.1990  0.3343
 9501W        W25575  11.280   7.574  14.447  0.1528 -0.0637 -0.0233
 9502W        W25576  15.100   1.859   3.360 -0.1376 -0.1325 -0.2252
 9503W        W25577   0.677  12.494   3.397  0.0403  0.1404 -0.1409
 9504W        W25578   0.441   1.498   1.993 -0.0445  0.1955  0.0365
 9505W        W25579  18.978   3.472  11.410 -0.1141  0.1424  0.2026
 9506W        W25580  11.949   4.997  13.940  0.0771  0.1447  0.0053
 9507W        W25581  10.414   5.946  13.913 -0.0376  0.4211 -0.1198
 9508W        W25582   1.964   2.716   2.020  0.5116 -0.0776  0.1160
 9509W        W25583   1.957  12.056   1.587  0.1814 -0.1608 -0.1433
 9510W        W25584   4.625  17.994   3.798  0.1313  0.0669 -0.0504
 9511W        W25585   5.685  16.696   4.502  0.1985 -0.2780 -0.0372
 9512W        W25586  15.121  14.650   2.822 -0.3206  0.0517 -0.1848
 9513W        W25587   0.417  14.843   2.057  0.0150 -0.0245  0.2467
 9514W        W25588   5.565  15.076   7.535 -0.1982  0.3227 -0.0934
 9515W        W25589  15.535  12.258  12.169  0.0815 -0.1117  0.1801
 9516W        W25590  12.693  17.845   2.902  0.1959  0.3066 -0.1064
 9517W        W25591  15.812   2.104  14.062  0.0265 -0.0864  0.0548
 9518W        W25592  17.419   9.699  12.204  0.2720 -0.2032  0.2554
 9519W        W25593   4.133  11.713   0.814  0.0247 -0.1041 -0.1682
 9520W        W25594  12.680  10.619  10.783 -0.1848  0.0008  0.3996
 9521W        W25595   3.188   4.503   4.394 -0.2922  0.2728 -0.1571
 9522W        W25596  13.464   4.602   0.761  0.1849  0.1517 -0.2046
 9523W        W25597  15.410   9.148   2.158 -0.0409  0.0991 -0.2108
 9524W        W25598   4.578   3.394   2.634 -0.3893  0.1169 -0.0357
 9525W        W25599  17.602   0.793  12.818 -0.0780  0.1025  0.2784
 9526W        W25600  17.631   3.174   3.768  0.0890 -0.4233 -0.2926
 9527W        W25601   5.549   2.289   2.542  0.0357 -0.1899 -0.0026
 9528W        W25602  15.981   2.334   2.303  0.0993  0.1068 -0.1089
 9529W        W25603   9.448  18.760   3.500 -0.3224 -0.0019  0.0430
 9530W        W25604   5.559   1.086  11.325 -0.1640  0.2034 -0.2136
 9531W        W25605  17.215  14.130   1.007 -0.2244  0.0320 -0.0113
 9532W        W25606   7.729  13.827   0.310  0.2039  0.0104 -0.0707
 9533W        W25607  12.583  17.120   4.627  0.1723 -0.1927  0.0814
 9534W        W25608   7.172   1.629   5.111 -0.3124  0.2734 -0.2691
 9535W        W25609   7.070   2.196  14.096  0.0690 -0.2451 -0.0557
 9536W        W25610  18.668   8.388   4.441 -0.2912 -0.3325 -0.1377
 9537W        W25611  12.425  14.294   1.564  0.0225  0.0745  0.2417
 9538W        W25612   9.888   0.736   3.536 -0.1025 -0.0704 -0.0125
 9539W        W25613   0.595  12.885   3.114 -0.2708 -0.0833 -0.2512
 9540W        W25614  17.601   0.654   0.257 -0.1330  0.1043  0.1832
 9541W        W25615   4.911   2.576   3.364  0.0603 -0.1330  0.0704
 9542W        W25616   0.644   3.812  11.822 -0.1757  0.3762  0.0698
 9543W        W25617   1.925  17.747  13.855 -0.0008  0.0048  0.0426
 9544W        W25618   5.775   3.533   1.755 -0.0442 -0.2324 -0.0872
 9545W        W25619  11.099  11.468  13.177 -0.0513  0.1032 -0.0609
 9546W        W25620  17.453  11.218   2.485  0.1287 -0.2597 -0.2226
 9547W        W25621   6.344  13.315  11.387 -0.2587  0.0142 -0.2345
 9548W        W25622  11.690   6.569  10.619 -0.1206 -0.2617  0.0972
 9549W        W25623  14.713   8.120   0.315  0.1995  0.0784  0.2844
 9550W        W25624   9.815  17.348   2.251  0.1568  0.2548  0.1837
 9551W        W25625  13.185  12.559   4.568 -0.2690 -0.2014 -0.0803
 9552W        W25626  12.802  16.181   0.727  0.0348  0.1337  0.0259
 9553W        W25627  16.195  11.032  14.370  0.0317  0.3384 -0.1956
 9554W        W25628  17.545   1.465  13.467  0.1459 -0.0035 -0.3385
 9555W        W25629  18.518  12.486  14.534  0.3245 -0.0798 -0.0797
 9556W        W25630   1.815  17.055   1.451  0.5767  0.0749  0.1440
 9557W        W25631  15.309   9.047   3.194  0.1137  0.2518 -0.0682
 9558W        W25632   1.323   7.578   4.235 -0.2781  0.1362  0.0721
 9559W        W25633  16.649  18.631   4.024  0.1520  0.1307  0.0112
 9560W        W25634  16.164  12.709   0.249  0.0678  0.4147 -0.1127
 9561W        W25635  13.424   0.314  10.476 -0.2005  0.0412  0.1039
 9562W        W25636  12.040   7.704   1.956 -0.2414 -0.1125 -0.1312
 9563W        W25637  12.309   9.368  13.068  0.0642 -0.0349 -0.1414
 9564W        W25638  14.017   7.248  13.017 -0.0246 -0.2427 -0.0130
 9565W        W25639  13.483   7.488  13.037 -0.0956  0.0991  0.2360
 9566W        W25640  14.336   9.498   1.428 -0.0522 -0.1977 -0.1748
 9567W        W25641   0.255  14.691  12.833 -0.1306  0.1389  0.2602
 9568W        W25642  10.063   6.263   1.320  0.3125 -0.3404  0.1145
 9569W        W25643  14.978   0.711   2.666  0.0014 -0.0017  0.3043
 9570W        W25644  11.692  12.669   2.309 -0.0587 -0.0458 -0.0591
 9571W        W25645   4.731  18.465   3.150  0.0533  0.0401 -0.0032
 9572W        W25646  11.795  17.755  11.176  0.2480 -0.0512 -0.0048
 9573W        W25647  18.305   3.521  12.684  0.1667 -0.2832  0.0935
 9574W        W25648   2.420   7.114   3.208  0.3717 -0.0005  0.0989
 9575W        W25649   3.784   8.428  10.609  0.0823 -0.0156 -0.1097
 9576W        W25650  18.044   6.919  12.018 -0.0085  0.0972 -0.0762
 9577W        W25651  13.267   6.651   2.773 -0.1847  0.3211 -0.2156
 9578W        W25652   9.012  13.989   1.310 -0.1650  0.1133  0.5241
 9579W        W25653  14.235  14.669  12.387  0.0710  0.2952 -0.1344
 9580W        W25654   0.983   2.950  14.349  0.4284 -0.1182 -0.3038
 9581W        W25655   1.199   5.379  10.282  0.1047 -0.2167 -0.0544
 9582W        W25656   7.499   3.820  13.805 -0.2695 -0.2780 -0.1024
 9583W        W25657   8.532  11.765  13.084 -0.0790 -0.2305  0.1355
 9584W        W25658  14.165   3.708  10.415 -0.0945 -0.2534 -0.0278
 9585W        W25659   4.787  18.739  10.801 -0.0055 -0.1652  0.1413
 9586W        W25660  10.818   9.309  10.769  0.0356  0.0582  0.1371
 9587W        W25661   1.152   2.491   0.669 -0.0762  0.0028 -0.0613
 9588W        W25662  17.163  15.931   4.130  0.0787 -0.0110  0.1780
 9589W        W25663   2.730  16.599  12.522  0.0651 -0.0893 -0.1341
 9590W        W25664  11.186  16.872  11.857  0.1103 -0.1719 -0.0099
 9591W        W25665  10.430   5.646   3.899  0.0372  0.1542  0.1067
 9592W        W25666  16.019  15.366   9.979 -0.0967  0.1682 -0.2084
 9593W        W25667  12.706  19.305   2.918  0.2485  0.0467  0.0851
 9594W        W25668   1.746  17.378  12.642  0.1196  0.2423  0.2416
 9595W        W25669   2.795   3.064  13.539 -0.0992 -0.1554 -0.3248
 9596W        W25670   0.161   3.290  13.284 -0.1161  0.3282  0.1750
 9597W        W25671   7.625  11.854  14.502  0.4273  0.2158 -0.3198
 9598W        W25672  15.135   2.569  10.441  0.1207 -0.0259  0.1223
 9599W        W25673   2.744  14.823  13.584  0.1905 -0.4971 -0.1767
 9600W        W25674  13.182  18.964  10.694 -0.6848  0.0894 -0.0252
 9601W        W25675   4.133   8.790  12.391  0.0322 -0.2296 -0.0018
 9602W        W25676  14.599  16.094   4.676 -0.0352  0.2063 -0.0723
 9603W        W25677  16.670  12.661   2.223 -0.2228 -0.1004  0.0214
 9604W        W25678   1.800   6.495  10.031  0.1923 -0.3076  0.2147
 9605W        W25679   1.003   9.250  10.918 -0.4721  0.1375  0.0546
 9606W        W25680  13.985  10.310   4.715 -0.2153 -0.0086  0.1892
 9607W        W25681  16.684   8.039  12.363  0.1758 -0.0699  0.3540
 9608W        W25682   8.131  12.626  11.708  0.2517 -0.2359  0.0516
 9609W        W25683  12.167   4.543  11.831  0.1602  0.2655 -0.1524
 9610W        W25684  16.964   8.317   5.160 -0.0802  0.0594 -0.1463
 9611W        W25685  13.844   8.382  13.898  0.2297 -0.3807 -0.1743
 9612W        W25686  13.872  15.983  11.980  0.0188  0.0883  0.2900
 9613W        W25687  14.216   2.585   1.886 -0.1685 -0.1365  0.2401
 9614W        W25688   9.746   3.348   4.492 -0.0516  0.1710 -0.0147
 9615W        W25689  13.149  16.430   9.661  0.0274  0.3311  0.0997
 9616W        W25690   5.826   2.258   2.982 -0.1434  0.1736  0.1294
 9617W        W25691   4.804  11.468   3.933 -0.1295 -0.0031 -0.0904
 9618W        W25692   2.695  17.248   4.517 -0.0101  0.1057  0.2818
 9619W        W25693  13.009  19.153  12.479  0.0508  0.0007  0.4817
 9620W        W25694   0.371   6.398  10.811 -0.4396  0.0698 -0.1135
 9621W        W25695  18.357  18.724   5.231  0.0595 -0.1447 -0.1392
 9622W        W25696  18.909   7.186  12.059 -0.0145 -0.0143  0.3367
 9623W        W25697  16.185   1.141   2.459  0.3093  0.0372  0.1531
 9624W        W25698  12.151  15.731  13.889  0.0410  0.6494  0.0046
 9625W        W25699   2.348  16.115  10.869  0.2638 -0.1952  0.0690
 9626W        W25700   9.147   5.514  12.990 -0.0603  0.0255 -0.1742
 9627W        W25701   7.816  15.842   3.701 -0.0413 -0.1340  0.1493
 9628W        W25702  10.681  15.239   3.025 -0.0150  0.1114 -0.1586
 9629W        W25703   2.889  18.930   0.258  0.3260 -0.1145  0.2999
 9630W        W25704  19.027  17.633  10.198  0.2791 -0.2647 -0.2527
 9631W        W25705  16.640  16.682   1.009  0.0306 -0.0902  0.0989
 9632W        W25706  10.206   2.517   0.170  0.4072 -0.2004 -0.0592
 9633W        W25707   8.997  11.290  15.002 -0.2482  0.1222 -0.4790
 9634W        W25708  17.235   8.259  12.503 -0.2330 -0.0879 -0.0474
 9635W        W25709   9.092   2.597   0.201  0.1853  0.0135  0.5830
 9636W        W25710  12.102   2.275   4.811  0.0041 -0.1139 -0.3057
 9637W        W25711  10.274  10.237   1.437  0.2429 -0.3980 -0.0290
 9638W        W25712  11.482   6.560  11.762 -0.3205  0.1174 -0.2396
 9639W        W25713  13.034  16.554  12.457 -0.3392  0.0440 -0.2290
 9640W        W25714  13.358   6.270   1.417  0.0564  0.0093 -0.3142
 9641W        W25715   7.107   9.839   1.141 -0.0103 -0.0747 -0.1733
 9642W        W25716  14.877  16.652   1.751 -0.1591  0.2138  0.2048
 9643W        W25717   4.584  15.776   3.282 -0.1096  0.2509 -0.1207
 9644W        W25718   3.293  12.177  11.744  0.0743  0.2049 -0.2595
 9645W        W25719  17.192   4.658   3.299 -0.1039  0.1737 -0.2958
 9646W        W25720   3.292  11.125  10.530  0.2905  0.0395 -0.0712
 9647W        W25721   0.648  18.914  12.743  0.1053 -0.2327  0.4404
 9648W        W25722   9.932  15.620  12.397 -0.0874  0.2638  0.3047
 9649W        W25723  10.044  11.811   2.981 -0.1474  0.0108 -0.1529
 9650W        W25724  13.505   9.625   0.684 -0.0925 -0.2671 -0.4315
 9651W        W25725  12.826   6.049  13.011  0.0360 -0.0110 -0.0115
 9652W        W25726  12.948   5.707   1.063 -0.1826 -0.0755 -0.1881
 9653W        W25727  16.051  10.426  14.485  0.1386  0.1721 -0.3151
 9654W        W25728  17.344   0.454   4.908  0.1485  0.2143  0.1176
 9655W        W25729  17.146  14.273   3.846  0.0161 -0.0010  0.2434
 9656W        W25730  18.167   6.262   0.121 -0.0285 -0.2605 -0.0914
 9657W        W25731   7.735  10.869  13.281  0.0503 -0.0748  0.0475
 9658W        W25732   6.335   1.319  12.679 -0.2507 -0.4038  0.0797
 9659W        W25733  10.553   7.082  11.085  0.2874 -0.3133 -0.0907
 9660W        W25734   3.086  12.817  13.672  0.0648 -0.3043  0.0875
 9661W        W25735   2.003   4.807  14.705  0.0692  0.0128  0.3164
 9662W        W25736  17.204  12.336   1.039 -0.0848 -0.3362  0.0065
 9663W        W25737  11.322   9.134   5.821  0.2537  0.1124 -0.0903
 9664W        W25738  10.371   0.014  11.636  0.2415 -0.5816  0.0104
 9665W        W25739   7.996  12.971  14.881 -0.2782 -0.2224 -0.2237
 9666W        W25740   6.619  13.895   3.692  0.0222 -0.1936  0.1497
 9667W        W25741  15.208   3.730  12.269  0.2206 -0.2069  0.1356
 9668W        W25742   9.459   7.163  12.299  0.3930  0.0892  0.4496
 9669W        W25743   4.133  14.285   2.050  0.0780  0.3235 -0.0142
 9670W        W25744   2.256   3.188  11.034  0.3109  0.2194  0.3437
 9671W        W25745   3.046   0.643  11.247  0.0839 -0.1196 -0.2590
 9672W        W25746   6.568   2.096  10.823 -0.1962  0.2291  0.1258
 9673W        W25747   3.739   4.347   0.833  0.2977  0.0027 -0.3180
 9674W        W25748  10.240   2.346   1.188  0.0452 -0.0705  0.0556
 9675W        W25749  17.812  15.287   2.607  0.0253 -0.3519 -0.0118
 9676W        W25750  15.521   3.561   5.001  0.1193 -0.1469  0.3110
 9677W        W25751   5.860   5.182   1.181  0.2082 -0.1037 -0.0860
 9678W        W25752   9.330   4.635   3.323 -0.0216 -0.0383  0.0510
 9679W        W25753   5.598   6.577   0.530  0.2001 -0.1266 -0.2256
 9680W        W25754  15.393   7.977  11.746  0.0660  0.4010  0.2622
 9681W        W25755  11.329   3.149   0.850  0.1050  0.0363  0.0570
 9682W        W25756  10.911  11.959  12.330  0.3182  0.0039  0.3267
 9683W        W25757   2.426  14.156   4.553 -0.0133  0.0562  0.0003
 9684W        W25758  18.952  18.142  11.091  0.0368  0.2423  0.2385
 9685W        W25759  15.966   4.195   1.735 -0.0732  0.0944  0.2553
 9686W        W25760   5.317  13.602  11.926 -0.1447 -0.0245  0.1123
 9687W        W25761   5.371  17.032  10.179  0.0933  0.1518 -0.1572
 9688W        W25762   0.705  13.316   2.733  0.0242  0.0500 -0.1643
 9689W        W25763   5.626  10.407  12.485 -0.1914  0.1750  0.0184
 9690W        W25764  15.444   2.266   3.380 -0.1227 -0.2374 -0.0641
 9691W        W25765  11.742   6.156   1.230  0.3082  0.1370  0.1323
 9692W        W25766   2.587  13.646  10.512 -0.2027 -0.2275  0.0504
 9693W        W25767   2.948   8.029  10.597 -0.0569 -0.0833 -0.0343
 9694W        W25768  11.244   4.492   0.945  0.1717  0.2460  0.1159
 9695W        W25769   5.736   0.092  10.267 -0.1377  0.0405  0.2711
 9696W        W25770   0.018  18.754  13.265  0.2840 -0.0065 -0.2159
 9697W        W25771  11.153  16.121  10.474  0.0257 -0.0430  0.0313
 9698W        W25772   1.986   5.967  14.611 -0.2818 -0.4487 -0.0537
 9699W        W25773  12.938   2.769   5.466 -0.1543  0.0845 -0.0484
 9700W        W25774  18.616  11.923   1.385  0.0098 -0.0955 -0.1381
 9701W        W25775  18.455  13.375  13.376  0.1675  0.1731 -0.1319
 9702W        W25776   5.845  15.491  11.706  0.1991 -0.3281 -0.4968
 9703W        W25777  17.626  13.423   2.100 -0.2412  0.0103  0.2020
 9704W        W25778   3.996   5.755   2.593 -0.4060 -0.0739 -0.1562
 9705W        W25779  11.968  11.903  14.278 -0.1077  0.0127 -0.0776
 9706W        W25780  10.121  17.400   4.615 -0.3154 -0.2899 -0.0861
 9707W        W25781  13.977   1.558   1.043 -0.1001 -0.3291  0.1998
 9708W        W25782  16.153   9.099  10.255  0.3161 -0.4131  0.0117
 9709W        W25783   6.691   6.119   0.863  0.5040 -0.1527  0.0610
 9710W        W25784   1.080   3.481   2.759 -0.1325 -0.2185 -0.1191
 9711W        W25785   9.875   0.302  10.944  0.1795  0.0787 -0.2328
 9712W        W25786   1.865  10.957  12.595  0.0080  0.1081  0.2422
 9713W        W25787   2.716   2.157  13.513 -0.2300  0.0774 -0.0691
 9714W        W25788  15.785  19.123   1.738 -0.0887 -0.0813 -0.1169
 9715W        W25789   0.528  11.246   2.139 -0.2850 -0.3042 -0.1846
 9716W        W25790  16.813   8.636  12.716  0.0704  0.0472  0.1818
 9717W        W25791   5.852   7.028  12.875 -0.2525  0.3370  0.3465
 9718W        W25792   3.313  17.414  11.872 -0.4653 -0.0026  0.0903
 9719W        W25793   0.515   7.394  13.832 -0.1758 -0.0319 -0.2382
 9720W        W25794   0.073  14.750   1.213 -0.0544  0.2051 -0.0148
 9721W        W25795   4.885  15.941  10.858  0.0552 -0.1686  0.2373
 9722W        W25796  12.044   4.415  10.804 -0.0671 -0.0735  0.3553
 9723W        W25797   0.262   5.497  10.643 -0.0320  0.3041 -0.0235
 9724W        W25798   4.459   8.237   3.100  0.0156 -0.2310 -0.2811
 9725W        W25799   4.420  11.765   4.768 -0.0094  0.2583 -0.2068
 9726W        W25800  11.236  13.021  13.731 -0.1347 -0.0168  0.0383
 9727W        W25801  15.819   3.612   0.734  0.3140  0.0091  0.2151
 9728W        W25802   2.390  12.861  14.909  0.0912  0.0145 -0.1390
 9729W        W25803   6.089   2.143   5.073  0.0187 -0.1089  0.1568
 9730W        W25804  12.404  18.676  12.863 -0.1225 -0.1400 -0.1887
 9731W        W25805   3.891   3.384  11.132  0.1045 -0.1752  0.0825
 9732W        W25806   3.033  14.956   4.713 -0.0567  0.1869  0.0470
 9733W        W25807   1.585   6.697   4.427 -0.1745  0.0247 -0.1675
 9734W        W25808   4.581   7.605   1.200  0.1529  0.0603 -0.0006
 9735W        W25809  17.135   0.556   0.508 -0.0138 -0.1588  0.2387
 9736W        W25810  17.917   4.607  12.992  0.1816 -0.0443  0.0249
 9737W        W25811  10.505  10.004   0.911  0.2413  0.2307 -0.0391
 9738W        W25812  12.933   1.336   4.056 -0.1440  0.0716 -0.1146
 9739W        W25813   7.577  11.111  14.427 -0.3159  0.0016 -0.0292
 9740W        W25814   0.031   2.823  13.538 -0.0311 -0.0797 -0.1865
 9741W        W25815  10.639   2.564   0.822 -0.0243  0.1044 -0.1456
 9742W        W25816  12.650  15.786  12.273  0.0383  0.3037  0.0591
 9743W        W25817  19.302   7.157  10.185 -0.1000 -0.0069 -0.3120
 9744W        W25818  11.976   0.280   0.324 -0.1778  0.0427 -0.1918
 9745W        W25819   8.604   6.078  12.206 -0.0029 -0.2263  0.3600
 9746W        W25820  10.150   3.585  10.631 -0.1240  0.7012 -0.0202
 9747W        W25821   6.243  17.918   3.439  0.0572  0.1553 -0.3664
 9748W        W25822   8.707  16.247  14.624 -0.1065  0.0083  0.0897
 9749W        W25823   4.394   0.357  13.624 -0.1869  0.0900  0.2651
 9750W        W25824  14.295   8.072   2.707  0.2656 -0.0048  0.0002
 9751W        W25825  19.197   2.296  12.287 -0.2299 -0.1146 -0.2393
 9752W        W25826   5.236  15.320  12.562  0.1717  0.0631 -0.1113
 9753W        W25827   5.342  18.554   0.499 -0.2149  0.2659 -0.0060
 9754W        W25828  12.134   4.229  13.435  0.0562 -0.0412  0.0510
 9755W        W25829   4.784   0.620  10.629 -0.1956  0.3798 -0.1170
 9756W        W25830  18.496  17.513  10.348 -0.0069  0.2311 -0.0950
 9757W        W25831   3.267   3.756   0.671 -0.1867 -0.3665 -0.1830
 9758W        W25832  12.519   5.745  12.656  0.0037  0.1408 -0.1145
 9759W        W25833  13.367  12.888   0.453 -0.0168 -0.2229  0.0703
 9760W        W25834   7.451   4.017  14.675  0.0159 -0.1950 -0.2531
 9761W        W25835   9.255   8.849   3.185  0.4599 -0.2738  0.0888
 9762W        W25836   6.905  15.754  12.892 -0.2379  0.1755 -0.0569
 9763W        W25837   2.443   3.867   5.073 -0.0411  0.1088 -0.0569
 9764W        W25838   1.529  11.584  10.892  0.0631 -0.0112 -0.1067
 9765W        W25839   8.971   2.352   2.941  0.1914 -0.2375  0.4025
 9766W        W25840  17.544   4.393   3.538  0.3086 -0.1133  0.1239
 9767W        W25841   5.603   2.713  13.232 -0.2258  0.0527 -0.0192
 9768W        W25842   6.840  12.369   3.274 -0.0827 -0.1173  0.0333
 9769W        W25843   2.164  15.566  11.461  0.2216  0.2114  0.1598
 9770W        W25844  16.510   6.213  12.124 -0.0667  0.2269 -0.0625
 9771W        W25845  17.181   4.521   4.288  0.1823  0.0759  0.2150
 9772W        W25846  17.005  16.975   1.724  0.1503 -0.3476 -0.1967
 9773W        W25847   8.575   8.507   4.344 -0.2110 -0.3421 -0.2554
 9774W        W25848   0.421   6.071   3.853 -0.0899  0.1100  0.0306
 9775W        W25849  11.673   2.088   2.333  0.0101 -0.3721 -0.1293
 9776W        W25850   3.666  12.028  10.207 -0.2528 -0.0559  0.0525
 9777W        W25851   8.055  12.656   2.572 -0.1562  0.0043  0.1585
 9778W        W25852   9.828   4.411  11.107 -0.0901  0.2174 -0.0502
 9779W        W25853  12.033   2.439   2.255 -0.1310 -0.0461 -0.1821
 9780W        W25854  16.684   8.948  13.761 -0.2772 -0.1596 -0.1386
 9781W        W25855   4.396   4.490  13.007  0.3147 -0.3617 -0.0694
 9782W        W25856   4.604   8.997  11.537  0.1256 -0.0901  0.1333
 9783W        W25857  13.150  12.737   3.595 -0.2201 -0.2055  0.0954
 9784W        W25858   8.272  12.708  10.725  0.4024 -0.1136  0.0731
 9785W        W25859  16.190  15.345   1.051  0.0707 -0.0787 -0.1774
 9786W        W25860  11.701  18.757   4.882 -0.0587  0.1810  0.1854
 9787W        W25861   2.403  15.817  13.199 -0.0190 -0.1243 -0.0884
 9788W        W25862  12.377   6.023  11.020  0.2040 -0.0296 -0.0835
 9789W        W25863   9.155   1.245   4.718 -0.0405 -0.0753 -0.0552
 9790W        W25864   1.830   5.843   3.360 -0.3143  0.0046 -0.2699
 9791W        W25865  15.048   1.676   0.446 -0.0804  0.1101 -0.2279
 9792W        W25866   6.496  16.290   1.273  0.0828 -0.2228 -0.2179
 9793W        W25867  11.676   2.628  14.112  0.1288  0.0976 -0.2568
 9794W        W25868  12.551   1.616   4.284 -0.0573  0.2411  0.2668
 9795W        W25869   5.604   4.306   1.175 -0.0039  0.0644  0.1474
 9796W        W25870   5.166  18.695  14.389  0.3573  0.3000  0.2215
 9797W        W25871  15.298  13.319   9.468  0.0881  0.0480 -0.3584
 9798W        W25872   6.843   6.392   0.484  0.0243  0.0981 -0.0523
 9799W        W25873   4.875  11.269  11.119 -0.0353  0.3796  0.1919
 9800W        W25874   7.920  19.021  10.875  0.0829 -0.3664  0.2669
 9801W        W25875  10.953   2.843   4.287 -0.1753  0.2229  0.2714
 9802W        W25876   4.346  14.061  10.909 -0.2514  0.3576 -0.3796
 9803W        W25877   4.005  12.142   0.378  0.2339  0.1051 -0.0085
 9804W        W25878   0.847   1.102  13.206 -0.0545 -0.1213  0.0882
 9805W        W25879   0.344  16.761  12.571 -0.3828  0.2031 -0.0519
 9806W        W25880   9.119   9.124   2.779  0.1310  0.0941  0.1172
 9807W        W25881   0.848   4.473   0.157  0.0886 -0.2460 -0.0871
 9808W        W25882   2.597   2.725  12.726 -0.0672 -0.4474  0.0493
 9809W        W25883  10.879   3.612  12.494  0.0718 -0.4580 -0.2305
 9810W        W25884   6.363   4.228   4.754  0.2638  0.0322  0.1463
 9811W        W25885   2.894  15.067   3.340  0.0122 -0.1675 -0.0620
 9812W        W25886   6.620  13.503  10.962  0.1853  0.1094  0.0088
 9813W        W25887   3.899   1.829  11.109  0.0700 -0.1249 -0.2100
 9814W        W25888   3.776  18.431   3.594 -0.0480 -0.2321  0.0543
 9815W        W25889  18.497  11.183  12.130 -0.1434 -0.0678 -0.2869
 9816W        W25890  15.398  16.280  13.966  0.0049  0.0147 -0.0476
 9817W        W25891   1.346  16.186   0.507  0.2529 -0.1650 -0.0217
 9818W        W25892   9.052  14.578  11.901 -0.2281 -0.1040  0.1736
 9819W        W25893  17.101   1.781  12.478  0.0897 -0.1753  0.2022
 9820W        W25894  19.133   6.697  12.036  0.4191 -0.2246  0.1427
 9821W        W25895   9.156  14.237  14.450 -0.0602 -0.1349 -0.0780
 9822W        W25896   9.566  12.411  11.603  0.2589 -0.1023 -0.1796
 9823W        W25897  13.749  16.474   2.279 -0.0830 -0.0774 -0.3621
 9824W        W25898   3.090   4.821  14.817 -0.0198  0.1325  0.0627
 9825W        W25899  18.419   2.684   9.122  0.2145  0.0236  0.1450
 9826W        W25900   4.903  11.616   1.902  0.0822  0.1335 -0.0914
 9827W        W25901   6.711   7.747  12.968 -0.2446  0.1766  0.1647
 9828W        W25902  16.339   4.262   0.635  0.1590  0.1615 -0.1969
 9829W        W25903  15.002   3.777   0.081  0.0049  0.3015  0.3057
 9830W        W25904  14.915  12.698   4.760 -0.0111  0.3668  0.1804
 9831W        W25905   8.159  16.482   5.292  0.2166  0.2528  0.2288
 9832W        W25906   6.783   1.659  15.033 -0.0947  0.0234  0.2128
 9833W        W25907   4.861   6.141   1.601 -0.2552 -0.3477 -0.2689
 9834W        W25908  10.617   1.910   0.661  0.1912  0.0674 -0.1462
 9835W        W25909  12.619  12.357   1.160 -0.2055 -0.0044 -0.5726
 9836W        W25910  12.070   8.853  10.601  0.0503  0.2026 -0.2405
 9837W        W25911  13.158   6.926   5.049  0.0348  0.1236  0.1261
 9838W        W25912  10.340   1.376   2.542 -0.0985 -0.0003 -0.0278
 9839W        W25913   7.826   3.931   0.351 -0.1466  0.2439 -0.1695
 9840W        W25914  16.502   4.144  12.450  0.1275  0.0061  0.0710
 9841W        W25915   5.232  18.495  10.287  0.0414 -0.1424 -0.2699
 9842W        W25916   8.986  12.723   4.251  0.0213  0.0683  0.0199
 9843W        W25917   9.394  15.706  14.381  0.0022  0.0656 -0.1390
 9844W        W25918  15.270   2.900  10.821 -0.1470 -0.1342 -0.0164
 9845W        W25919   7.137  18.319  11.704 -0.1887  0.1807 -0.2536
 9846W        W25920  15.623   5.303   3.785 -0.2128  0.0532 -0.0122
 9847W        W25921   8.131  12.614   0.737 -0.3156  0.0780  0.0101
 9848W        W25922   3.043   7.050  11.861  0.0606  0.1116 -0.0690
 9849W        W25923  11.034  16.260   1.376  0.0342  0.2155  0.1214
 9850W        W25924  18.564   4.995  13.734 -0.3389 -0.4233  0.0731
 9851W        W25925   5.552  12.267  12.740  0.1568 -0.1966  0.1516
 9852W        W25926  13.766   5.353   3.061 -0.4669  0.1521 -0.0289
 9853W        W25927   3.971   7.441  12.027 -0.0209 -0.2161 -0.0801
 9854W        W25928  12.739  13.510   1.766  0.2680 -0.3497  0.0692
 9855W        W25929   1.392  18.595   1.035 -0.1829 -0.2276  0.0976
 9856W        W25930  12.241  16.302  14.921 -0.1251 -0.0017 -0.4276
 9857W        W25931   9.499  14.762   0.344 -0.0161  0.0216  0.3369
 9858W        W25932  14.962   4.512  14.385  0.0687 -0.0398 -0.0914
 9859W        W25933   0.164   5.280   0.601  0.3783 -0.1484  0.4224
 9860W        W25934   9.274  11.711  11.437 -0.1506  0.0102  0.0292
 9861W        W25935  17.758   2.728  10.391  0.0515  0.2950 -0.3751
 9862W        W25936   8.822   3.564   4.508  0.1150 -0.1863  0.0780
 9863W        W25937   3.814  10.765   4.812 -0.3551 -0.1951  0.1471
 9864W        W25938  10.960  10.934   2.359 -0.0151  0.2296 -0.0541
 9865W        W25939   6.326  18.783   0.605 -0.1719  0.1643 -0.2957
 9866W        W25940   0.942   0.528  12.573  0.0276  0.2144  0.3852
 9867W        W25941   8.962  12.812   3.032  0.1310  0.1426 -0.0370
 9868W        W25942  16.569   1.842   3.717  0.1987 -0.3408 -0.0888
 9869W        W25943  11.688  17.141  13.173  0.1213 -0.3397  0.2586
 9870W        W25944   8.601  14.194   1.747  0.2193 -0.0669  0.1248
 9871W        W25945  14.282  18.123  12.101  0.0479  0.2659  0.1702
 9872W        W25946   4.321   2.274  13.489  0.0039  0.3159 -0.1203
 9873W        W25947  18.652   3.377   3.692 -0.1461  0.0349  0.2850
 9874W        W25948   3.978   3.002   0.305  0.4425  0.1327 -0.2513
 9875W        W25949  17.606   2.833  14.684 -0.3891  0.0373  0.0918
 9876W        W25950  11.800   2.432   1.271  0.1580  0.1098 -0.0804
 9877W        W25951  19.299   5.520   3.916 -0.1724 -0.3612  0.0408
 9878W        W25952   1.645   4.409   3.695 -0.1752 -0.2409 -0.2879
 9879W        W25953   7.157  19.146  13.822 -0.0740 -0.0000  0.2036
 9880W        W25954   6.531   7.436   4.057  0.2237 -0.1547  0.0624
 9881W        W25955   6.981  15.165  11.799 -0.0680 -0.1073 -0.3076
 9882W        W25956   1.884  17.221  11.635  0.2531 -0.2016 -0.0935
 9883W        W25957  11.677   2.068  13.969  0.0941  0.1349 -0.1336
 9884W        W25958  15.699   5.849  12.927  0.1238  0.0235 -0.1566
 9885W        W25959   0.867   9.740   2.284  0.2032  0.0400 -0.0595
 9886W        W25960  12.696  15.516  10.812  0.1515  0.0321  0.0267
 9887W        W25961  12.718   1.624   0.678 -0.0137 -0.2150  0.3290
 9888W        W25962   4.763   6.520  12.786 -0.1292 -0.1559 -0.0817
 9889W        W25963  17.230  14.716   4.672 -0.0713  0.2739  0.3018
 9890W        W25964  14.226  12.802  12.255  0.1446 -0.0052  0.0076
 9891W        W25965  16.714  17.063  10.439  0.0159 -0.2083  0.0040
 9892W        W25966   9.134   1.822  14.801  0.0928  0.0169  0.0100
 9893W        W25967  18.227   8.707  10.226  0.1393  0.0062 -0.0897
 9894W        W25968   9.052   2.148   1.101  0.3750 -0.0592 -0.0643
 9895W        W25969   9.395   3.632  10.584 -0.2227 -0.0300  0.0306
 9896W        W25970  16.861   5.905   2.530  0.1389  0.2450  0.0720
 9897W        W25971  16.947  10.428  11.860  0.0924 -0.1599 -0.2642
 9898W        W25972  17.350  15.878   0.796  0.1931 -0.3903 -0.0173
 9899W        W25973  19.001  13.507  11.430 -0.0511  0.0588  0.0231
 9900W        W25974   6.472  14.432   4.773 -0.0392 -0.0282  0.0618
 9901W        W25975  17.036   4.761  11.996 -0.0808  0.1208 -0.0718
 9902W        W25976  10.705   3.543   3.851  0.1019  0.3731  0.0143
 9903W        W25977   9.998   7.736   1.044 -0.1118 -0.1708 -0.0345
 9904W        W25978   5.724  10.314   5.637 -0.1406 -0.1216 -0.0911
 9905W        W25979   8.876  18.704  14.995 -0.0138  0.2165  0.0741
 9906W        W25980   2.339   6.023   5.143 -0.0322  0.0610  0.0759
 9907W        W25981   6.610  16.072  12.679 -0.2568 -0.0136  0.1597
 9908W        W25982   1.732   7.190   4.426 -0.0816  0.3122  0.4804
 9909W        W25983  17.356  17.399   4.634  0.0830  0.1005 -0.0246
 9910W        W25984   6.215   7.424   5.206 -0.1055 -0.1074  0.0421
 9911W        W25985   0.811  14.653  12.367 -0.1886 -0.0063 -0.2309
 9912W        W25986   0.975   1.814  10.854  0.0315 -0.0503 -0.2858
 9913W        W25987   3.000   9.316  11.606 -0.4734 -0.1646 -0.2067
 9914W        W25988   5.649   9.435   0.163  0.0673 -0.0790  0.1680
 9915W        W25989  15.045  15.443  11.580  0.2990  0.2827 -0.0321
 9916W        W25990  17.557   8.291  14.897  0.1068 -0.1730  0.1385
 9917W        W25991   5.647   4.879   4.926  0.1789  0.0296  0.0826
 9918W        W25992   2.123   8.372   2.162 -0.2196  0.0320  0.1865
 9919W        W25993   0.458   8.439   2.233  0.2281 -0.0360 -0.1729
 9920W        W25994  11.678   0.025  13.884 -0.0742  0.1390 -0.2066
 9921W        W25995   5.038  12.356   4.196 -0.3119 -0.1786  0.0263
 9922W        W25996   2.511  16.874  12.922 -0.0815 -0.0978 -0.4351
 9923W        W25997   1.411   1.264   1.655 -0.0656  0.1950  0.0222
 9924W        W25998   6.121   5.617  11.193  0.0668 -0.2524 -0.2131
 9925W        W25999   9.180  12.947  13.874 -0.0895  0.2432 -0.1030
 9926W        W26000   6.553  18.392   3.479  0.1601  0.4780  0.0270
 9927W        W26001   1.454   7.771   0.221 -0.4720 -0.1474  0.0255
 9928W        W26002  14.227  11.314  12.268  0.0043 -0.1287 -0.4525
 9929W        W26003  17.880  15.844   0.986 -0.3473  0.2256 -0.1722
 9930W        W26004   6.097  16.489   4.811 -0.0439  0.1194  0.1129
 9931W        W26005  10.549   6.728   1.521 -0.2080 -0.0414 -0.1974
 9932W        W26006   2.170   9.228  11.894  0.0707  0.1459 -0.3540
 9933W        W26007  11.097   0.316   2.506  0.1171 -0.1280  0.1682
 9934W        W26008   2.482  13.535  11.401 -0.1277  0.2783 -0.1289
 9935W        W26009  15.528  10.804   1.181  0.3231 -0.0051  0.0946
 9936W        W26010  15.010  13.376   0.214 -0.2910 -0.0763 -0.1467
 9937W        W26011  15.807   8.897  13.743  0.0381 -0.1913 -0.0252
 9938W        W26012  11.814   9.033  12.487  0.2138 -0.1475  0.1424
 9939W        W26013   8.993   4.106   1.305  0.0237  0.0461 -0.2825
 9940W        W26014   9.309   7.514  11.188 -0.0668  0.1589 -0.0244
 9941W        W26015   6.090   6.470   0.379 -0.1138 -0.2139 -0.2225
 9942W        W26016  15.454  10.364   2.675  0.1945  0.1715  0.0140
 9943W        W26017   2.216  16.617   0.919  0.2213  0.1399 -0.0368
 9944W        W26018   4.828   2.951   0.932 -0.0251  0.2304 -0.0236
 9945W        W26019  14.283  17.241   1.445 -0.1658 -0.0069 -0.0300
 9946W        W26020  11.716  14.883  13.583 -0.0887  0.1565 -0.5113
 9947W        W26021  17.413  10.551   4.843  0.1638 -0.2524 -0.1804
 9948W        W26022  11.930  18.378  11.744  0.0056  0.1182 -0.1693
 9949W        W26023   1.501  16.981  13.912  0.0653 -0.1102 -0.3093
 9950W        W26024   9.893  18.997  12.354  0.0427  0.2340 -0.3626
 9951W        W26025  13.132   4.724  14.881 -0.0505 -0.1380 -0.5959
 9952W        W26026   0.117  11.991  14.605 -0.2282 -0.0125 -0.1125
 9953W        W26027   7.362  17.293   0.654  0.1757 -0.3303 -0.0569
 9954W        W26028  11.543  15.892  13.514 -0.4211  0.0164 -0.0192
 9955W        W26029   4.900  16.844  12.636 -0.0179 -0.0099  0.0795
 9956W        W26030   2.994   7.675   2.876 -0.2346  0.0189  0.3040
 9957W        W26031   0.233   6.562   3.712 -0.2974  0.0957  0.0041
 9958W        W26032   4.334  12.210  11.188 -0.1828 -0.0325 -0.0539
 9959W        W26033  13.071  16.628  13.704  0.3642 -0.1194  0.0694
 9960W        W26034   3.998  14.068   3.132 -0.1318 -0.0387 -0.1891
 9961W        W26035   7.226   4.161   4.416  0.0883  0.2608 -0.1488
 9962W        W26036  17.589  15.099  12.346  0.2391 -0.1462  0.0907
 9963W        W26037   7.275   7.991  11.667  0.1512 -0.3137  0.1359
 9964W        W26038   7.146  18.290  14.367  0.0152  0.1678 -0.2156
 9965W        W26039   7.324   0.204   2.477 -0.0824 -0.4433  0.1856
 9966W        W26040  11.513   4.235   1.690 -0.1030  0.0434 -0.4616
 9967W        W26041  10.841   7.360   2.704  0.1031 -0.0733 -0.0609
 9968W        W26042   7.666   3.026   2.119 -0.0380  0.2760 -0.1095
 9969W        W26043   8.611   6.971  13.225 -0.1209  0.1493  0.2332
 9970W        W26044   8.274  11.692   2.161  0.2797 -0.1362  0.1821
 9971W        W26045   7.554   6.386   6.592 -0.2988  0.1792 -0.2446
 9972W        W26046  17.990  14.792  11.273 -0.2820  0.1973 -0.2467
 9973W        W26047  17.267  12.802   5.207  0.2496  0.1663  0.2431
 9974W        W26048  13.440   7.059  14.396 -0.0222 -0.0101 -0.1956
 9975W        W26049  19.255   7.814  14.875 -0.0121 -0.3554  0.2891
 9976W        W26050  15.151   6.052   5.298 -0.0093  0.0152 -0.2550
 9977W        W26051  11.118  12.897   2.340  0.0038 -0.0446 -0.1292
 9978W        W26052  12.252   5.412   0.632  0.1079  0.2847 -0.3129
 9979W        W26053   0.198   7.406   3.191 -0.1613 -0.2357 -0.3734
 9980W        W26054   2.338  11.616   0.144  0.1522  0.1006  0.0574
 9981W        W26055   4.924  11.042  11.845 -0.2102 -0.0253  0.1106
 9982W        W26056   4.989   1.149  12.149 -0.1144 -0.1775  0.1181
 9983W        W26057  17.475   4.525  12.109  0.1872 -0.2976 -0.1877
 9984W        W26058  14.586   9.417  13.802  0.0798 -0.0562  0.2096
 9985W        W26059   0.306  18.904   2.636  0.0814  0.1190  0.0005
 9986W        W26060   3.411  18.210   4.932 -0.1465 -0.3562  0.1862
 9987W        W26061   1.224  19.103  12.573 -0.1290  0.1047 -0.1301
 9988W        W26062   6.395   2.949   1.653  0.2439 -0.2010  0.0411
 9989W        W26063   2.713   1.058  10.950 -0.0538  0.2037 -0.3577
 9990W        W26064   5.983  11.871   2.336  0.1081 -0.0413 -0.0005
 9991W        W26065   5.014  16.314   2.651 -0.0413 -0.1626  0.1589
 9992W        W26066   4.225  12.141  14.392 -0.1745 -0.0021 -0.0102
 9993W        W26067   3.241   3.095  12.706  0.1732  0.2490 -0.1614
 9994W        W26068  17.362   9.126   2.694  0.0343 -0.3007  0.1325
 9995W        W26069   1.905  12.423  11.428  0.3645 -0.0005  0.1423
 9996W        W26070  18.099   8.554  13.605  0.1986 -0.0491  0.0941
 9997W        W26071   1.222   7.012  11.347 -0.2540  0.3004  0.1198
 9998W        W26072  17.803   0.411   3.883 -0.2263 -0.0609 -0.0319
 9999W        W26073  13.089   9.872   1.039 -0.0967  0.0080 -0.0220
10000W        W26074  16.210  14.842   4.713 -0.4381  0.0116  0.1466
10001W        W26075  11.337  15.742   2.161  0.1664  0.0284  0.0344
10002W        W26076  11.674   3.583   3.024 -0.1189 -0.1037  0.1020
10003W        W26077  16.722   4.379   4.523 -0.0385  0.1926 -0.1577
10004W        W26078   3.318   4.300   0.575  0.0375 -0.1830  0.2811
10005W        W26079   7.932   5.450   1.629  0.3407  0.4525 -0.2055
10006W        W26080  14.476   4.464   4.872  0.0955  0.0889 -0.0534
10007W        W26081   8.743  15.187   2.808 -0.1505 -0.2057 -0.2406
10008W        W26082  10.127  17.037  13.836  0.0981  0.1777 -0.1410
10009W        W26083  14.801   6.026  11.471 -0.2807  0.3306 -0.3078
10010W        W26084  17.901  13.014   0.081  0.0063  0.2775 -0.2659
10011W        W26085   9.888  17.192  12.108 -0.1134  0.0527  0.2500
10012W        W26086   4.880  17.536   0.148 -0.1946 -0.1971 -0.1771
10013W        W26087   2.867  11.254  13.614 -0.2259  0.0258 -0.1072
10014W        W26088   3.683   0.993   2.437 -0.1326  0.2289 -0.2655
10015W        W26089   1.089   9.955   0.174 -0.0104  0.2494 -0.1240
10016W        W26090   5.044   6.995  12.924  0.0010  0.0364  0.0673
10017W        W26091  16.788   2.821  10.035 -0.0338 -0.1860 -0.0384
10018W        W26092   5.452   7.708  13.990 -0.0664 -0.2411  0.1100
10019W        W26093   3.266   8.432  10.716 -0.1571  0.0819  0.3328
10020W        W26094   2.678   2.629  13.770 -0.2116  0.1999 -0.0361
10021W        W26095   7.464   8.040  14.281 -0.1189  0.1068 -0.0740
10022W        W26096   4.904  16.273   1.092  0.2749 -0.0681  0.2792
10023W        W26097  16.100   1.742   1.029 -0.2427 -0.0392  0.2857
10024W        W26098  14.686  17.433  13.363 -0.0783  0.2139  0.0808
10025W        W26099   5.099   4.950   2.594  0.1853  0.2848  0.0145
10026W        W26100   6.086  10.226   2.126  0.0367 -0.1500 -0.2817
10027W        W26101  18.319  16.642  11.816 -0.1578  0.2243  0.2536
10028W        W26102   4.879  13.581  10.485 -0.0563 -0.2298 -0.0201
10029W        W26103  18.495  10.914  13.909  0.0538 -0.0961  0.1573
10030W        W26104  18.135  10.920  13.516 -0.0790 -0.0588 -0.2576
10031W        W26105   9.313  17.627  14.685  0.3746 -0.0540  0.2877
10032W        W26106  11.901   1.333   3.393 -0.1877 -0.5221  0.1238
10033W        W26107  17.075  13.238   5.265  0.2723 -0.2126 -0.1339
10034W        W26108  18.936  12.870   1.218 -0.2857 -0.5171 -0.2225
10035W        W26109  10.746  13.676  12.707  0.0966  0.5331 -0.0720
10036W        W26110   7.358  10.224  13.195 -0.1886 -0.2213 -0.0596
10037W        W26111  14.327  13.108   2.263  0.0259  0.0163  0.0502
10038W        W26112   4.141   0.041  10.707 -0.0731 -0.0561  0.1080
10039W        W26113   5.368  15.919   3.502 -0.0507  0.0015  0.2099
10040W        W26114  13.896  18.146   0.566 -0.1741  0.0008 -0.0110
10041W        W26115  18.338  11.870   9.965 -0.1724 -0.2011  0.2380
10042W        W26116  12.320   7.963  11.436  0.0928 -0.3233 -0.1198
10043W        W26117   7.908   3.895  14.123  0.0307  0.1311  0.1420
10044W        W26118   4.130   2.579   2.035 -0.0651 -0.2940  0.1772
10045W        W26119  14.228  14.858   3.950  0.0464  0.0108 -0.0461
10046W        W26120   6.595  16.816  12.382  0.1009 -0.0630 -0.1449
10047W        W26121  18.171   7.450   1.522 -0.3954 -0.1824  0.2405
10048W        W26122  17.038  17.954  13.791 -0.0793  0.1118  0.0455
10049W        W26123   5.349   0.610   3.177  0.2237  0.0478 -0.1679
10050W        W26124  10.611  17.843  14.270  0.0108  0.0279  0.2920
10051W        W26125   9.325  10.426   3.848  0.1491  0.2958 -0.0039
10052W        W26126  10.659   3.833   1.344  0.0038  0.1959  0.0949
10053W        W26127   2.021   8.216  11.615 -0.2958  0.0585  0.2136
10054W        W26128   5.601  11.971   0.792 -0.0354  0.0653 -0.2400
10055W        W26129  11.097  15.215  14.798  0.0927  0.0138 -0.5448
10056W        W26130   0.232  11.280  11.137 -0.1777 -0.3925 -0.1145
10057W        W26131  17.684  17.800   4.644 -0.0675  0.2129 -0.0249
10058W        W26132  15.615   8.286   2.594  0.1494  0.0743 -0.1400
10059W        W26133   7.533   4.735  14.399  0.0046  0.2531  0.2569
10060W        W26134  16.985  15.272   2.100  0.0297  0.1038 -0.0972
10061W        W26135   7.410  18.097  14.783  0.0699 -0.2901  0.4665
10062W        W26136  10.706  13.850   3.895  0.0856  0.0436  0.0100
10063W        W26137  16.698  14.301  14.584 -0.3853  0.0782 -0.2333
10064W        W26138  12.036  13.808  14.558 -0.1356 -0.3896 -0.3483
10065W        W26139   9.763  14.204  14.325 -0.2646  0.1742  0.0521
10066W        W26140  15.081  10.231  14.581 -0.5181  0.2548  0.0280
10067W        W26141  10.878  17.363  14.348 -0.1657  0.1686  0.2357
10068W        W26142   5.700   1.708  14.477 -0.1690 -0.0334  0.0568
10069W        W26143   3.525   8.878  10.735 -0.0487 -0.2967 -0.0481
10070W        W26144  12.763  14.034   4.811 -0.1094 -0.0203  0.2991
10071W        W26145  10.762   7.094  11.592 -0.3013  0.6128  0.0742
10072W        W26146   4.572   9.195  13.334  0.2589  0.3759  0.0444
10073W        W26147   6.923   7.422  12.207 -0.2189 -0.0661 -0.0297
10074W        W26148  13.602  19.070   0.821  0.5179  0.1761 -0.2658
10075W        W26149   0.866   9.912   4.726 -0.0292 -0.1016  0.2752
10076W        W26150   6.342   4.124   2.477  0.3414  0.1554  0.0308
10077W        W26151   2.706  12.988   2.538 -0.0028 -0.0575 -0.1313
10078W        W26152   2.599  18.166  11.787 -0.1068 -0.1913 -0.1834
10079W        W26153  10.345   2.532  12.591  0.2866 -0.3003 -0.0360
10080W        W26154  12.631  16.587  14.728  0.1589 -0.3064 -0.0437
10081W        W26155  16.167  17.644  11.140 -0.0533 -0.0981  0.0790
10082W        W26156  10.672   4.476   5.302  0.0684 -0.0018 -0.1341
10083W        W26157  12.974   6.433   4.632 -0.0828 -0.0222 -0.0210
10084W        W26158   8.340   2.902   3.627 -0.1797  0.1470 -0.0233
10085W        W26159   8.563  15.084  10.784  0.3454 -0.0197 -0.2101
10086W        W26160  11.321   7.381   0.603 -0.1971  0.0992 -0.0951
10087W        W26161   8.290  17.433  13.347 -0.1122  0.4420  0.3156
10088W        W26162   1.089  19.174   2.927  0.0902 -0.2879  0.0789
10089W        W26163  18.919  10.050   1.705  0.3945  0.0499 -0.0544
10090W        W26164  17.300   6.446   5.226  0.3887 -0.1175 -0.2278
10091W        W26165  12.770   3.853   2.162  0.1138  0.0528  0.1929
10092W        W26166   6.039  14.877   1.439 -0.1060 -0.4424 -0.0539
10093W        W26167   3.200  11.683  13.423 -0.1743 -0.4001 -0.2282
10094W        W26168  19.113  10.356  14.495 -0.0656 -0.0453 -0.4830
10095W        W26169  15.599  18.030  13.253  0.1145 -0.1925 -0.0671
10096W        W26170  16.486  13.211   3.572  0.1241 -0.0613 -0.0631
10097W        W26171  11.042  11.807   2.426  0.5074  0.1151  0.2119
10098W        W26172   2.203  17.566  12.337  0.1099 -0.0790  0.1505
10099W        W26173   6.741  11.927  14.074  0.3441 -0.0892 -0.0604
10100W        W26174  17.099   0.150   9.895 -0.1648 -0.1073 -0.0177
10101W        W26175  15.939  12.919  10.836  0.2069 -0.2072  0.1549
10102W        W26176   4.757   2.229   4.934 -0.1557 -0.2096 -0.1954
10103W        W26177   5.030   4.024  14.646  0.1615 -0.3281  0.0344
10104W        W26178   5.611   7.353   0.207 -0.0145 -0.1527 -0.2493
10105W        W26179   3.500  12.545  13.805 -0.0877  0.2190  0.1008
10106W        W26180  14.172   2.117  13.383  0.1980  0.2149  0.5513
10107W        W26181   0.691  10.674   3.060  0.1985  0.1344 -0.1946
10108W        W26182   5.711  14.130   5.162 -0.0658  0.2944 -0.0198
10109W        W26183  14.513  18.819   0.510 -0.0088  0.1489 -0.1240
10110W        W26184  10.247  11.459   0.424  0.1617 -0.1154  0.2007
10111W        W26185   1.862   0.815  12.846 -0.0455  0.2669 -0.2801
10112W        W26186  13.998   6.276  14.534  0.0288  0.0978 -0.1927
10113W        W26187   5.583  15.777   5.680  0.1363 -0.1244  0.0236
10114W        W26188  11.499  19.157   3.853 -0.0158  0.0053  0.0814
10115W        W26189   2.930  14.306   4.398 -0.0123  0.1410  0.1484
10116W        W26190  11.079   8.202   2.533  0.3800  0.2698  0.2929
10117W        W26191   0.433  16.109   4.060  0.1619  0.1827  0.0721
10118W        W26192  14.201   5.210  11.060  0.0022 -0.0209 -0.3543
10119W        W26193   9.293  10.356   0.276  0.1355  0.3037 -0.0695
10120W        W26194   1.419   8.802  13.336  0.2638 -0.0393  0.2009
10121W        W26195   1.786   6.415   3.093 -0.1869 -0.2419 -0.2280
10122W        W26196  15.365   9.053   3.737 -0.2091  0.0316 -0.1947
10123W        W26197   4.164   2.295  13.028  0.3463 -0.1248  0.1923
10124W        W26198  12.958   6.014   1.536 -0.0120 -0.0828 -0.0203
10125W        W26199  14.382   3.971  13.385 -0.0907  0.0723 -0.0000
10126W        W26200  18.469   6.100  11.395 -0.1329  0.1000 -0.2824
10127W        W26201   0.949   3.848   0.330 -0.3633 -0.2440 -0.1389
10128W        W26202  16.702  16.518   4.736 -0.1589 -0.0919  0.2945
10129W        W26203   4.717  12.649   9.922  0.0690  0.0376  0.2456
10130W        W26204  12.748  17.916  11.717 -0.1052 -0.1486  0.4710
10131W        W26205   5.500   8.551  11.764 -0.0739 -0.0824  0.1066
10132W        W26206  13.476  13.645  10.802 -0.1785  0.0431  0.0436
10133W        W26207  15.193   5.109  14.584 -0.1936  0.2146  0.1921
10134W        W26208   8.106   3.943  12.253 -0.0790 -0.3394 -0.0567
10135W        W26209  18.868  18.243  14.787 -0.0909 -0.2036  0.2043
10136W        W26210  15.961   1.635   3.081  0.0619  0.1980 -0.1540
10137W        W26211   0.404  16.568   0.403  0.2832  0.2033  0.1967
10138W        W26212  16.198  11.383  13.110  0.2997 -0.1509  0.1898
10139W        W26213   6.367  15.208   0.558 -0.0524  0.1017 -0.3064
10140W        W26214   2.389  17.903   2.501 -0.3959 -0.2360 -0.0439
10141W        W26215   7.390  16.777  13.582  0.1973 -0.1535 -0.1801
10142W        W26216  11.118  11.784   0.733  0.0171 -0.1573  0.5704
10143W        W26217   1.883   5.271   1.387 -0.4112  0.1341  0.1155
10144W        W26218   8.677   4.033  14.759  0.1875 -0.1131 -0.1013
10145W        W26219   0.449   3.579  11.337  0.1663  0.2374 -0.0279
10146W        W26220  12.793   6.231   1.075  0.2369  0.2410  0.0064
10147W        W26221  11.637   5.416   4.256 -0.0033 -0.2601  0.3493
10148W        W26222   7.326  16.651   1.752 -0.0431  0.2259 -0.4371
10149W        W26223   7.463   9.305  13.949 -0.2215  0.2349 -0.1454
10150W        W26224  11.424  12.194   2.436  0.0077 -0.1306  0.1276
10151W        W26225  11.366  15.109   3.801  0.0839 -0.0854 -0.2013
10152W        W26226   8.168  11.438   4.142 -0.1445  0.3327  0.0577
10153W        W26227  15.960  18.098  10.897 -0.0579 -0.0068  0.2647
10154W        W26228   9.720   2.504  13.794  0.3789 -0.0111 -0.0273
10155W        W26229  10.511  10.405   2.679 -0.1316  0.4752 -0.0404
10156W        W26230   1.703  14.110  12.565  0.1211 -0.1005 -0.1314
10157W        W26231   3.117   3.903  13.574 -0.1300  0.1443  0.0726
10158W        W26232   7.638   7.865  12.516 -0.0750  0.0988  0.1299
10159W        W26233   6.634   0.535   0.749 -0.1582  0.0375  0.1552
10160W        W26234  11.758   8.037   3.118  0.0365  0.1642 -0.3242
10161W        W26235   0.835  10.912  13.864  0.0598 -0.0089  0.4428
10162W        W26236  17.377   9.692   1.200  0.2090  0.1085  0.0934
10163W        W26237  13.072   5.216   1.084 -0.1011 -0.0884  0.2436
10164W        W26238  18.616  13.791  13.118 -0.0593 -0.1349 -0.0471
10165W        W26239   6.992   7.344  14.016 -0.0347  0.1910 -0.1272
10166W        W26240   2.939   9.930   5.344 -0.2309 -0.1501 -0.1940
10167W        W26241   3.410  10.062  15.004  0.0933 -0.0333 -0.0234
10168W        W26242  16.349   4.724   0.947  0.0427  0.2102 -0.1474
10169W        W26243  16.263   9.322   4.247 -0.1868  0.0055  0.0543
10170W        W26244   2.994   6.304   5.505  0.3201 -0.1517 -0.2344
10171W        W26245  14.552   0.023   0.439 -0.0254  0.2638 -0.1487
10172W        W26246   7.658   3.702  10.990  0.1583  0.6138 -0.0194
10173W        W26247  17.391  15.334   3.068 -0.0160  0.0415  0.1982
10174W        W26248   8.883  16.111   0.247  0.2328  0.0700 -0.1976
10175W        W26249   3.556   1.055   0.140  0.4460 -0.2720 -0.0126
10176W        W26250  10.542   6.402   3.652 -0.2498 -0.0003 -0.1294
10177W        W26251   4.345   1.222   4.852  0.1073 -0.1132  0.0693
10178W        W26252  16.257   6.848  14.264  0.1733 -0.2593 -0.0108
10179W        W26253   5.314   2.236  12.231  0.0286  0.2273  0.0533
10180W        W26254   1.845   0.536   0.903  0.4995 -0.0859 -0.1632
10181W        W26255  15.874  16.341  10.770  0.0215  0.1269  0.1663
10182W        W26256  15.477  11.701  14.687 -0.0636  0.3842 -0.1526
10183W        W26257   9.855   4.188  14.274  0.1818 -0.2310 -0.2393
10184W        W26258  11.657   6.934   0.730  0.0244  0.2076 -0.0374
10185W        W26259   2.096   2.098  11.564  0.1145 -0.2231  0.0467
10186W        W26260  17.967  14.651  11.726  0.0454  0.2601  0.1743
10187W        W26261   9.747  13.053   2.489  0.1046 -0.3509  0.6628
10188W        W26262  17.715  14.030   9.908  0.1600  0.1721  0.0504
10189W        W26263  13.496  12.788  12.440  0.1745 -0.1513 -0.5025
10190W        W26264  14.469   1.954   2.577  0.0078 -0.0834  0.0486
10191W        W26265   8.701   7.397   3.034 -0.0699  0.1349  0.2012
10192W        W26266  18.871  11.520  10.703  0.1427  0.0427  0.2950
10193W        W26267   8.679  11.624   4.042  0.2586 -0.0495  0.0388
10194W        W26268   1.598   1.672  14.828 -0.0592  0.0262 -0.3337
10195W        W26269  17.598  18.234   2.870 -0.1030 -0.0429 -0.0527
10196W        W26270  18.967  14.305   4.144  0.0116 -0.2714 -0.2910
10197W        W26271  16.745  10.718   3.885 -0.2453 -0.2868 -0.2293
10198W        W26272   7.227   0.768   2.465 -0.3221  0.3416 -0.1147
10199W        W26273   8.343  13.808  13.199 -0.3573  0.1507 -0.2233
10200W        W26274   3.726   0.400  10.515  0.1300  0.0489 -0.1475
10201W        W26275   2.021  12.983   4.537 -0.2051 -0.1853 -0.0184
10202W        W26276   2.332   2.485  12.231  0.2865 -0.0769  0.0426
10203W        W26277   7.685  16.676   5.522  0.0618  0.4482 -0.3019
10204W        W26278  10.461   7.983  15.030 -0.0008  0.2385  0.0694
10205W        W26279   1.144   8.205   0.232 -0.3575  0.4257 -0.2938
10206W        W26280  15.133  18.931   3.334  0.1367 -0.1349  0.2664
10207W        W26281  17.702  12.256  12.945 -0.3905 -0.1227  0.3781
10208W        W26282   2.050   7.016   1.826 -0.1714 -0.0597  0.0505
10209W        W26283  16.233   9.601  13.607 -0.1049  0.0471  0.1592
10210W        W26284  19.054   8.785   1.803  0.0923  0.1450  0.4067
10211W        W26285   3.943   5.451   1.673  0.0677  0.0654  0.0088
10212W        W26286  12.813  14.319   0.024  0.2016 -0.1840  0.0743
10213W        W26287   0.053   1.728  14.862  0.0446 -0.3034 -0.0492
10214W        W26288   2.303  15.755  14.662  0.0456 -0.2395  0.2474
10215W        W26289  10.037   3.694   1.065  0.2652  0.3589 -0.4471
10216W        W26290   5.958   6.087   1.906  0.1051 -0.2142  0.0270
10217W        W26291   1.044   9.184   0.697 -0.0820 -0.1074  0.1260
10218W        W26292   5.574   4.028  12.341  0.3491  0.2020  0.0310
10219W        W26293   8.556  16.906  10.749  0.0486  0.2434 -0.1169
10220W        W26294  13.898   2.259  13.735  0.2119  0.1279  0.1806
10221W        W26295   3.927   1.458   1.066  0.1771  0.0936  0.1141
10222W        W26296   8.603  18.264   1.133 -0.0129 -0.1579  0.2260
10223W        W26297  16.636   3.075  13.959  0.1837 -0.2351 -0.0184
10224W        W26298  15.435   9.822   4.469 -0.0598  0.1277 -0.1983
10225W        W26299  16.468  15.095   9.927 -0.0801  0.1399  0.1594
10226W        W26300   0.208   9.624   3.350 -0.0991 -0.4961  0.0459
10227W        W26301  13.662   6.221   4.033  0.0837 -0.2882  0.1284
10228W        W26302   7.320  18.730  14.744 -0.1840  0.3026 -0.1089
10229W        W26303  15.505   4.822  13.828  0.0358 -0.1594 -0.0967
10230W        W26304  10.114   7.965  13.186  0.0480  0.1203  0.1993
10231W        W26305  11.664   8.544  10.693  0.0464  0.4090 -0.3370
10232W        W26306   8.943   5.465   5.402 -0.1652 -0.1328  0.1940
10233W        W26307   2.001  16.728  10.242 -0.1466 -0.0935 -0.1329
10234W        W26308   6.874  15.298   0.522  0.1219 -0.2578  0.3554
10235W        W26309  12.701   6.891   5.257  0.2732 -0.2796  0.2810
10236W        W26310  12.903  17.467  11.205 -0.0527 -0.3293 -0.1689
10237W        W26311  14.482   6.402  14.816  0.0349 -0.0133 -0.2241
10238W        W26312   5.547  12.941   0.306 -0.7148  0.1037 -0.2248
10239W        W26313  13.326   3.930   4.977 -0.1769  0.0071 -0.2000
10240W        W26314   1.582  18.546  11.609  0.2878 -0.2859  0.3118
10241W        W26315  13.413   9.547  13.148  0.0954  0.0134 -0.0816
10242W        W26316   8.913   3.006   4.392  0.0137 -0.1329  0.2185
10243W        W26317  13.701   0.029   8.907 -0.1506  0.0758 -0.1805
10244W        W26318   4.492  18.907   0.771 -0.0561  0.2614  0.1722
10245W        W26319  11.428   7.036   1.799 -0.1661 -0.1088  0.0122
10246W        W26320  15.477  17.588  14.421  0.1154 -0.1929  0.0220
10247W        W26321  16.950   7.782  11.724 -0.1245  0.1079  0.0370
10248W        W26322  17.381   6.198   3.325  0.2669 -0.1445 -0.0005
10249W        W26323   7.481   3.566   2.267 -0.1923 -0.0953 -0.1176
10250W        W26324  11.154  16.755  14.181  0.1482  0.0713  0.2433
10251W        W26325   8.526  13.942   3.601 -0.0887 -0.0138 -0.2689
10252W        W26326  15.848   6.242  12.619 -0.0522  0.3594 -0.0267
10253W        W26327  18.161   7.091  11.373  0.1161  0.1117  0.1009
10254W        W26328   6.754   0.479   1.909 -0.0862 -0.0345  0.1179
10255W        W26329  16.572  11.544   4.611 -0.0061  0.2053  0.2976
10256W        W26330  17.985   3.294   0.672  0.1005 -0.2700  0.0746
10257W        W26331  19.228  10.136  10.476  0.2971  0.0001 -0.0722
10258W        W26332  13.682   3.457   2.911 -0.1522  0.1106 -0.2523
10259W        W26333   3.044  15.459  11.981 -0.0913 -0.0542 -0.3019
10260W        W26334  17.969  17.864  13.112 -0.2387 -0.4801 -0.1873
10261W        W26335   7.694  16.912  10.919 -0.2176  0.0470  0.0543
10262W        W26336  15.467  14.953  14.074  0.1400 -0.1002  0.1379
10263W        W26337  14.151   3.686  14.303  0.1349 -0.0276 -0.1426
10264W        W26338  11.057  10.149  12.622 -0.2742 -0.2336  0.0328
10265W        W26339   5.154   9.885   0.475  0.0441  0.0551 -0.0274
10266W        W26340   4.238   5.172  14.135  0.0153  0.5767 -0.1036
10267W        W26341   1.623   4.771   4.110  0.1401  0.4369 -0.0740
10268W        W26342   9.462  18.540   1.036 -0.0900  0.3577 -0.1620
10269W        W26343  18.661   5.906  14.000 -0.2154 -0.2601 -0.1746
10270W        W26344   6.035   4.168   1.276 -0.2500 -0.0690 -0.2405
10271W        W26345   1.968  12.105   4.095 -0.0176 -0.1134  0.2801
10272W        W26346   2.816  14.596  12.172 -0.1434  0.1135  0.0785
10273W        W26347  18.314  18.313   3.009 -0.1381 -0.1854  0.1301
10274W        W26348  18.331  13.458   4.361 -0.2397  0.0865  0.2432
10275W        W26349   3.608  13.483   3.552  0.0992 -0.1773 -0.2942
10276W        W26350   9.589   5.795  14.602 -0.0185 -0.0832 -0.0800
10277W        W26351   8.403  10.231  11.462 -0.1592  0.0100  0.2373
10278W        W26352   0.325   1.618   0.925  0.3152 -0.1427 -0.0324
10279W        W26353  12.919   1.107  14.023  0.0803  0.0064 -0.1187
10280W        W26354  17.403  16.563  13.397  0.3062 -0.1011  0.1503
10281W        W26355   9.982  13.116   0.701 -0.2038 -0.1264 -0.0447
10282W        W26356  11.694   2.341   3.709  0.1349 -0.0364 -0.1566
10283W        W26357   5.817   1.325  14.809 -0.0545  0.0275 -0.2913
10284W        W26358   6.439  10.521   1.450 -0.1524 -0.3133 -0.0108
10285W        W26359  11.277  19.261  13.058  0.1201 -0.1348  0.4036
10286W        W26360  15.730  14.977  11.656 -0.2491 -0.1683  0.0128
10287W        W26361  16.999   5.431   0.166  0.1076 -0.0574  0.3372
10288W        W26362  17.487   3.872  10.588 -0.2874  0.2012  0.0977
10289W        W26363   6.497   4.764   3.006  0.0812 -0.0428 -0.2453
10290W        W26364  10.347   7.476   2.606  0.0644 -0.1590  0.0058
10291W        W26365   6.748   9.661  13.819  0.2483  0.4354  0.1471
10292W        W26366   2.813   3.231   3.822  0.0293  0.1251  0.2997
10293W        W26367  19.276   4.978   4.110 -0.1495  0.0273 -0.1138
10294W        W26368  15.523  15.629   0.811  0.1928 -0.0835  0.0987
10295W        W26369   9.988   2.434  12.952  0.1870 -0.1337 -0.1089
10296W        W26370   4.637   1.849  13.716  0.2388 -0.0977 -0.3048
10297W        W26371   7.927  12.920   5.456  0.0136  0.2446  0.0509
10298W        W26372  12.761  11.519  12.812 -0.0977  0.3067  0.0610
10299W        W26373   6.385   0.244  13.058  0.0292  0.2080 -0.4940
10300W        W26374  17.048  14.432  13.153 -0.1562 -0.3148 -0.1726
10301W        W26375  17.085  13.782  14.006 -0.3410 -0.1572 -0.1051
10302W        W26376   8.941  18.564   0.927  0.0480 -0.3024 -0.2274
10303W        W26377  15.501   5.150   2.470  0.0396  0.0464 -0.0091
10304W        W26378   3.867   0.432   2.219  0.0985  0.1642  0.1693
10305W        W26379   2.710  11.386  12.403  0.1013  0.3550  0.0625
10306W        W26380   1.459   4.296   2.174 -0.0121  0.0955 -0.1443
10307W        W26381   6.015   4.682  14.421  0.1379 -0.3236  0.1618
10308W        W26382  11.742  14.840  14.983 -0.0225  0.0053  0.1848
10309W        W26383   9.708  12.613   1.818  0.2286 -0.1552 -0.1738
10310W        W26384  11.044   6.461  14.456  0.4125 -0.0760 -0.0119
10311W        W26385   8.171  16.731  14.181  0.0356 -0.1739  0.0051
10312W        W26386  13.127   1.251   3.172 -0.1293  0.0806 -0.0657
10313W        W26387   4.399  17.168   4.719  0.1008  0.0569 -0.0404
10314W        W26388  18.112   5.504   3.408 -0.1434 -0.6124  0.0807
10315W        W26389  18.008   1.507  13.742 -0.4091  0.0074 -0.0555
10316W        W26390  17.807  17.920  10.054 -0.1067  0.0329  0.2309
10317W        W26391  16.935   4.299  13.764  0.2259 -0.2892  0.0840
10318W        W26392   7.046  17.959   1.480 -0.3878 -0.0150 -0.0977
10319W        W26393  16.106  17.037   0.238  0.1679 -0.1266 -0.0468
10320W        W26394   5.568   8.174   1.671 -0.1346  0.0408  0.2801
10321W        W26395  12.784  18.962   3.258  0.1259  0.0695 -0.0576
10322W        W26396  13.375  15.370   5.172 -0.0351 -0.1678  0.5845
10323W        W26397  17.980   9.535  11.516 -0.1202  0.0898  0.1281
10324W        W26398   6.259  18.648  13.696  0.0838  0.1582 -0.0374
10325W        W26399  17.561  12.904   0.432 -0.1259  0.1647  0.1918
10326W        W26400   2.512  14.042   5.714  0.1841  0.1596 -0.0691
10327W        W26401  18.490  14.398  14.188 -0.4463  0.0655  0.1623
10328W        W26402   3.579   0.054  13.122 -0.2405 -0.1280 -0.0532
10329W        W26403   4.760   4.668   2.868 -0.2314 -0.0375  0.1621
10330W        W26404  16.114  15.467   4.043  0.2755  0.0927 -0.4048
10331W        W26405   6.119   1.033   3.788  0.0768  0.0363 -0.1778
10332W        W26406   9.025  15.513   3.138 -0.0687  0.1657 -0.2877
10333W        W26407   3.479  17.238   1.660  0.1505  0.0403  0.1652
10334W        W26408   4.117  12.239   4.535 -0.2774 -0.2689  0.0348
10335W        W26409   7.344   3.228  12.530  0.1590 -0.0060  0.1736
10336W        W26410   8.068  13.128   2.306  0.3520  0.0415  0.1702
10337W        W26411  16.224  14.742  14.420 -0.3373 -0.1218 -0.1486
10338W        W26412  17.140  13.595  13.328  0.0256  0.3768 -0.0460
10339W        W26413   3.595  13.559   4.937  0.0559  0.0729  0.2712
10340W        W26414   5.362  15.753  11.827 -0.0172 -0.1829 -0.1444
10341W        W26415  18.628  16.804   3.518 -0.3959 -0.0741 -0.0737
10342W        W26416  16.183   7.640  14.684 -0.0055  0.1548 -0.0764
10343W        W26417  12.205   3.825   9.467  0.1441  0.0490 -0.0445
10344W        W26418  11.555  13.697   2.522  0.0067 -0.0187 -0.0323
10345W        W26419   0.020   1.604   2.200  0.2122  0.1689 -0.2873
10346W        W26420  11.272   8.862   4.398 -0.1942  0.0763 -0.2944
10347W        W26421  16.367  18.219  14.252  0.2278 -0.0122  0.0966
10348W        W26422  15.063  16.827  15.037 -0.2173  0.0855 -0.1132
10349W        W26423  14.167  16.945   4.933 -0.0697 -0.3980  0.3480
10350W        W26424   7.879   9.192   0.458  0.0462 -0.2217  0.2467
10351W        W26425   1.932  12.628  14.902 -0.0280 -0.1351 -0.0376
10352W        W26426  11.067  12.885   1.589  0.0508 -0.0023 -0.2153
10353W        W26427  12.617  15.435   2.915 -0.2325 -0.0929 -0.4033
10354W        W26428   9.813  14.833   2.233  0.0851 -0.3528 -0.0951
10355W        W26429  11.199   0.410   9.998 -0.3291  0.0764 -0.2293
10356W        W26430   0.512   3.763   1.760 -0.2856 -0.2939 -0.2054
10357W        W26431   7.668  15.809  13.387 -0.1889  0.2171 -0.0735
10358W        W26432   3.595  16.834   4.531  0.1061  0.1354 -0.0026
10359W        W26433   0.556  13.221   1.239 -0.3953  0.2093 -0.2676
10360W        W26434  12.781  16.415   2.706  0.0506  0.0674  0.4017
10361W        W26435  18.003   0.306   3.317  0.2018 -0.0695 -0.2771
10362W        W26436  12.249   7.534   1.323  0.0720 -0.2874 -0.3803
10363W        W26437  11.876  11.903   3.601 -0.1101 -0.1183 -0.0012
10364W        W26438   7.994   8.988   3.843  0.0908  0.0786  0.3503
10365W        W26439  14.302  17.290  14.561 -0.2194 -0.0618  0.1594
10366W        W26440  14.125  10.352  11.559 -0.2381  0.0072 -0.0855
10367W        W26441   2.729  15.753   0.494  0.2045 -0.3238 -0.1249
10368W        W26442  15.686   6.655  14.850 -0.0001 -0.2184  0.1803
10369W        W26443  13.578  17.249  13.975 -0.1082  0.0793 -0.2605
10370W        W26444   4.207  18.315   1.952 -0.0688 -0.3427  0.2412
10371W        W26445   5.934  11.794  10.268 -0.0309 -0.1836 -0.0111
10372W        W26446   2.385  16.880  14.850  0.2916  0.2621  0.0923
10373W        W26447  16.284  14.540   1.869  0.0759 -0.2343  0.1429
10374W        W26448   1.849  11.222  10.731 -0.4008 -0.1712 -0.0958
10375W        W26449   6.857   3.881   5.401  0.0008  0.0576  0.1772
10376W        W26450  16.793   5.575  13.151  0.2475  0.2262  0.1765
10377W        W26451   6.940   1.328  11.396  0.0076 -0.0582  0.1594
10378W        W26452  18.792  16.229  15.021 -0.1655  0.0211 -0.0335
10379W        W26453   6.051   6.854  12.024  0.4226 -0.1416 -0.0447
10380W        W26454  13.935  13.423  10.597 -0.1267  0.1501 -0.1445
10381W        W26455  11.148  14.451   0.979  0.0580 -0.0005 -0.2032
10382W        W26456  10.881  16.883  13.007 -0.3926  0.0472 -0.0518
10383W        W26457   6.560   8.872   4.515  0.0544  0.1401 -0.0098
10384W        W26458  14.171  13.427   3.825 -0.0295  0.1190 -0.2320
10385W        W26459   1.637  11.422  12.406  0.0330 -0.1459 -0.0995
10386W        W26460   5.336  17.761  12.629 -0.2319  0.2392 -0.1207
10387W        W26461   7.090  14.041   3.450  0.0156  0.1405  0.0762
10388W        W26462  16.439  18.859   3.604 -0.3134  0.0267  0.3402
10389W        W26463   8.303   7.456   3.330 -0.1662  0.2079 -0.1927
10390W        W26464   2.768   4.727   1.094 -0.0462 -0.0366 -0.1725
10391W        W26465   2.701   0.033   1.343  0.0342 -0.0884  0.1460
10392W        W26466  15.785   9.572  14.471 -0.0605  0.3818  0.2721
10393W        W26467  19.293  16.399   4.034  0.4766 -0.1016  0.0337
10394W        W26468   5.404   1.101   2.998  0.2054  0.1296  0.0547
10395W        W26469   7.434   1.103   2.116  0.0497 -0.1942 -0.2217
10396W        W26470  10.751  12.864  14.803 -0.4564  0.3272  0.1185
10397W        W26471  12.551   1.427  10.675  0.8334 -0.1453  0.0589
10398W        W26472   7.935  11.143  14.998  0.0811 -0.1733  0.1135
10399W        W26473   2.302   6.271   0.466 -0.4013  0.0886  0.1765
10400W        W26474   6.424  15.617   4.524  0.2703  0.0910 -0.1273
10401W        W26475   2.549  13.110   1.696 -0.1560 -0.1195 -0.1256
10402W        W26476   9.474  11.234   5.452 -0.1650  0.2609  0.0496
10403W        W26477   5.931  19.208   4.098 -0.2121  0.0647 -0.1434
10404W        W26478  11.225  14.128  12.454  0.1648  0.0913 -0.0154
10405W        W26479   7.920  10.375  13.443  0.1919  0.1150 -0.0357
10406W        W26480  11.326   7.811   3.519  0.2239  0.1276  0.1568
10407W        W26481  13.333   4.748  10.612  0.2599 -0.2353 -0.0960
10408W        W26482   0.008   6.729  13.698 -0.4004 -0.3882  0.2966
10409W        W26483  12.946   6.949  13.077  0.3861 -0.1093 -0.4448
10410W        W26484  18.547  19.013   9.952  0.2001 -0.0517 -0.4192
10411W        W26485  12.136   6.320  13.414  0.1266 -0.1159  0.1299
10412W        W26486   5.584  11.791   3.643 -0.2068  0.4287  0.2436
10413W        W26487   6.415   1.370   2.167 -0.0421 -0.3633  0.0129
10414W        W26488   7.696  17.511  12.388  0.4464 -0.0268 -0.1747
10415W        W26489   4.299  19.291   2.109 -0.0145  0.1886 -0.0537
10416W        W26490  15.036   1.646  10.596 -0.0884  0.3015  0.0100
10417W        W26491   8.826  18.179  12.447 -0.0622 -0.2146  0.3001
10418W        W26492   5.459  16.633  11.668 -0.3664 -0.2415 -0.2075
10419W        W26493  19.042  11.675   2.959  0.0294 -0.0737 -0.0590
10420W        W26494  14.174  10.843   0.561  0.1982 -0.3637 -0.0878
10421W        W26495  12.944   9.201  11.814  0.0422  0.1780 -0.0964
10422W        W26496  10.473   4.547  13.347  0.3737  0.0495 -0.1005
10423W        W26497   7.038   1.801  11.546 -0.1042 -0.1460  0.0449
10424W        W26498   5.183   5.805  13.906  0.0559  0.1866 -0.1295
10425W        W26499   2.530   8.044  10.851  0.1220  0.1245 -0.0740
10426W        W26500  12.652  17.146  14.870  0.0237  0.0226  0.0135
10427W        W26501  12.797  10.538  13.256  0.3922 -0.1703  0.0383
10428W        W26502  10.783   8.401  10.818  0.0391  0.0237  0.3742
10429W        W26503  17.965  11.416  13.463  0.2926  0.1942  0.3018
10430W        W26504   3.926  13.099  11.692 -0.2208  0.0883 -0.0499
10431W        W26505  13.502   5.578  11.046 -0.0805 -0.1692 -0.3044
10432W        W26506  11.709  10.700   3.299  0.0687  0.0855  0.1406
10433W        W26507   8.498   5.034  13.926  0.3814  0.0930  0.0489
10434W        W26508   7.002  17.580  13.604 -0.1999  0.0871 -0.1177
10435W        W26509   5.274  12.314   1.026 -0.2779  0.1952  0.3166
10436W        W26510   3.264   2.115   5.191 -0.0299 -0.1417  0.0458
10437W        W26511  17.939   2.675  13.548 -0.3300 -0.0591  0.0631
10438W        W26512   6.477   2.222   4.062  0.2206  0.0846  0.0686
10439W        W26513  14.057  17.518   1.011 -0.0540  0.1326  0.0551
10440W        W26514   5.323   9.270  10.635  0.0351 -0.0796 -0.3031
10441W        W26515  15.179   4.756  10.597 -0.2319  0.0889 -0.0084
10442W        W26516   6.203  14.874   9.877  0.0717  0.1103  0.2681
10443W        W26517  19.296  18.496  11.577  0.0511  0.1580  0.0194
10444W        W26518   2.268   6.172  15.014 -0.1264  0.0166  0.2545
10445W        W26519   6.710   8.695   0.637  0.1756  0.3728 -0.2289
10446W        W26520  16.704  14.818  14.422 -0.0091  0.0769 -0.0025
10447W        W26521  12.024  13.292  10.509 -0.3314 -0.2416 -0.1718
10448W        W26522  18.716  18.909   2.220 -0.0472 -0.3251 -0.0141
10449W        W26523   8.955  18.051   4.506  0.1376 -0.2709  0.1956
10450W        W26524  14.620   3.459  13.423 -0.0592  0.1592  0.4813
10451W        W26525   4.157  10.605  14.741 -0.4037  0.2260  0.2167
10452W        W26526   3.529   7.214  12.037  0.1497  0.0798 -0.1552
10453W        W26527  11.540  16.648  13.378  0.2993  0.1186 -0.2851
10454W        W26528  15.472   0.599  13.200  0.0792 -0.2320  0.2048
10455W        W26529  14.096  16.185   4.413 -0.1191 -0.1388 -0.0088
10456W        W26530  10.033   8.052   1.498 -0.1788  0.3681  0.0110
10457W        W26531   9.826  10.745   1.540  0.1295 -0.0085 -0.1463
10458W        W26532  16.515   8.740   2.323 -0.3325 -0.4910  0.0868
10459W        W26533  12.006   9.307   4.674 -0.0984  0.1345 -0.2723
10460W        W26534   6.669  12.370  12.279 -0.0678  0.1502  0.1883
10461W        W26535   3.966   0.796   1.881 -0.0692 -0.1318  0.0279
10462W        W26536  14.397   9.335   0.952  0.0755 -0.0959 -0.1313
10463W        W26537   0.299   2.219  11.428  0.0224  0.3483 -0.0383
10464W        W26538   6.176  15.234  10.966 -0.4767 -0.0615 -0.2431
10465W        W26539   1.327   3.265   4.627 -0.0968  0.1034  0.0903
10466W        W26540  10.883  17.667   1.606  0.0383 -0.1519  0.0845
10467W        W26541  17.638  16.261   2.458  0.1564  0.2285 -0.0088
10468W        W26542   7.323  10.131   0.582  0.0720  0.1425 -0.0891
10469W        W26543   3.860  18.006   3.212  0.1585  0.3184 -0.0076
10470W        W26544   8.977  13.284  13.129  0.1014  0.1439 -0.1933
10471W        W26545  13.793  12.891   0.680 -0.3695 -0.1742  0.1161
10472W        W26546  16.529  13.876  14.365 -0.2569  0.0180 -0.0909
10473W        W26547  12.810   8.529   2.380 -0.2769  0.0547 -0.2231
10474W        W26548  13.869  16.986   2.433  0.0749  0.1645  0.1039
10475W        W26549   3.483  10.911  13.810  0.0334  0.1231 -0.3429
10476W        W26550   4.020   2.483   0.708 -0.0943 -0.2482  0.2057
10477W        W26551  12.641   5.641   1.437 -0.1166 -0.0120  0.2017
10478W        W26552  17.762   8.138  13.822 -0.3809 -0.1183 -0.3925
10479W        W26553  17.225  15.778  11.352  0.0352 -0.0384  0.1740
10480W        W26554   0.636   8.406  12.800  0.1000 -0.1241  0.0100
10481W        W26555   8.094  18.160  11.361  0.1932  0.0071  0.0547
10482W        W26556   8.508  11.352   3.286 -0.1515  0.3131  0.1572
10483W        W26557   6.242  14.826  13.503  0.0064  0.2891  0.1183
10484W        W26558   8.905  18.220   0.066 -0.2568 -0.2380  0.0191
10485W        W26559   8.664   8.187   2.693  0.0658  0.1398  0.0050
10486W        W26560  14.909  16.271  13.636 -0.1592 -0.1266 -0.0666
10487W        W26561  18.473  16.430  12.210 -0.0534  0.1356 -0.0244
10488W        W26562  18.553  15.405   3.718 -0.2492 -0.5058  0.0943
10489W        W26563   9.105  14.459   1.005 -0.1817 -0.4095  0.1623
10490W        W26564  17.710  16.129  10.120  0.4751  0.1004 -0.2517
10491W        W26565  17.189  12.656   4.210 -0.0833 -0.0371 -0.0478
10492W        W26566  12.749  15.226   9.601  0.2675 -0.0164  0.1504
10493W        W26567   6.804   8.271  10.172 -0.0149  0.0491 -0.0501
10494W        W26568  16.389   7.288   3.878  0.1074 -0.0933  0.3088
10495W        W26569   5.245   3.712  10.027 -0.2325 -0.0385 -0.1039
10496W        W26570  11.606   7.890  13.724  0.1145 -0.4018  0.0978
10497W        W26571   6.550   8.150   0.530 -0.0053  0.1935 -0.0842
10498W        W26572   7.987  12.309  12.621  0.2511 -0.0884  0.2207
10499W        W26573  10.196   2.885  10.588  0.1350  0.1950  0.2286
10500W        W26574  11.557   9.408   3.986 -0.1682 -0.1904 -0.0707
10501W        W26575  13.889   7.886   1.024  0.2456 -0.0885 -0.1004
10502W        W26576   3.053   7.736  13.561 -0.3601  0.3327  0.3456
10503W        W26577   7.136   0.294   4.334  0.1743  0.0379  0.2722
10504W        W26578   9.468   1.167   1.858 -0.2202  0.4534  0.0735
10505W        W26579   3.131   2.985  11.837 -0.1336  0.2715  0.0832
10506W        W26580  15.780  11.435   4.644  0.0914 -0.1959  0.1657
10507W        W26581  14.644   5.958   1.231 -0.2879 -0.4150 -0.1227
10508W        W26582   8.218  14.788   0.235 -0.0290 -0.1986 -0.0076
10509W        W26583  12.118  15.930   5.310 -0.3663  0.0727 -0.1296
10510W        W26584  18.726   4.778  12.803 -0.1189 -0.2623  0.1173
10511W        W26585   8.379   7.193   4.625  0.0095  0.0739  0.0519
10512W        W26586   3.082   7.347  12.761 -0.0751 -0.0640  0.1234
10513W        W26587   0.006  14.782  10.168 -0.1077 -0.4656  0.1766
10514W        W26588  17.332   6.743   2.557  0.0525  0.0390  0.1750
10515W        W26589  18.069   7.871   3.830  0.0657  0.0363 -0.3279
10516W        W26590   8.586  13.308   0.637 -0.0247 -0.0332 -0.0505
10517W        W26591   6.241  11.179   3.891  0.2477 -0.1656 -0.0008
10518W        W26592   3.062  12.073  13.171 -0.1079  0.1630 -0.0385
10519W        W26593   4.431   8.771   1.893 -0.0662  0.0343  0.1323
10520W        W26594   4.146   7.957   2.715 -0.4361  0.0131 -0.3499
10521W        W26595  18.768   9.301  13.895  0.0258  0.1742  0.1627
10522W        W26596  17.885  16.715   2.797 -0.4428  0.0718  0.4074
10523W        W26597   9.299  13.717  12.856  0.2084 -0.1794  0.0358
10524W        W26598  18.056   6.005  14.783 -0.0643 -0.0719 -0.1100
10525W        W26599  16.911  10.359   2.372  0.3096  0.2090  0.0713
10526W        W26600  10.301   6.177  14.994 -0.0088 -0.0185  0.1177
10527W        W26601  13.726   8.039  11.609 -0.0458  0.2393  0.1602
10528W        W26602   6.561  13.990   0.884  0.0492 -0.0010 -0.0066
10529W        W26603  17.702   7.071   1.382 -0.1332  0.0315  0.5434
10530W        W26604   5.725  15.266   1.798  0.0799  0.1110  0.1223
10531W        W26605  16.451  18.316  13.690  0.3869  0.1068 -0.2292
10532W        W26606  18.953  16.368  12.288  0.0383  0.3842 -0.1864
10533W        W26607  16.609  16.189   1.088 -0.1196  0.3540  0.2322
10534W        W26608  14.877   9.651   0.063 -0.2151 -0.0961 -0.0352
10535W        W26609  16.326   4.170   2.166 -0.1978  0.0359  0.3351
10536W        W26610   6.796   5.395  14.014 -0.5560  0.0759 -0.0097
10537W        W26611   8.128   7.195  13.203  0.0740  0.1008  0.5180
10538W        W26612   3.602  15.706  12.207  0.3220 -0.1425  0.1009
10539W        W26613   4.997  13.845   4.678  0.3637 -0.0435 -0.1900
10540W        W26614  17.295   7.046   2.957  0.0524  0.1599 -0.3181
10541W        W26615   8.268  12.704   2.086  0.1660  0.0665 -0.3501
10542W        W26616  10.663  12.184  11.988  0.0766  0.0252  0.1776
10543W        W26617   7.197  15.424   1.224  0.1318 -0.0613  0.1050
10544W        W26618  19.108   1.521  12.792  0.1894 -0.0354  0.0303
10545W        W26619   4.223   1.036   4.072 -0.2351 -0.0367 -0.0189
10546W        W26620   8.208   7.988  13.649 -0.0350 -0.0822  0.2166
10547W        W26621  13.928  17.288  10.884  0.2323  0.0431  0.1972
10548W        W26622  11.110  16.896   3.778  0.0642  0.0297  0.2548
10549W        W26623   6.876   9.168   0.549  0.1979  0.0116 -0.1482
10550W        W26624   6.034  18.353   3.426 -0.1463  0.1955 -0.1059
10551W        W26625   6.889  15.991  14.121  0.0782 -0.0709 -0.2771
10552W        W26626   1.069   5.167   3.980 -0.1823 -0.1334 -0.3686
10553W        W26627   3.100  14.841   1.593  0.0537  0.0018  0.1913
10554W        W26628  17.851   9.980   4.430  0.2239 -0.0502 -0.0203
10555W        W26629   7.906   9.658   1.274  0.2366 -0.2535 -0.0308
10556W        W26630   5.241   7.245  12.091 -0.0797  0.0819  0.1138
10557W        W26631   0.700  18.632  10.574 -0.3059  0.3818  0.2908
10558W        W26632  11.058  18.487   3.180  0.0435 -0.2054  0.1338
10559W        W26633   7.807  14.483   4.534 -0.0669 -0.2678 -0.1123
10560W        W26634   0.818  11.263   1.596 -0.0634 -0.0362  0.0727
10561W        W26635   2.949   9.824  11.634 -0.1096 -0.4436 -0.1467
10562W        W26636   8.068  17.106   1.658  0.0654 -0.0219 -0.0821
10563W        W26637  12.680   0.678   3.959  0.1941  0.0546 -0.2138
10564W        W26638   7.380   9.547   1.436  0.1440 -0.2001 -0.0917
10565W        W26639   6.332  13.961   2.884 -0.1725  0.2459 -0.0176
10566W        W26640   1.366   9.522   1.627 -0.3681 -0.2627  0.0231
10567W        W26641   0.521   5.298  13.879 -0.1980 -0.1619 -0.1591
10568W        W26642  11.768   5.493   2.955  0.0375  0.1217 -0.0155
10569W        W26643  14.838  11.842   0.798  0.1048  0.0608 -0.0471
10570W        W26644  11.432   1.703  14.798 -0.1696 -0.0018  0.2591
10571W        W26645   9.198   9.357   5.738  0.1836 -0.0825  0.0532
10572W        W26646  15.363   1.068   2.775  0.4907 -0.0050  0.4336
10573W        W26647  10.135  12.679  14.547  0.3015  0.1053  0.0582
10574W        W26648  14.043  15.240   9.546 -0.1090  0.1293 -0.0030
10575W        W26649   3.555   9.582   4.154 -0.2307  0.1656 -0.1316
10576W        W26650  17.254   4.165   0.078 -0.0122  0.2013 -0.0761
10577W        W26651   7.815  11.599  11.945  0.1024 -0.0386 -0.1541
10578W        W26652  15.463   0.325  11.538 -0.0412 -0.4109 -0.1735
10579W        W26653   8.580  12.337   4.362 -0.0338  0.0725 -0.1835
10580W        W26654  17.494  15.580  11.005 -0.0493  0.0874 -0.1025
10581W        W26655  16.589   1.324   1.482  0.3477 -0.3600 -0.0658
10582W        W26656   6.709   6.677   4.827  0.0984  0.0687  0.2045
10583W        W26657   9.947   2.870   1.356  0.0926 -0.2530  0.3433
10584W        W26658  15.491  19.195   3.145  0.0570 -0.0871  0.0142
10585W        W26659  19.140  10.102   9.934 -0.1241  0.1012 -0.0413
10586W        W26660   6.544   4.638  11.192  0.0826  0.1203 -0.0396
10587W        W26661  16.554   9.640   3.965 -0.1731 -0.0224  0.1392
10588W        W26662   6.451  12.465  12.757 -0.1131 -0.4962 -0.0139
10589W        W26663   1.473  11.285   2.297 -0.4179  0.1803  0.2128
10590W        W26664   9.609  18.007  12.811  0.0275  0.0637 -0.0514
10591W        W26665  14.566   9.327  14.893  0.1751 -0.2507  0.1745
10592W        W26666  15.590   2.790   3.115 -0.0742  0.0066 -0.0316
10593W        W26667   2.261   5.798  11.426 -0.2325  0.0422 -0.6009
10594W        W26668  11.115   4.967  14.322 -0.1691  0.1035  0.0597
10595W        W26669   4.707   9.574   1.513 -0.4804 -0.3064 -0.0531
10596W        W26670   0.358  17.775  14.242  0.1468  0.0188 -0.1030
10597W        W26671   7.226   6.388   2.542  0.1445 -0.0683 -0.1344
10598W        W26672   9.634  15.513  14.817 -0.0283  0.1816 -0.5346
10599W        W26673   6.410  10.222   0.958 -0.1651 -0.1132  0.2161
10600W        W26674  12.506  17.048  11.834  0.4038 -0.1282  0.0379
10601W        W26675   0.003   1.903   2.635 -0.0484  0.1621 -0.2134
10602W        W26676  11.300  13.178  10.971 -0.0862 -0.2269  0.3492
10603W        W26677   5.267   4.482   2.523  0.0866  0.0170 -0.0781
10604W        W26678  14.366   3.289  13.801 -0.1327 -0.1609 -0.3253
10605W        W26679   6.340  15.738   3.650 -0.0229  0.0670 -0.0969
10606W        W26680   3.385   3.834  12.312 -0.1581 -0.0461  0.0059
10607W        W26681  17.612  18.419   4.191 -0.4157 -0.0493  0.3251
10608W        W26682   1.735   8.863   4.580  0.1901 -0.0181  0.1849
10609W        W26683  10.525  15.791   0.260  0.2334 -0.1208 -0.0501
10610W        W26684   6.707   4.533   0.356 -0.1264  0.2150  0.2874
10611W        W26685   0.071  18.184  10.814  0.2798 -0.0028 -0.1101
10612W        W26686   3.233   9.008  14.687 -0.1564  0.4764 -0.1072
10613W        W26687  14.327  15.761   0.757 -0.2598 -0.0252  0.0274
10614W        W26688   1.816   2.294  12.570 -0.2366  0.1058 -0.0585
10615W        W26689   2.491   0.241   0.903 -0.0363 -0.2130  0.0379
10616W        W26690   8.360   5.918  11.710  0.1580  0.0444  0.0918
10617W        W26691  10.479  17.593   3.796  0.3537 -0.0252  0.0744
10618W        W26692  15.767  10.128  14.203 -0.2512  0.1958 -0.1374
10619W        W26693   9.720  10.100   5.132 -0.2165 -0.1818 -0.0678
10620W        W26694  11.694  13.971  10.719 -0.0193 -0.1610 -0.0011
10621W        W26695  17.201  15.928   1.879  0.2381  0.0731  0.0299
10622W        W26696  13.609  10.432  10.849 -0.1329 -0.2484 -0.0600
10623W        W26697   7.753   6.729  11.838  0.1911 -0.0333  0.5611
10624W        W26698  13.412   0.281   2.100  0.2483 -0.1062  0.2731
10625W        W26699   8.700  13.124   5.052 -0.0272  0.0723  0.1448
10626W        W26700   2.080  13.870  12.285 -0.0859  0.3117  0.0415
10627W        W26701  11.207   3.564   0.083  0.0754 -0.1515 -0.0159
10628W        W26702   1.489   3.856   1.400 -0.1143  0.0503 -0.3008
10629W        W26703   2.935   3.427   3.114 -0.1275  0.0147  0.1918
10630W        W26704   0.733  19.149  10.477  0.1910  0.2586 -0.0751
10631W        W26705   3.694  16.227  12.390  0.0171 -0.0895  0.0367
10632W        W26706  14.469   8.967  13.841  0.1351  0.2043  0.0535
10633W        W26707  17.351  19.206   0.488 -0.4627  0.1397 -0.1948
10634W        W26708   7.728  14.288   3.946  0.0162 -0.0746  0.0314
10635W        W26709   6.246  11.927  13.055  0.0457  0.0924  0.2290
10636W        W26710   5.147   3.211   3.940 -0.2930 -0.0327 -0.3641
10637W        W26711  14.826   0.654  10.500 -0.2290  0.2073  0.1703
10638W        W26712  15.818   6.181   3.739  0.0119 -0.0822 -0.0847
10639W        W26713   7.718  10.810   4.993 -0.1559 -0.2813  0.3215
10640W        W26714  15.715  12.145  11.216 -0.1734  0.3937 -0.0081
10641W        W26715   7.351   1.548   4.099  0.3052 -0.1197 -0.0955
10642W        W26716  10.931   5.329   1.422  0.0278  0.0772 -0.1992
10643W        W26717  13.211   5.864  12.018  0.0447 -0.0722 -0.3738
10644W        W26718   7.202  14.445  13.673 -0.1160 -0.2837 -0.0620
10645W        W26719  15.043  17.515   0.848  0.2033  0.0271  0.1935
10646W        W26720  13.289   9.289  14.046 -0.5084 -0.0058  0.0137
10647W        W26721  17.075  14.068   1.517 -0.3665 -0.2002  0.1147
10648W        W26722  13.799  10.714   1.118 -0.3016 -0.0229 -0.0735
10649W        W26723   4.032   5.531   0.455 -0.2191  0.2806  0.1674
10650W        W26724  18.113  13.662   2.061 -0.0275 -0.1385  0.1616
10651W        W26725  12.030   3.461   3.313  0.4666  0.1420 -0.0176
10652W        W26726  11.383   4.023  13.741  0.2356  0.0828  0.3962
10653W        W26727   6.425  16.075  12.183  0.2851 -0.1707 -0.1307
10654W        W26728  16.315   0.528  11.469 -0.0449 -0.1835  0.0574
10655W        W26729   8.980  10.601   1.818  0.2891  0.0602 -0.0791
10656W        W26730   5.747   7.474  14.398 -0.2131  0.2146 -0.0417
10657W        W26731   9.543  14.872  11.148 -0.0367 -0.1252 -0.1616
10658W        W26732  17.477  15.251   3.974  0.3819  0.0386 -0.2479
10659W        W26733   0.388   2.698  11.571  0.1939  0.1063 -0.0940
10660W        W26734  12.258  13.440  12.260  0.0717  0.2603 -0.0850
10661W        W26735   4.877   6.450   2.489  0.2747 -0.0606 -0.0535
10662W        W26736  15.449   9.496   0.604  0.0711  0.0248 -0.0304
10663W        W26737  10.806   4.114   5.585  0.5834  0.3130 -0.0878
10664W        W26738  11.135   8.340  11.110  0.0704 -0.0666  0.1324
10665W        W26739  10.554   1.990  12.367  0.1826  0.1875 -0.2037
10666W        W26740  18.104   3.305   9.596 -0.2231  0.0129 -0.2779
10667W        W26741   8.080   2.862  12.318  0.3250  0.0204 -0.3019
10668W        W26742  11.913  10.513   3.799 -0.3286  0.3213  0.3395
10669W        W26743  14.092   7.665  11.221  0.2784 -0.1761 -0.1148
10670W        W26744   9.562   3.275   0.744  0.2482 -0.0805 -0.0875
10671W        W26745  12.938  15.746  12.820 -0.1125 -0.2663 -0.2179
10672W        W26746  11.445  12.198  13.290  0.2127  0.1460 -0.2225
10673W        W26747  11.206   0.635   3.319 -0.1587 -0.1612 -0.3017
10674W        W26748   6.313  19.075   1.719 -0.0236 -0.4329 -0.0572
10675W        W26749  16.834   0.398   4.972 -0.1142 -0.0438 -0.0285
10676W        W26750   0.113  16.952   0.209 -0.0128  0.3152  0.0435
10677W        W26751   2.609   4.141  11.924  0.4010 -0.4745  0.1788
10678W        W26752   9.745  18.365   0.286  0.0006 -0.1064  0.2505
10679W        W26753  16.313   3.457  12.672 -0.0626 -0.2475 -0.2424
10680W        W26754  12.254   6.107   1.106 -0.2307 -0.1516  0.0699
10681W        W26755  15.937   1.922   4.995 -0.1148  0.2426 -0.1346
10682W        W26756   5.190   6.275   3.777 -0.1830  0.1724  0.2728
10683W        W26757   8.861  18.157   2.721  0.2122 -0.1308  0.1602
10684W        W26758  13.000   3.833   0.735  0.3268 -0.0266  0.4568
10685W        W26759   1.070  13.461   4.872  0.0387  0.0593  0.0138
10686W        W26760   8.467   2.545  14.660  0.1764 -0.0216  0.0199
10687W        W26761  11.304   5.509   0.329  0.1400  0.3772 -0.1082
10688W        W26762   3.135   0.298  13.331  0.2141 -0.2293 -0.0101
10689W        W26763   2.232   1.987   2.467 -0.1009  0.4237 -0.3180
10690W        W26764   0.857   4.518   2.127 -0.1366  0.0315 -0.0644
10691W        W26765   4.343  11.965   1.190  0.1775 -0.2781  0.0542
10692W        W26766  17.495  16.483   4.817 -0.2552  0.3582  0.0074
10693W        W26767  10.491   9.695  11.650  0.0984 -0.2118 -0.0233
10694W        W26768   9.916  16.199  13.232 -0.3259  0.4986  0.4106
10695W        W26769  17.044  18.908   3.333 -0.3178 -0.0767 -0.0343
10696W        W26770   7.442  10.501   3.533  0.1020  0.1434  0.0454
10697W        W26771  14.066  12.237  10.772 -0.1744 -0.0532  0.0203
10698W        W26772  12.359  16.191  14.107 -0.1293 -0.1045 -0.1207
10699W        W26773   7.182   4.599  14.092 -0.1689 -0.4192 -0.3767
10700W        W26774   4.117  11.014  12.489 -0.1377 -0.1468  0.0038
10701W        W26775  16.911   4.937   2.096  0.0732 -0.1199  0.1457
10702W        W26776  15.153   5.087  11.049 -0.1006  0.2345 -0.2012
10703W        W26777   0.255  17.752   1.325  0.0454  0.1414 -0.3776
10704W        W26778  16.019   9.646   0.651  0.2338  0.0793 -0.1313
10705W        W26779  17.516  17.677  13.352 -0.0607 -0.0671  0.1781
10706W        W26780   3.044   8.840  10.863  0.1198 -0.1757 -0.3163
10707W        W26781   8.818   0.029   1.143 -0.2508 -0.0201 -0.0365
10708W        W26782  15.363   9.295   0.172  0.0679  0.0100 -0.1860
10709W        W26783   0.763   5.751   4.098 -0.2153  0.1264  0.2517
10710W        W26784   9.557  12.392   5.570 -0.1019 -0.0318 -0.3081
10711W        W26785   2.012  11.860  12.399  0.1357 -0.2132 -0.0571
10712W        W26786  18.783   0.623  14.491  0.2872  0.0903 -0.1059
10713W        W26787  18.104   9.623   0.240  0.1344  0.4225 -0.1324
10714W        W26788   1.232  16.008   4.338 -0.2048  0.3063  0.1019
10715W        W26789  13.032   0.341  12.670 -0.1726 -0.2624 -0.0053
10716W        W26790   8.673   2.868   3.947  0.0226  0.1084 -0.0396
10717W        W26791   2.447  11.394  12.898  0.0631 -0.1995  0.0430
10718W        W26792   4.255  17.085   3.906 -0.2987  0.0637 -0.3039
10719W        W26793  13.172   8.020   1.103 -0.2428 -0.0361  0.1516
10720W        W26794   6.705  15.674   1.572 -0.2266  0.0983  0.0363
10721W        W26795  10.344  17.896   1.222 -0.3393  0.1183 -0.0097
10722W        W26796   8.846  17.828  14.635 -0.2290 -0.2663  0.2034
10723W        W26797   0.614  14.948  10.754 -0.0256  0.1856 -0.1949
10724W        W26798  12.106  18.577  14.267 -0.1209  0.1000  0.2175
10725W        W26799   8.694   1.265   4.046  0.0557  0.0147 -0.2634
10726W        W26800  16.664   1.450   2.350 -0.0536  0.1249  0.2510
10727W        W26801  12.950   4.306  14.634  0.1356 -0.0242  0.0586
10728W        W26802  12.350  16.018   2.202  0.0916  0.1271 -0.2587
10729W        W26803  15.412   8.562  13.640 -0.0553 -0.0527  0.2718
10730W        W26804   6.021  11.937  14.748  0.0570 -0.1300  0.1228
10731W        W26805  11.725  18.274   1.951  0.0305 -0.1945  0.2328
10732W        W26806   4.496  11.507   4.322 -0.0288 -0.0749  0.0816
10733W        W26807  16.782  19.215   0.663  0.2747  0.0861  0.2926
10734W        W26808  14.932   5.699   4.351 -0.1091 -0.0198 -0.4967
10735W        W26809  11.468  13.000   1.794  0.2687 -0.1976 -0.1271
10736W        W26810  17.843   9.274  12.795 -0.1992  0.3429  0.2370
10737W        W26811  12.294  15.191   4.871  0.1838  0.1482 -0.0298
10738W        W26812  16.370   9.249  12.309  0.0092 -0.1403 -0.1452
10739W        W26813  18.973   5.157  12.369  0.0516  0.1154 -0.2486
10740W        W26814  15.347   7.486  14.291  0.0942 -0.2357  0.1209
10741W        W26815   3.094  17.367   2.163 -0.0375  0.0727 -0.3951
10742W        W26816   7.854  16.657   0.603 -0.0300  0.1078  0.3151
10743W        W26817   9.630   9.978   3.905  0.1196  0.2660  0.3678
10744W        W26818   2.421   4.382   5.106  0.2083  0.0100 -0.0700
10745W        W26819   8.392  17.404   1.159  0.3234 -0.2622 -0.0246
10746W        W26820   7.255   3.517  14.752 -0.2984  0.2076  0.2894
10747W        W26821  17.878   5.128   2.925 -0.1565 -0.0494 -0.3645
10748W        W26822  15.259  18.358  11.340  0.0510 -0.5451  0.0765
10749W        W26823  10.877  15.659  13.015  0.2956 -0.5472 -0.4491
10750W        W26824  11.773  11.455   3.540 -0.3821  0.0933  0.3016
10751W        W26825   0.315   6.853   3.115 -0.2006 -0.0686  0.0732
10752W        W26826  15.570   0.428  14.758 -0.1596  0.1261  0.2242
10753W        W26827   2.028  13.853   4.366 -0.0758 -0.1068 -0.0683
10754W        W26828  18.273   9.624   3.516 -0.1422 -0.0643  0.4457
10755W        W26829   6.406  11.383  10.810 -0.0916  0.2137 -0.3896
10756W        W26830  15.834   8.661   3.892 -0.1629  0.0399  0.0110
10757W        W26831  10.997  11.269  10.116  0.3094 -0.2694 -0.0092
10758W        W26832  14.099   3.221   0.232 -0.0387  0.0199  0.0135
10759W        W26833   3.396   0.475   4.143  0.2116 -0.3037 -0.3734
10760W        W26834   9.242   0.063   2.021  0.1052 -0.0886  0.0756
10761W        W26835   5.577   0.828   2.611  0.2463  0.2799 -0.0552
10762W        W26836   7.716   4.485   5.514 -0.0310  0.2676 -0.1898
10763W        W26837  16.894  18.414  13.563  0.1110  0.1656 -0.0551
10764W        W26838   6.816   5.657  14.700 -0.0943  0.0337 -0.0240
10765W        W26839   8.312   0.757  13.569  0.0397 -0.0190 -0.1081
10766W        W26840  11.920   8.916   2.484 -0.0813  0.3000  0.3584
10767W        W26841   8.561   2.765  12.801  0.2283  0.0458  0.0623
10768W        W26842   1.630  13.814  11.095 -0.0168  0.1704  0.0513
10769W        W26843  15.786   4.371  11.511 -0.5189 -0.0084  0.2596
10770W        W26844  17.694  12.634  11.458 -0.0360 -0.1640 -0.0388
10771W        W26845  17.482   6.529  13.869 -0.1374  0.1502  0.1681
10772W        W26846  14.834  11.178   4.621  0.1874 -0.2982  0.0536
10773W        W26847  15.713   6.255  13.549  0.0664  0.1233  0.2067
10774W        W26848   6.726   9.488   0.987  0.2814  0.3897  0.2087
10775W        W26849   4.672  14.134  13.197  0.1145 -0.1032  0.1112
10776W        W26850   8.544  16.453   0.192  0.1653 -0.0294  0.2838
10777W        W26851  10.795   7.272   2.202 -0.0071  0.0680  0.2848
10778W        W26852  17.750  12.538   3.871 -0.0383  0.2532  0.0792
10779W        W26853  10.937  16.451   1.874 -0.2418  0.0583 -0.3233
10780W        W26854  12.703   8.947   2.119 -0.1605 -0.1801  0.1705
10781W        W26855   7.468  12.019   5.709 -0.3079 -0.0284  0.0840
10782W        W26856   1.252   6.408   2.895 -0.0635  0.0720 -0.2797
10783W        W26857   1.131   7.025  12.592  0.4163 -0.0938  0.2954
10784W        W26858  12.227  12.023  13.883 -0.3805  0.0452  0.1615
10785W        W26859   2.534  11.548   3.675 -0.0019 -0.1413  0.0448
10786W        W26860   7.722   4.073   2.905  0.0088 -0.1123  0.0233
10787W        W26861  16.731  15.168   1.681  0.2582 -0.1181  0.0543
10788W        W26862  10.173   1.178   4.182  0.1999 -0.0805  0.1847
10789W        W26863  11.395  15.764  11.609  0.3448  0.3951 -0.2974
10790W        W26864   3.187  17.081   0.038  0.0927  0.2675 -0.0974
10791W        W26865   0.344   0.523  10.157  0.0193  0.1501  0.2633
10792W        W26866   0.818  16.872   2.261 -0.1622 -0.2610 -0.1460
10793W        W26867  10.853   0.230  10.714 -0.1674 -0.0533 -0.1944
10794W        W26868  14.416  12.449   1.439 -0.0297 -0.0943 -0.2556
10795W        W26869   6.633   8.512  14.654  0.1414  0.0948  0.1604
10796W        W26870   0.797   4.250   1.709  0.2202 -0.0698  0.3812
10797W        W26871  11.979  14.396   0.582 -0.0545 -0.0973 -0.0689
10798W        W26872   6.256   2.677   0.093  0.0021  0.0177 -0.0093
10799W        W26873  11.543  17.811   0.792 -0.0057 -0.3857 -0.1091
10800W        W26874  15.220   6.759   3.327 -0.1952 -0.2235 -0.0764
10801W        W26875  13.797   8.068   5.693  0.0627 -0.6105 -0.0720
10802W        W26876  16.264   3.128   9.397  0.0570 -0.0794  0.2018
10803W        W26877   0.100   1.055   2.194  0.4374  0.3893  0.1971
10804W        W26878  13.088   5.926   2.949 -0.0119  0.1641 -0.1650
10805W        W26879  16.140  14.320   0.693  0.4246 -0.0585  0.1038
10806W        W26880   5.906   3.794   4.840  0.0610  0.1719 -0.1145
10807W        W26881   8.313   1.046  11.116 -0.0390 -0.0145  0.0918
10808W        W26882   7.263   2.442  12.140  0.1910 -0.0842 -0.1991
10809W        W26883  12.693  13.327  14.931 -0.0251 -0.3654 -0.0054
10810W        W26884   6.654   5.035   0.342 -0.3735  0.1504  0.2024
10811W        W26885   9.333  19.096   0.004 -0.1881 -0.0547 -0.1262
10812W        W26886   4.877  11.388  12.793 -0.1462  0.2744  0.1625
10813W        W26887  13.125   7.796  12.871  0.1758  0.1746 -0.3786
10814W        W26888   0.965  10.923  10.767  0.0997  0.1907  0.0611
10815W        W26889  17.036  15.185  14.399  0.3353  0.0234  0.0248
10816W        W26890  10.842   1.651   5.017 -0.0091  0.0306 -0.1670
10817W        W26891   1.216  17.180   1.480  0.2469 -0.1589  0.1477
10818W        W26892   6.078  12.632  11.313  0.1428 -0.3084 -0.1068
10819W        W26893  13.794   8.995   0.035  0.1778  0.1081  0.1023
10820W        W26894  16.243  14.891   1.450 -0.2123  0.0637  0.1005
10821W        W26895  18.161   0.088  11.834  0.3524  0.4895 -0.2664
10822W        W26896   4.100  15.730   3.507  0.1400 -0.0561  0.0583
10823W        W26897   4.111  10.733   2.211  0.1356 -0.1586 -0.2185
10824W        W26898   9.795   4.630   0.898 -0.0107  0.2630 -0.0499
10825W        W26899  18.047   6.426   3.001  0.0597 -0.2687  0.1701
10826W        W26900   2.788  13.956   2.486 -0.4130 -0.2672 -0.0921
10827W        W26901  17.788  17.718   8.959 -0.1293 -0.2951  0.0322
10828W        W26902   3.791   4.764  13.848 -0.1650  0.0396  0.1604
10829W        W26903  11.305  13.080  13.192 -0.1416 -0.2801 -0.0821
10830W        W26904   5.221  16.545   1.664  0.0633 -0.0586 -0.0576
10831W        W26905   7.280   9.701  14.642  0.0857  0.3197 -0.0104
10832W        W26906  15.125   1.666   4.272 -0.0544 -0.0531  0.5955
10833W        W26907   1.984  11.990   0.384 -0.0022  0.2091 -0.3084
10834W        W26908  15.986  12.659  10.421 -0.1284  0.1265  0.0356
10835W        W26909   5.180  16.703  13.426  0.1804 -0.0530  0.0892
10836W        W26910   3.331   3.398   3.443 -0.2788 -0.1581 -0.0507
10837W        W26911  13.444  13.794  11.645  0.0885 -0.0310 -0.0334
10838W        W26912   1.577   8.261   1.657  0.0191 -0.1227 -0.0843
10839W        W26913  11.975   5.186   5.247 -0.1565 -0.0875  0.0248
10840W        W26914   7.961  11.170  14.101  0.4892  0.0926  0.0935
10841W        W26915   9.132  16.971   3.248  0.0095 -0.1608  0.0748
10842W        W26916   4.159   7.913  14.212 -0.2422 -0.2830 -0.1030
10843W        W26917  17.231   5.373   3.905  0.2240 -0.1791  0.2104
10844W        W26918   2.437   4.903  13.025  0.0765  0.1954  0.0490
10845W        W26919   4.365   8.946  10.960  0.3011  0.1851  0.0741
10846W        W26920   3.513   4.097   1.285 -0.1830 -0.2075  0.0495
10847W        W26921   4.549   9.838   4.483 -0.2324  0.0429 -0.2351
10848W        W26922   5.292   4.736   5.799 -0.1574 -0.2461  0.2762
10849W        W26923  17.518  17.126   2.143 -0.3298 -0.1037 -0.1017
10850W        W26924   4.120   8.377   1.458  0.3293 -0.2636 -0.0399
10851W        W26925  19.292  18.714   0.868  0.0486  0.1248 -0.0883
10852W        W26926   6.295  10.835  12.025 -0.2183 -0.0208 -0.1470
10853W        W26927   0.584   2.465   1.926  0.0401 -0.0006  0.0698
10854W        W26928  12.487   8.239  13.690  0.1934  0.1152 -0.2594
10855W        W26929  16.304  19.221   9.501  0.0663 -0.0989  0.0720
10856W        W26930   5.170   2.882   2.133  0.2577  0.1419 -0.0981
10857W        W26931  15.421  14.067  14.484 -0.2384  0.2191 -0.1178
10858W        W26932  18.068   9.400  14.014 -0.2983  0.0432  0.1362
10859W        W26933  15.563  18.428   1.446  0.1179 -0.1131 -0.0765
10860W        W26934   8.193  10.627   1.118 -0.2447 -0.1885 -0.0687
10861W        W26935   4.081  12.938   1.709 -0.1238 -0.2256 -0.6519
10862W        W26936   6.007   5.964   2.401 -0.1587  0.0644 -0.1097
10863W        W26937  12.447  18.210   5.196 -0.3197  0.0484  0.1349
10864W        W26938  15.066   2.934  12.055 -0.5212 -0.1728  0.2998
10865W        W26939  11.005   4.067   4.549 -0.1803 -0.3793  0.0617
10866W        W26940   6.942   3.044   2.531  0.0681 -0.0369 -0.0698
10867W        W26941   6.584  12.766   4.182 -0.1088  0.0095  0.2037
10868W        W26942  13.262  13.113  12.747  0.0272 -0.0886  0.5183
10869W        W26943  10.341  10.970  14.290  0.1937  0.2259  0.4999
10870W        W26944   5.671  13.317   2.694  0.0421  0.2367  0.0822
10871W        W26945  13.670  17.299   4.151  0.1514  0.0030 -0.3958
10872W        W26946  10.061   2.807   2.084 -0.0935  0.1674  0.0491
10873W        W26947  10.538  19.263   1.442 -0.2008  0.4127  0.0472
10874W        W26948  14.568   7.520  11.923  0.1252 -0.1215  0.2802
10875W        W26949  11.889  14.446  14.725  0.1148 -0.2718  0.2238
10876W        W26950   0.910   5.691   0.337 -0.2640 -0.0441 -0.0804
10877W        W26951   6.821  13.041   0.983  0.1674 -0.1170  0.0232
10878W        W26952  16.877  17.012  10.960  0.0958 -0.0726  0.1049
10879W        W26953  15.026  16.875  12.183  0.0057  0.0606  0.2232
10880W        W26954   8.417   9.002  13.204  0.0011  0.1163  0.2208
10881W        W26955  17.626   3.483  13.027 -0.1223  0.1496 -0.3430
10882W        W26956  18.477  10.725  10.361 -0.0850  0.1034 -0.0355
10883W        W26957   9.724   2.396   0.648 -0.0518 -0.4132  0.2428
10884W        W26958   3.695   4.613  11.371  0.1282 -0.3100 -0.2069
10885W        W26959   4.207   3.613   1.028 -0.0897 -0.0153  0.1084
10886W        W26960  15.810  10.774  14.755 -0.4476  0.3964  0.3549
10887W        W26961   2.604   8.027  12.648 -0.1461  0.0540  0.0807
10888W        W26962  12.848   0.894   1.275 -0.2004 -0.1043 -0.3169
10889W        W26963  18.620  17.130  11.876  0.0291  0.2986 -0.0395
10890W        W26964  14.879   1.300   3.329 -0.1018  0.2726  0.0459
10891W        W26965  15.442  10.474   4.271 -0.0586  0.1590 -0.0055
10892W        W26966  11.073  14.369   1.470 -0.0347  0.0616  0.2059
10893W        W26967  13.869   1.744   4.452  0.1110  0.0408 -0.1397
10894W        W26968   7.396  10.116  10.041  0.3316 -0.1569 -0.2559
10895W        W26969  11.149  10.409  11.026  0.2483 -0.4649  0.0028
10896W        W26970  12.730  15.229  14.412 -0.2409  0.0951  0.2228
10897W        W26971  16.930   1.751  14.361 -0.3462  0.0746  0.1419
10898W        W26972   1.326  16.315   3.449 -0.2308 -0.0700  0.1049
10899W        W26973   8.118   3.130   0.862  0.0247 -0.1030 -0.1131
10900W        W26974  13.249  12.386  14.040  0.1824  0.2390 -0.1451
10901W        W26975  18.181  13.459   0.097  0.0526 -0.2140  0.1295
10902W        W26976   0.531  12.271  11.868  0.1748 -0.2035  0.0724
10903W        W26977   6.321   7.923  13.923 -0.1011 -0.0723  0.1643
10904W        W26978   9.795   0.482   3.070 -0.2185 -0.2276 -0.0433
10905W        W26979  13.452  12.651  10.584  0.1410 -0.2526  0.2103
10906W        W26980   4.223  15.149  13.654  0.0983 -0.1381 -0.0514
10907W        W26981  14.829   5.515  10.031  0.2203  0.1032 -0.0237
10908W        W26982  14.798  12.701  11.017 -0.0500  0.1476 -0.1027
10909W        W26983   7.687   5.961  15.004 -0.3627  0.1761 -0.0459
10910W        W26984   7.237  16.983   1.365  0.3918 -0.1616 -0.0698
10911W        W26985   4.233  11.638  14.786  0.1497 -0.2306 -0.0164
10912W        W26986   8.484  11.343   0.537  0.1558  0.2217  0.1809
10913W        W26987  11.344  15.164   2.210 -0.0869 -0.1725 -0.2913
10914W        W26988   8.855   5.490   4.890 -0.0952 -0.0337  0.1051
10915W        W26989   7.169   3.254   1.300  0.1025 -0.1690 -0.2287
10916W        W26990  10.778  13.977   1.138 -0.2736  0.0565 -0.4321
10917W        W26991   3.520   2.553  14.053 -0.0063 -0.0305 -0.1388
10918W        W26992   1.042   1.586  11.340  0.2292 -0.2344  0.1490
10919W        W26993   2.185  13.272  13.051 -0.1928 -0.1955 -0.3148
10920W        W26994   7.782   3.641   3.233  0.2655 -0.1741 -0.1824
10921W        W26995  17.443  18.755  10.355 -0.0966 -0.0699  0.0288
10922W        W26996  19.221   6.354   4.634  0.0105  0.0484 -0.3619
10923W        W26997   8.594   3.276   0.205  0.0468 -0.0166 -0.1544
10924W        W26998   7.518   6.487  12.978  0.0057  0.2481  0.0763
10925W        W26999   2.525   7.734  13.366 -0.0199 -0.1953  0.1675
10926W        W27000   0.983   6.918   1.034  0.1139  0.1728  0.0154
10927W        W27001  12.161  10.183  12.528  0.0695  0.2581  0.0587
10928W        W27002  16.099  17.391   9.983 -0.0016 -0.0590 -0.3445
10929W        W27003   1.829   3.869  14.654 -0.2668  0.2533 -0.2133
10930W        W27004  17.343  11.880  11.701  0.3421  0.2989 -0.0000
10931W        W27005   9.753   8.404   3.723 -0.0999 -0.0602  0.0197
10932W        W27006   0.715  15.425   5.455 -0.0845 -0.0083 -0.0862
10933W        W27007   3.347   6.419  13.203 -0.1316  0.4687  0.0796
10934W        W27008  17.751  13.238   2.908 -0.0086 -0.0526 -0.0812
10935W        W27009  16.403   1.778   2.048  0.4835 -0.4211  0.0816
10936W        W27010  13.090   6.623   0.917 -0.0357 -0.0257  0.2888
10937W        W27011   2.644   2.067  10.830  0.4067 -0.0448 -0.0765
10938W        W27012  17.508   1.241   2.127 -0.0833  0.0536  0.1383
10939W        W27013  12.672   7.037  12.062 -0.2091  0.0484 -0.1715
10940W        W27014  13.682  14.219   3.854  0.1718 -0.5044 -0.2325
10941W        W27015  14.395  17.153  11.225 -0.1924 -0.2061 -0.2111
10942W        W27016   1.108  11.569   4.192  0.1373 -0.3672  0.2685
10943W        W27017  19.147  12.039  14.116  0.1470  0.1770  0.2768
10944W        W27018  15.134   4.778   0.466  0.1121  0.0736 -0.0855
10945W        W27019  11.367  17.892   1.261 -0.0073 -0.1748  0.0035
10946W        W27020  16.106  19.065  14.212  0.2735 -0.2283  0.0503
10947W        W27021  14.939   3.807   3.941  0.0501 -0.2213 -0.0682
10948W        W27022  16.926  12.332   4.559 -0.1853  0.0146  0.0101
10949W        W27023  11.406   4.994  14.853  0.2280  0.0890 -0.2081
10950W        W27024  11.063   0.202   0.343  0.1487 -0.2670 -0.0240
10951W        W27025  16.572  11.733  13.044 -0.2308  0.1386  0.0371
10952W        W27026   5.921   9.456  13.491 -0.0018 -0.0936  0.4055
10953W        W27027   8.057   5.116  12.996 -0.3068 -0.1187  0.1258
10954W        W27028   5.624  15.738   1.585  0.1356 -0.3445  0.3163
10955W        W27029  17.628   3.034  13.231 -0.1067 -0.1130  0.1664
10956W        W27030  13.246  14.302  11.904 -0.0706 -0.1640 -0.2495
10957W        W27031  17.219   5.793  10.220  0.2327 -0.2064  0.3092
10958W        W27032  18.337   7.470   4.558 -0.1830  0.1584  0.2352
10959W        W27033  17.351   7.698   5.494 -0.1633  0.1121  0.1177
10960W        W27034   0.118  13.809  10.250 -0.1324  0.0707  0.2628
10961W        W27035   0.761   6.035  15.047 -0.2710 -0.4815 -0.1957
10962W        W27036  19.116   6.810  11.154 -0.1921 -0.2105  0.0573
10963W        W27037   2.513  11.838  11.567  0.3626 -0.3017  0.0026
10964W        W27038   1.173   1.645   1.423 -0.3081  0.0905  0.1723
10965W        W27039  14.267  14.704  14.887 -0.3350  0.0818  0.3670
10966W        W27040  11.877   7.288   0.405  0.0852  0.0429 -0.0050
10967W        W27041  13.226   9.944   4.852  0.1218  0.0576  0.0288
10968W        W27042   9.936   9.722  14.042  0.4155 -0.1431  0.4456
10969W        W27043   3.384   3.416  13.841  0.0971 -0.0549  0.1533
10970W        W27044   1.228  14.458  14.704  0.1914 -0.1705  0.0396
10971W        W27045  18.175   6.376   0.623 -0.2561  0.0219 -0.1319
10972W        W27046   6.634  11.624   0.401  0.0258  0.1670 -0.0299
10973W        W27047   3.395   4.040  10.061  0.3632 -0.1962  0.5868
10974W        W27048  19.148  18.332  13.682 -0.2466  0.0817  0.0921
10975W        W27049  16.520  16.728  10.866 -0.0016  0.1374  0.2532
10976W        W27050   3.993  17.557  11.254  0.0767  0.1940  0.0833
10977W        W27051   3.799  13.484   1.620  0.1023  0.2525  0.0990
10978W        W27052   7.231  13.342   4.423 -0.1070  0.3938 -0.2584
10979W        W27053  15.692  17.516   4.793  0.0568  0.0756  0.3648
10980W        W27054  12.696  11.343   3.738 -0.2344  0.1006  0.2674
10981W        W27055   1.662   7.610   9.835 -0.0159 -0.0061 -0.2296
10982W        W27056  15.783   5.173  11.682  0.0868  0.6563 -0.0977
10983W        W27057   8.853   1.507  13.877 -0.2202 -0.1894  0.0556
10984W        W27058  14.188   8.917  11.108  0.1178 -0.2026  0.0179
10985W        W27059  11.135   0.794   2.278  0.0468  0.1445 -0.2639
10986W        W27060  17.888  17.298   4.482  0.0478  0.0251 -0.1521
10987W        W27061   9.353  17.215  12.508  0.1574 -0.3844 -0.1753
10988W        W27062   6.263   2.259  13.626 -0.1862  0.1250 -0.1587
10989W        W27063   6.589  14.919   0.153 -0.2127  0.0747 -0.0468
10990W        W27064   4.963  10.359  14.782 -0.0686  0.0785 -0.0185
10991W        W27065  13.380   0.266  13.869 -0.2363  0.1388 -0.0886
10992W        W27066   6.651  16.698   0.390  0.1477  0.0144 -0.3650
10993W        W27067  11.474  11.378  11.227 -0.0614 -0.0820  0.2979
10994W        W27068  10.325   6.023   5.871  0.4713  0.3312 -0.1339
10995W        W27069   5.903   4.258   0.169 -0.1441 -0.1250 -0.0857
10996W        W27070   6.309   5.697   4.714  0.2448 -0.0229  0.2126
10997W        W27071  18.643  13.334   1.071  0.1438 -0.0004 -0.1646
10998W        W27072   2.928  13.055   3.422  0.2868  0.1331  0.2993
10999W        W27073   7.505   0.833   1.706 -0.1567 -0.2398  0.0701
11000W        W27074   5.023   7.020   3.447  0.1607  0.0170 -0.1122
11001W        W27075   4.000   2.440   4.435 -0.2116  0.1504 -0.1228
11002W        W27076   3.656  14.749   0.659  0.3071 -0.0580  0.1393
11003W        W27077  18.957   1.944  10.354  0.3484 -0.0159 -0.1318
11004W        W27078   2.144   3.428   3.624 -0.2580 -0.2922 -0.1909
11005W        W27079  18.775   5.460  11.013 -0.1720  0.2045 -0.3498
11006W        W27080   9.229   1.402  11.249  0.0038 -0.1773 -0.0132
11007W        W27081   1.748   3.674  13.006 -0.0813  0.0875  0.0738
11008W        W27082  14.349  11.369   3.836  0.0292 -0.2572 -0.1246
11009W        W27083   7.226   0.115  11.299  0.2673 -0.0245 -0.0657
11010W        W27084  18.555   4.013   2.122  0.1204 -0.1906 -0.0368
11011W        W27085   5.451  18.522   1.789  0.0912  0.1692 -0.0922
11012W        W27086  11.209  10.876  14.626  0.0551 -0.3064  0.1248
11013W        W27087  12.401   1.678  11.559 -0.1789 -0.0143  0.1537
11014W        W27088   5.874  14.412  13.755  0.2392 -0.2783  0.3418
11015W        W27089  12.400   0.848   0.985 -0.0551 -0.0438  0.1777
11016W        W27090   9.287  16.605  13.953  0.1556  0.1100 -0.0830
11017W        W27091   7.137  10.109   2.908 -0.3654 -0.1329 -0.2081
11018W        W27092   0.322  14.296   1.180  0.1500 -0.0403 -0.2641
11019W        W27093  14.571  10.373  14.496 -0.1913 -0.1229 -0.1698
11020W        W27094  14.795  12.543   0.428 -0.1899 -0.1324  0.1577
11021W        W27095  17.268   1.303  12.594 -0.1617  0.0855 -0.1177
11022W        W27096  14.072   9.629   3.788  0.1087  0.0824  0.0504
11023W        W27097  17.265   2.440  14.575 -0.1869  0.1043  0.3397
11024W        W27098  15.384  18.024  10.999 -0.0557 -0.0458  0.1511
11025W        W27099   2.376  18.490  12.154 -0.1011  0.0831  0.5558
11026W        W27100  10.392   9.295  11.096 -0.1421 -0.2633 -0.3384
11027W        W27101   0.610  14.824  14.596  0.0115 -0.1864 -0.2041
11028W        W27102   6.041   8.302   3.732  0.1370 -0.2923 -0.1071
11029W        W27103   1.440   3.516  12.061  0.1254  0.4472 -0.0631
11030W        W27104   3.299   9.451   1.469  0.4543  0.1034  0.0423
11031W        W27105   3.961  11.199   1.841  0.1195  0.0167  0.1975
11032W        W27106   6.622   1.814   2.891  0.0855  0.0051  0.2095
11033W        W27107  17.173  11.142  11.258 -0.0299  0.0654 -0.1154
11034W        W27108  15.132   8.187   2.548 -0.0184 -0.2135  0.0866
11035W        W27109   4.160   0.852   0.773  0.0263 -0.0023  0.1644
11036W        W27110  10.007   4.242   5.693 -0.1522 -0.0972 -0.0659
11037W        W27111   5.047  17.144   3.962 -0.2049 -0.0841  0.0894
11038W        W27112   1.301  10.469  14.877  0.2675 -0.1099  0.1473
11039W        W27113  10.074   8.204  13.712  0.4357 -0.2326 -0.4509
11040W        W27114   2.895   5.259  14.675  0.5241 -0.0655  0.2669
11041W        W27115  16.274   7.550  13.288  0.4516 -0.1436 -0.1528
11042W        W27116   3.850   5.373   3.430  0.1152 -0.0916  0.1387
11043W        W27117  12.877   5.973  11.275 -0.0726 -0.2845 -0.2128
11044W        W27118   1.418  14.762   1.658 -0.0414  0.0766 -0.1932
11045W        W27119  16.558   4.012  13.840 -0.2453 -0.0633  0.0910
11046W        W27120   4.545   6.967   4.356  0.1512  0.1708  0.0336
11047W        W27121   2.217  18.664  13.250 -0.6146  0.1079 -0.1517
11048W        W27122  17.006   7.180   5.794 -0.2523  0.0074  0.0396
11049W        W27123  15.128   5.527  14.028  0.2377  0.0220  0.1216
11050W        W27124   2.961   8.482   4.400  0.2289  0.0581  0.0546
11051W        W27125  12.656   9.137  12.777  0.0282 -0.1528  0.1592
11052W        W27126  14.248   1.396  13.960  0.0727  0.2559  0.0400
11053W        W27127   4.784  19.079  11.212  0.1286  0.1489  0.0024
11054W        W27128  16.000  14.785  13.978  0.3508 -0.1303  0.1347
11055W        W27129  15.632   1.514   2.613 -0.0320 -0.3861 -0.0938
11056W        W27130   9.122  19.172   1.558  0.0517 -0.1206  0.0084
11057W        W27131  18.603  18.634  12.889 -0.1645 -0.0017 -0.1174
11058W        W27132   1.519   3.512  14.979 -0.0215 -0.1206 -0.0989
11059W        W27133   6.110   2.132   3.763 -0.2971 -0.1832  0.0243
11060W        W27134  17.570   5.731  14.458 -0.0329  0.4507  0.2798
11061W        W27135  10.015   0.549  13.033  0.1409 -0.0399  0.2085
11062W        W27136  12.654  11.028  13.974 -0.2939  0.2114 -0.1814
11063W        W27137  16.583   6.399  13.266 -0.1970 -0.4175  0.0991
11064W        W27138   0.880   6.780  12.177  0.1883 -0.0738  0.2616
11065W        W27139   7.802   7.180   4.853  0.2249  0.3611  0.0442
11066W        W27140   1.381  18.212  12.711 -0.2177  0.2501 -0.1942
11067W        W27141  11.289  17.656   3.228 -0.5667  0.4655  0.1324
11068W        W27142   0.850  15.465  13.353 -0.1789 -0.0872  0.1246
11069W        W27143  16.223   7.329  14.179 -0.0304  0.0998  0.2592
11070W        W27144  11.281  14.717  11.581  0.0038 -0.0274 -0.0107
11071W        W27145  19.062   9.256   1.864 -0.0733  0.2037 -0.1582
11072W        W27146   8.452   8.677   4.776  0.0817  0.3247 -0.4258
11073W        W27147  17.579   4.418   2.960  0.1104 -0.2027  0.0294
11074W        W27148   5.681   2.779   2.104 -0.0810  0.2303 -0.1391
11075W        W27149   0.776   0.225   4.509  0.0346  0.1494  0.0760
11076W        W27150  17.413   2.863  10.735 -0.0222 -0.2614  0.1004
11077W        W27151   2.237   0.704  10.805 -0.3418 -0.0087 -0.2035
11078W        W27152   5.733  15.034  10.735 -0.3421  0.1066  0.1253
11079W        W27153   7.815  14.338  14.055  0.1654 -0.0817 -0.1752
11080W        W27154   3.161  13.813   4.618  0.3285  0.0707  0.1672
11081W        W27155   2.369  18.127   4.631 -0.2911  0.0387  0.0101
11082W        W27156  16.811   2.744  11.884 -0.2113  0.1142  0.2377
11083W        W27157   7.409  15.558  10.954 -0.1752 -0.1917  0.1040
11084W        W27158  12.944   6.930   4.584  0.1337  0.2062 -0.0536
11085W        W27159   3.217  14.138  15.024  0.0396  0.0991 -0.2028
11086W        W27160  18.451  18.733  11.785  0.0033  0.1096  0.0754
11087W        W27161   2.307  11.885  12.729  0.0694 -0.0058  0.0194
11088W        W27162  13.176  18.024   5.406 -0.1743  0.4669  0.0915
11089W        W27163  10.596   2.022   0.171 -0.1034  0.0684 -0.0602
11090W        W27164   9.273  18.316  12.269 -0.0862 -0.1975  0.1303
11091W        W27165   2.420   9.379   0.510  0.0252  0.1227  0.0106
11092W        W27166   0.936  15.673  12.088  0.1710  0.0031  0.0797
11093W        W27167   2.487   4.887  12.460  0.2049  0.2454 -0.0855
11094W        W27168   9.161   6.218   0.377 -0.0105 -0.0559  0.4314
11095W        W27169   9.570  16.559  15.042 -0.0963 -0.2094  0.0905
11096W        W27170  12.074  17.420   2.358 -0.2081 -0.0236 -0.1233
11097W        W27171   6.733  12.889   3.600 -0.1256  0.1343 -0.1096
11098W        W27172  18.827   5.219   4.318 -0.2122 -0.2781  0.1424
11099W        W27173   1.224  18.882   3.337  0.0943  0.2332 -0.0077
11100W        W27174  10.074   2.640  13.425  0.1126  0.2180  0.0372
11101W        W27175  17.372  12.868  11.120 -0.0177  0.1770  0.1348
11102W        W27176   0.539  19.228  11.324  0.3880  0.1717  0.0904
11103W        W27177  19.188  11.134  10.770 -0.2277 -0.0730  0.4343
11104W        W27178   3.170   9.732  12.926  0.1447 -0.0685  0.2443
11105W        W27179  13.072   4.509   1.146  0.2497  0.1161  0.0432
11106W        W27180   3.240   4.196   2.096  0.3743 -0.0961  0.0128
11107W        W27181  18.359  15.934  12.006 -0.3502  0.0806  0.1821
11108W        W27182   4.427   5.737  14.150 -0.0797 -0.1619 -0.0124
11109W        W27183   7.921   1.935   4.665  0.2451 -0.0478 -0.0067
11110W        W27184  14.722  18.261  11.672 -0.2245  0.1537 -0.1954
11111W        W27185   8.525   1.927  14.686  0.0901  0.1445  0.1087
11112W        W27186   1.013   3.068   1.088  0.1175  0.1172 -0.2739
11113W        W27187  11.569   9.729  11.810  0.1988 -0.3838 -0.1232
11114W        W27188  10.731  17.502   0.215  0.0517  0.1178  0.2497
11115W        W27189   6.207   1.143   1.368  0.0422  0.0002  0.0621
11116W        W27190   8.185   5.373  12.576 -0.1415 -0.0343 -0.1608
11117W        W27191  18.463   9.701  13.146  0.2332 -0.2850  0.0231
11118W        W27192   1.482  16.125  10.944  0.0537  0.1562  0.2172
11119W        W27193  17.044  16.972   2.271 -0.2387 -0.1978  0.0431
11120W        W27194  15.386   0.245  13.592  0.2268 -0.0654  0.1089
11121W        W27195   5.287  18.669  10.823  0.1276  0.1022 -0.0817
11122W        W27196  17.337   2.304   2.428 -0.3466  0.0509  0.0876
11123W        W27197   4.512  17.354   4.276  0.0601  0.1961 -0.2796
11124W        W27198   0.406  17.181  12.932  0.0689 -0.0633 -0.0965
11125W        W27199  18.472  14.604   1.469  0.1716 -0.0738  0.1789
11126W        W27200  16.125  11.605  10.570  0.0100  0.3177  0.3189
11127W        W27201  16.017  17.737   1.041 -0.0199 -0.0949  0.1202
11128W        W27202   7.758  11.614   1.914  0.0366 -0.0080 -0.2648
11129W        W27203  17.852  10.576   0.767  0.2040  0.0651  0.1800
11130W        W27204  11.878   0.603   6.087  0.2192 -0.0488  0.2717
11131W        W27205   9.306  12.829   3.446  0.1358 -0.3073 -0.0010
11132W        W27206   6.762  18.696  14.458 -0.0415 -0.2171 -0.0517
11133W        W27207   8.410   7.153  13.643  0.1250  0.0701 -0.1827
11134W        W27208   0.307  15.069   2.473  0.2240 -0.2217  0.0753
11135W        W27209   2.069  15.072  11.621  0.0582 -0.2639  0.3089
11136W        W27210  11.405   8.925  14.426  0.0276  0.5539 -0.2665
11137W        W27211  16.889  16.520   3.166 -0.2889  0.0436  0.1371
11138W        W27212   0.272  14.402  13.636 -0.2775  0.3869 -0.0450
11139W        W27213   2.353   7.611  12.924  0.0429 -0.2549  0.1591
11140W        W27214  17.701   3.642   9.556  0.2084 -0.1602 -0.1623
11141W        W27215   5.677   3.301  13.284  0.1108  0.0849  0.0081
11142W        W27216  18.816   3.575   5.060 -0.0697 -0.2551 -0.0332
11143W        W27217  11.511  16.290  11.417  0.0901  0.0010  0.0975
11144W        W27218   1.766   3.190  13.151 -0.0902  0.0414 -0.2468
11145W        W27219  12.268   5.643   2.833  0.5541 -0.4982 -0.1225
11146W        W27220   0.022  14.625   2.299 -0.0656 -0.0203 -0.0907
11147W        W27221   3.011  17.563   4.708  0.1738  0.1192  0.2205
11148W        W27222  12.630   6.786  12.624 -0.2583  0.1911 -0.1441
11149W        W27223  11.187  11.119  12.237  0.2447  0.0804  0.1097
11150W        W27224  11.400   6.807  13.375  0.3483  0.3844  0.0177
11151W        W27225   8.014   5.229   5.259  0.0627  0.1593  0.0902
11152W        W27226  18.805  13.027  10.151  0.0469 -0.0738  0.0609
11153W        W27227  15.813  18.885  12.660 -0.1086 -0.1825 -0.1925
11154W        W27228  10.487  10.822  13.322  0.2076 -0.0486 -0.1005
11155W        W27229   1.959   8.537   1.232  0.1097  0.0055  0.0679
11156W        W27230  19.223   0.484   1.180 -0.1076 -0.0375 -0.3997
11157W        W27231   6.849   1.630   4.718 -0.1676  0.4060  0.4530
11158W        W27232   3.742  11.543   4.167  0.4077 -0.0509 -0.3627
11159W        W27233   5.058  14.959   1.357  0.1057 -0.3403  0.2198
11160W        W27234  12.273  12.834   4.734 -0.2398 -0.2131 -0.1740
11161W        W27235   2.451  17.693  11.240 -0.3611 -0.1716  0.0625
11162W        W27236  17.180   1.854   0.937  0.2404  0.0963 -0.3806
11163W        W27237   7.851  11.909   4.186  0.1836 -0.2633  0.3189
11164W        W27238   7.575   1.011   3.961 -0.0243 -0.1667 -0.1886
11165W        W27239   6.005   9.845   1.852  0.3456  0.1959 -0.1687
11166W        W27240   0.668   0.691  10.970 -0.1433 -0.1223 -0.3518
11167W        W27241   9.032  16.041  12.159  0.3402 -0.2301  0.2542
11168W        W27242   5.244  19.059   4.331  0.0154  0.0370 -0.4935
11169W        W27243   6.074  11.945   3.339 -0.2065  0.0668  0.3890
11170W        W27244  11.444  17.139   2.276  0.5123  0.0438 -0.0311
11171W        W27245   4.939  17.260  13.391 -0.2397  0.1148 -0.1246
11172W        W27246  10.054   4.211   5.044 -0.1456  0.3566  0.1234
11173W        W27247  14.717   0.433   2.979  0.2619 -0.1549  0.0810
11174W        W27248   5.482   2.813   2.626  0.0890  0.3672  0.0058
11175W        W27249  16.746   5.000  12.435 -0.1043  0.0320  0.2192
11176W        W27250  18.033   4.463   2.753  0.2987 -0.1166  0.1157
11177W        W27251  15.521  10.712  12.184 -0.1537  0.1247  0.1211
11178W        W27252  13.979  13.052  11.428  0.1030 -0.3137  0.1257
11179W        W27253   7.961  13.529   2.557  0.1545 -0.3020 -0.1496
11180W        W27254   0.518  15.459  12.932  0.2064  0.0945  0.3665
11181W        W27255  13.002   3.843  10.318  0.0007  0.3037  0.2285
11182W        W27256  17.222   6.085  13.723 -0.0174  0.5106  0.1842
11183W        W27257   4.684   5.939   2.548 -0.0981 -0.0668 -0.2063
11184W        W27258  16.627   1.563  14.780 -0.0622 -0.0577 -0.1824
11185W        W27259  14.911   4.688   4.231 -0.3538  0.0982  0.2817
11186W        W27260   7.340  11.676   2.204 -0.3414  0.1686  0.2176
11187W        W27261  14.784  18.238  12.213  0.0484  0.1760 -0.0561
11188W        W27262   0.092   6.690   5.770 -0.1486  0.0618  0.0426
11189W        W27263   6.945  14.168   4.463 -0.1499  0.0846 -0.0496
11190W        W27264  17.981   4.423  11.256 -0.1531  0.0941 -0.0319
11191W        W27265   7.015   3.549   2.099  0.1140  0.0018 -0.2618
11192W        W27266  17.295  13.731  12.481  0.1175  0.0408 -0.3376
11193W        W27267  11.049  16.056  11.342  0.2922 -0.1542  0.2144
11194W        W27268  16.938   3.055  11.039  0.1603 -0.1294 -0.1061
11195W        W27269  16.244   3.303   2.100  0.0191 -0.2319  0.0447
11196W        W27270   4.734  10.824   1.829  0.0044  0.1019  0.0101
11197W        W27271   4.794  15.365   3.105 -0.0052 -0.3160  0.3110
11198W        W27272   6.380  10.223   0.027  0.1178 -0.2083 -0.2022
11199W        W27273  17.591   6.679  11.157 -0.1304 -0.2403  0.3219
11200W        W27274   3.885   1.833   2.404  0.2731 -0.2776  0.3012
11201W        W27275   4.982   7.808   0.882  0.0371 -0.0199  0.3039
11202W        W27276  14.553  15.707   2.935 -0.0616  0.1047 -0.0845
11203W        W27277   8.579  17.754  12.553 -0.1162  0.1163  0.0243
11204W        W27278  10.084  11.908   0.610  0.1436  0.0228 -0.4525
11205W        W27279   8.623  15.585   3.435  0.2090 -0.0288 -0.2313
11206W        W27280   1.798  18.925  13.359  0.0695  0.0217  0.1901
11207W        W27281   6.599   0.307  14.611 -0.2280  0.4353  0.1214
11208W        W27282   2.678   8.899   4.721 -0.0573  0.1364 -0.1143
11209W        W27283  11.024  18.117   1.621  0.0797 -0.2584 -0.0933
11210W        W27284   6.779   8.892   3.179  0.0213 -0.0033 -0.0446
11211W        W27285  16.799   5.419  11.519  0.1552  0.2116 -0.2069
11212W        W27286   4.768   7.172   5.816 -0.1439 -0.0582 -0.0452
11213W        W27287  18.036   5.318   4.891  0.0667  0.1735  0.0618
11214W        W27288  14.609   8.200  10.515  0.0709  0.2459  0.0301
11215W        W27289   5.994   9.586   6.055  0.0279 -0.0218 -0.4136
11216W        W27290  15.444   8.506  11.001  0.2701  0.0342 -0.0982
11217W        W27291  13.655  18.325   1.020 -0.0392 -0.1005 -0.0347
11218W        W27292  14.382   6.059  11.190  0.0747 -0.1877 -0.4300
11219W        W27293  12.048   9.900   5.545  0.3806  0.3075 -0.0972
11220W        W27294  14.597   4.641  13.983  0.0860 -0.0446 -0.0474
11221W        W27295   6.847  13.729  12.002 -0.0152 -0.0158 -0.1713
11222W        W27296  12.627   6.609   3.305 -0.1338  0.0069 -0.0129
11223W        W27297  12.041   9.181   4.093  0.0210  0.1209 -0.2233
11224W        W27298  17.238  10.351   1.996 -0.2743 -0.2818 -0.2552
11225W        W27299   2.782   1.628   4.749  0.1396  0.1221 -0.2561
11226W        W27300   8.627  11.323   2.385  0.0254 -0.1228  0.2692
11227W        W27301   8.216  12.196   3.880  0.2814 -0.0562 -0.0898
11228W        W27302   1.411   2.315   3.670 -0.3964  0.1450 -0.2333
11229W        W27303  17.939  10.214  10.744 -0.1952  0.1335  0.3274
11230W        W27304   7.435   7.109  12.747 -0.1055 -0.0927  0.1976
11231W        W27305   6.245  11.192   0.034  0.1403 -0.0417  0.1515
11232W        W27306   9.636  10.578  14.786  0.1847  0.1254  0.1319
11233W        W27307  17.839  11.380   3.490 -0.3704  0.0898 -0.4289
11234W        W27308   5.352   4.971  14.700  0.0087  0.0346 -0.1498
11235W        W27309  17.106   8.112   5.613  0.1260  0.3080  0.0378
11236W        W27310  12.296   2.368   3.484 -0.0813 -0.3784  0.1568
11237W        W27311   2.563   9.264   2.172 -0.2161 -0.3561 -0.1484
11238W        W27312  17.638  12.875   9.952  0.1400  0.0068  0.2007
11239W        W27313   8.237  10.932   1.820  0.2967  0.0382  0.0250
11240W        W27314  16.709  14.715   4.651 -0.3000  0.0139 -0.1758
11241W        W27315   7.970   7.747  14.270  0.0746  0.0068  0.1988
11242W        W27316  13.054   7.909   1.553  0.1027 -0.1719 -0.2023
11243W        W27317   7.376  15.398   0.271  0.0835  0.0948 -0.2699
11244W        W27318   5.819   3.066   5.610  0.1445  0.3025 -0.1773
11245W        W27319  11.100   4.942   4.923 -0.0705 -0.3482 -0.3218
11246W        W27320  16.755  13.561  13.648  0.1040 -0.0160  0.1429
11247W        W27321  17.569   7.415   3.148 -0.0020  0.2531 -0.2908
11248W        W27322  15.532  14.577  13.266  0.3712  0.1119 -0.1140
11249W        W27323  16.593   2.029   0.041  0.0127 -0.0247  0.0390
11250W        W27324  16.020   7.564   4.742 -0.0616 -0.2797  0.1022
11251W        W27325  17.919  19.022  14.551  0.0527 -0.4371 -0.3116
11252W        W27326   0.612   0.639   2.758 -0.0832  0.2621  0.2447
11253W        W27327  14.568   6.698  12.908  0.2491  0.1871 -0.1703
11254W        W27328  11.479   9.961  11.286  0.1638 -0.0461 -0.1114
11255W        W27329  12.968  19.209   0.178 -0.1129  0.0791  0.0511
11256W        W27330   5.793   2.886   4.657 -0.1513 -0.1200  0.2914
11257W        W27331  19.303   0.837  14.526 -0.1170 -0.1202 -0.0920
11258W        W27332   1.850  15.412  13.861 -0.0172  0.1002  0.1782
11259W        W27333   6.623   9.962   1.303 -0.2347 -0.1580  0.3839
11260W        W27334   5.391   5.339   0.763  0.2463  0.0656  0.3024
11261W        W27335   2.936  17.021  13.545 -0.0704 -0.3418 -0.1567
11262W        W27336  12.449   2.420  14.539 -0.1032 -0.0265 -0.1254
11263W        W27337  17.525  17.422  11.650  0.2241 -0.0969  0.1915
11264W        W27338  15.998  11.796   4.441  0.1692 -0.1386 -0.1986
11265W        W27339   8.592   4.536  11.499  0.0770 -0.0608 -0.0116
11266W        W27340  11.838  13.516   2.143  0.2537  0.2556  0.0575
11267W        W27341  14.344  14.233   1.135 -0.0378 -0.2063 -0.0633
11268W        W27342  12.000   4.740   5.449  0.3965 -0.1904 -0.0082
11269W        W27343   6.109  12.801   5.016  0.1949 -0.0942  0.1777
11270W        W27344  11.143   9.706   2.099  0.1334  0.0969  0.1805
11271W        W27345  12.796   9.245  10.702 -0.0035  0.1502  0.0199
11272W        W27346  12.469  10.059   1.515  0.0851 -0.1237  0.0936
11273W        W27347   6.830   4.763   1.307  0.0900 -0.2143  0.2179
11274W        W27348  15.904   9.751   2.832 -0.0306  0.3341 -0.0725
11275W        W27349  14.018  15.671   2.212 -0.3383  0.1118 -0.1594
11276W        W27350   4.566  18.781   2.179  0.4094  0.0076 -0.1372
11277W        W27351   5.808   4.284  12.971  0.1072  0.0991 -0.0349
11278W        W27352  18.781   5.326   0.328  0.2344  0.0763 -0.0967
11279W        W27353  10.222   8.425   2.404  0.0009 -0.4113  0.2485
11280W        W27354  11.700   4.434  11.800  0.0432  0.0595  0.0414
11281W        W27355  10.365  12.640   3.185  0.1767 -0.2194 -0.2740
11282W        W27356   4.151   6.880   2.283 -0.0354 -0.0035 -0.2900
11283W        W27357  15.014   3.447   5.338 -0.0328  0.1623 -0.2384
11284W        W27358  12.402   6.333   5.438 -0.1478 -0.0266  0.0123
11285W        W27359  14.784  12.097   2.271  0.0524 -0.4289 -0.3597
11286W        W27360   6.519   2.959   4.702 -0.2105 -0.1324 -0.0230
11287W        W27361  11.568  16.985   3.981  0.0513  0.0959  0.0024
11288W        W27362  18.996   5.288  13.394 -0.0085 -0.1975 -0.2844
11289W        W27363   0.746  17.984  11.339  0.2567  0.4132 -0.1206
11290W        W27364   2.780  17.615  14.684 -0.0039 -0.3939 -0.1613
11291W        W27365   9.284   6.478  15.019 -0.1102  0.0505  0.1661
11292W        W27366  15.134  16.281  14.743 -0.2180  0.1608 -0.1308
11293W        W27367   1.618  19.156   2.987  0.0653 -0.2251 -0.1220
11294W        W27368  11.793  12.992   2.940  0.2155 -0.0013  0.0582
11295W        W27369  13.150  18.738   0.876  0.1754  0.0817  0.0375
11296W        W27370  10.881  17.112  12.587 -0.0667  0.0259 -0.1800
11297W        W27371   9.245   8.205   1.527 -0.0807  0.0010  0.4400
11298W        W27372  14.634  11.541  11.561  0.2084  0.2411 -0.3516
11299W        W27373   7.656  14.416  14.551 -0.1406 -0.1080 -0.0215
11300W        W27374  18.374  19.144  13.670 -0.1460 -0.0882  0.0089
11301W        W27375  11.129   2.221  12.167  0.1860 -0.2246 -0.2418
11302W        W27376   6.491   0.912   2.004 -0.1176 -0.1510 -0.0182
11303W        W27377   8.041  18.938   2.144 -0.1669  0.0917  0.0412
11304W        W27378   5.038   6.030   2.949  0.0672  0.3063  0.0139
11305W        W27379   6.330   9.528  11.142  0.0028  0.1440  0.1358
11306W        W27380  18.455   8.901  11.130 -0.2040  0.0264 -0.0213
11307W        W27381  16.980   2.516  13.513 -0.1036 -0.2507 -0.2958
11308W        W27382   0.605  15.706  14.292  0.1810 -0.0667  0.0731
11309W        W27383  15.873   7.697  14.299 -0.0350  0.3412  0.3345
11310W        W27384  12.834   0.753   0.753 -0.0307  0.0055  0.1905
11311W        W27385   6.467   1.938   9.901  0.2451  0.3349  0.2966
11312W        W27386   9.056  12.260   4.562 -0.1918  0.0425  0.1729
11313W        W27387  11.414  11.959  11.514 -0.1737 -0.2753 -0.1980
11314W        W27388   5.253   8.954   5.643  0.0214  0.1749 -0.1798
11315W        W27389  16.769  13.346   2.106  0.0306 -0.0286 -0.1114
11316W        W27390   6.379   5.637  13.911  0.0758  0.0356 -0.4998
11317W        W27391   5.594  12.138   3.235 -0.3481 -0.0873 -0.2621
11318W        W27392  18.188  16.941  13.969  0.2051  0.2467 -0.4267
11319W        W27393  12.824   2.423  11.197  0.2149  0.2117 -0.0059
11320W        W27394  18.852  18.687   4.802 -0.1203  0.1863 -0.1387
11321W        W27395   9.040  19.212  13.741  0.2038  0.1715 -0.1245
11322W        W27396  19.102   6.210   0.260 -0.0102  0.2328 -0.3979
11323W        W27397   5.559  14.541  12.002 -0.2003 -0.0593  0.0545
11324W        W27398  10.232  18.345   2.140 -0.0595  0.0682  0.1238
11325W        W27399  14.074   1.616  14.444  0.0027 -0.3521  0.1196
11326W        W27400   0.375   3.667  12.889 -0.1036 -0.2139 -0.0304
11327W        W27401   8.933  10.786   0.043  0.1414  0.1166  0.1149
11328W        W27402   4.309   3.004   2.807 -0.0153 -0.0453 -0.2118
11329W        W27403   5.757   1.839   3.946  0.1066  0.0083  0.1109
11330W        W27404   9.748  10.843  13.324 -0.3208 -0.1007  0.0100
11331W        W27405  15.122  10.130   2.378  0.3824  0.0406  0.0633
11332W        W27406  16.262   8.734  14.274 -0.1932  0.1651  0.0486
11333W        W27407   2.175  16.896   5.096 -0.0968  0.0775 -0.2345
11334W        W27408   8.725  10.313  13.780 -0.0860  0.1571 -0.0074
11335W        W27409   6.825   8.743   2.704  0.0437 -0.1397 -0.0551
11336W        W27410  13.453   3.264  14.054 -0.0446  0.2259  0.1487
11337W        W27411   4.313  18.878  10.655 -0.2703  0.2735  0.0642
11338W        W27412  19.020   0.419   0.009 -0.1389 -0.1242  0.3404
11339W        W27413   1.222   4.032   1.806  0.3557 -0.0980 -0.1118
11340W        W27414  16.986  10.095   1.136  0.0749  0.0816  0.1210
11341W        W27415   8.592  16.771  11.754  0.0805  0.0120  0.2176
11342W        W27416   7.561   4.894   1.586 -0.1260 -0.2330 -0.0539
11343W        W27417   3.989   4.778   2.233  0.4737  0.1311 -0.0040
11344W        W27418   6.067   5.645   1.218 -0.6489  0.0572 -0.1375
11345W        W27419   6.537  16.405  13.086 -0.3463 -0.2964 -0.0710
11346W        W27420   6.489   0.596  13.344 -0.3793 -0.1171 -0.1050
11347W        W27421  18.209  13.803  12.520  0.1052 -0.3382 -0.0609
11348W        W27422   9.080  15.562   2.606  0.1680 -0.3180  0.1261
11349W        W27423  16.823  17.946   3.386  0.0073  0.2672  0.2247
11350W        W27424  17.466   7.924   2.552  0.2945  0.2202  0.3412
11351W        W27425  10.496  17.909  12.776 -0.2884 -0.0921  0.2020
11352W        W27426  18.417   5.155   1.113 -0.1506  0.0134 -0.2065
11353W        W27427   5.527   5.973  12.162 -0.1637  0.0213 -0.1003
11354W        W27428  16.403  16.255   3.610 -0.3099 -0.2459  0.1151
11355W        W27429   0.938   0.276  11.784  0.0746  0.0120 -0.1598
11356W        W27430  17.520  18.663   3.195  0.0452  0.2589 -0.1097
11357W        W27431   0.578  10.862   1.844  0.0599 -0.0208 -0.2006
11358W        W27432  15.947  15.645  10.495  0.0730  0.0121  0.0751
11359W        W27433  17.297   9.768  10.851 -0.1894  0.1253  0.0146
11360W        W27434   0.520  18.793  10.108 -0.0111  0.0563 -0.0666
11361W        W27435  17.625  10.140   1.051 -0.1173 -0.1836 -0.0020
11362W        W27436  12.067   5.642   5.885 -0.3809  0.3010 -0.1413
11363W        W27437  15.172   4.428   3.959 -0.2143  0.0863 -0.2378
11364W        W27438   5.850  14.705  13.267  0.4625  0.1771  0.1911
11365W        W27439  17.373   6.323  11.448 -0.1680  0.2187  0.0547
11366W        W27440   2.870  12.424  14.531  0.2586 -0.0335 -0.2481
11367W        W27441   7.718   5.526   0.520  0.0645  0.1315 -0.2040
11368W        W27442  14.023   0.960  13.866  0.1506 -0.1516  0.3744
11369W        W27443  14.969  14.326  12.083 -0.1833 -0.0492 -0.0924
11370W        W27444   6.147   8.439  11.714 -0.0071 -0.0719  0.1110
11371W        W27445   5.341   4.359  11.530  0.0099 -0.0428  0.2281
11372W        W27446  12.980   1.405   1.458  0.1025  0.1814  0.0666
11373W        W27447   7.947  18.258   4.528 -0.0568  0.1170  0.1045
11374W        W27448  18.104  14.977  10.767 -0.1690  0.2585 -0.4797
11375W        W27449  11.981  11.263  10.310 -0.3044  0.0167 -0.0373
11376W        W27450  17.921  15.391   5.089 -0.3482  0.1182 -0.0151
11377W        W27451   2.036   6.014   0.964 -0.0972 -0.1126 -0.0774
11378W        W27452  17.724   7.502  13.423 -0.1040 -0.2610  0.1737
11379W        W27453  11.243   6.792  10.588  0.3562  0.2761  0.2460
11380W        W27454   6.381   4.489   1.579 -0.0681  0.0838 -0.0478
11381W        W27455   0.532   7.703   2.865 -0.0117 -0.3400  0.3173
11382W        W27456   4.822   0.338   5.710 -0.0041 -0.0771 -0.0168
11383W        W27457   6.265  11.415   1.648  0.0902  0.3959 -0.0851
11384W        W27458   3.456   5.586  13.791 -0.0302 -0.1044 -0.2967
11385W        W27459  15.502   8.229   1.281  0.3645  0.2880  0.0860
11386W        W27460   5.343  17.493  13.225  0.1140  0.2372 -0.2140
11387W        W27461  11.305   7.003   1.035  0.0795 -0.4382  0.0998
11388W        W27462  13.127  11.294  14.101 -0.1420 -0.1776 -0.2486
11389W        W27463  12.190  16.793   4.577  0.1274  0.0824 -0.2205
11390W        W27464   4.742  14.903   0.504 -0.3991 -0.3128  0.0352
11391W        W27465   1.125  15.110  10.784 -0.0328 -0.0955  0.4084
11392W        W27466  14.895   0.926   3.745 -0.1247 -0.1315 -0.4265
11393W        W27467   4.416  15.746  15.055  0.1417 -0.3016 -0.0547
11394W        W27468   1.263   8.607   1.877  0.0906 -0.1274 -0.0256
11395W        W27469   2.027   8.037   1.766  0.0321  0.1008  0.6257
11396W        W27470   5.397   5.292   5.790  0.2941 -0.0939  0.1451
11397W        W27471  14.308  14.286  12.870  0.2437 -0.1011  0.0397
11398W        W27472   2.162  14.458   3.001 -0.1088  0.1904 -0.1665
11399W        W27473   0.457   7.947   2.370  0.0704 -0.2927 -0.1336
11400W        W27474   1.302  15.114   5.392  0.1759 -0.0944 -0.0475
11401W        W27475  17.950  11.543  10.943  0.0672  0.1486 -0.2469
11402W        W27476   1.014  15.470  10.373 -0.1070  0.1586 -0.0806
11403W        W27477  11.417   0.582   2.805  0.2425  0.0926 -0.0100
11404W        W27478  10.768  14.391  10.447  0.3676 -0.1120  0.0737
11405W        W27479  14.098  14.995  11.990 -0.0761 -0.0542 -0.2312
11406W        W27480   9.295   7.050   0.022  0.1795 -0.0706 -0.1726
11407W        W27481   6.906   7.088   3.734  0.0391 -0.0318 -0.0092
11408W        W27482  17.608   4.034  13.859 -0.0069 -0.3511  0.1351
11409W        W27483  18.589   5.539  13.694  0.0700  0.2216  0.4680
11410W        W27484  15.640   7.001   4.581  0.0107 -0.1797  0.1263
11411W        W27485   5.932  19.288   2.110 -0.0769  0.2290 -0.1316
11412W        W27486   9.681   4.156   1.839 -0.2819 -0.5584  0.1717
11413W        W27487  16.808  15.192  12.199  0.1906  0.1411  0.2011
11414W        W27488   1.732   3.925   1.929 -0.1820 -0.1969  0.5069
11415W        W27489  16.320  10.121   0.430  0.0287  0.1399 -0.0157
11416W        W27490  16.048   4.048  10.801  0.1118 -0.1124  0.2550
11417W        W27491  17.578   5.488   2.047  0.0408  0.1771  0.2928
11418W        W27492  14.433  13.442  12.256  0.0012 -0.1545 -0.2693
11419W        W27493   7.033   9.202   3.622  0.0520  0.2879  0.1082
11420W        W27494   7.321   1.250   2.604 -0.2101  0.2807 -0.2684
11421W        W27495   7.179   1.497  12.317 -0.1592 -0.5725 -0.0665
11422W        W27496   7.295   0.911  13.493 -0.3353  0.0119  0.0659
11423W        W27497  17.798  15.306  11.314  0.0832  0.1561 -0.3595
11424W        W27498   7.199   4.331   1.243 -0.1274 -0.0808  0.0963
11425W        W27499   5.271  11.981   4.494 -0.1342  0.0733 -0.0880
11426W        W27500   0.127  14.352  10.470  0.1875  0.1039 -0.0497
11427W        W27501   0.316  10.040  10.216  0.1192 -0.2533  0.1040
11428W        W27502  13.190   0.980  11.029  0.0697 -0.2427 -0.1562
11429W        W27503  13.168   1.506  11.099 -0.1555  0.0254  0.1080
11430W        W27504  10.084   6.010   4.432 -0.0234 -0.0357 -0.1223
11431W        W27505   7.334  10.798   2.576 -0.1997 -0.1228 -0.1278
11432W        W27506  14.841   7.463   5.359  0.2352 -0.0369  0.0974
11433W        W27507  11.357  17.625   4.737  0.1054  0.1587  0.2068
11434W        W27508   5.773  15.538   5.142  0.4041 -0.2829  0.0060
11435W        W27509  17.733   7.417   0.855  0.2511  0.0975 -0.2065
11436W        W27510   1.360   2.044   0.075 -0.2225 -0.3415 -0.3060
11437W        W27511  13.429   2.904   4.714 -0.2262  0.1753 -0.1715
11438W        W27512   8.165  14.195   1.130 -0.0581  0.1674 -0.1740
11439W        W27513  15.922   1.827   2.020 -0.1848 -0.1017 -0.0801
11440W        W27514   0.217  14.552  14.394  0.2536  0.1240 -0.1011
11441W        W27515  10.802  16.190  12.893  0.1044  0.3157  0.1340
11442W        W27516   9.245   3.613   5.463 -0.0843 -0.1024 -0.3685
11443W        W27517  17.452   3.055  11.157  0.1085  0.0667 -0.4499
11444W        W27518  10.301   7.388  10.789 -0.0059  0.0326  0.0184
11445W        W27519  17.695  15.293  10.577  0.1404 -0.0833  0.2138
11446W        W27520  18.465   4.715   0.205  0.0080 -0.1250 -0.0440
11447W        W27521   8.600  16.062   1.448 -0.4707 -0.3187 -0.2125
11448W        W27522   7.919   6.529   4.939 -0.0701 -0.1900  0.1150
11449W        W27523  18.629   0.503   0.392  0.1208  0.1277  0.0092
11450W        W27524   7.946  12.622   0.219  0.0714  0.0170  0.1966
11451W        W27525   2.111  14.059   3.323 -0.0629  0.1466 -0.2393
11452W        W27526  17.202  10.738  10.659  0.0953 -0.0839 -0.2128
11453W        W27527  10.469   0.884  11.714 -0.0768 -0.0725  0.0015
11454W        W27528  15.550   0.735   4.069  0.0321 -0.3824  0.2794
11455W        W27529   2.087   0.556  10.368 -0.2314 -0.1904  0.3780
11456W        W27530   8.586   5.113  12.337 -0.0774  0.0644 -0.0074
11457W        W27531  14.368   0.921  14.946 -0.0853 -0.0789 -0.2960
11458W        W27532   1.801   7.152   4.941 -0.0907 -0.0231 -0.1701
11459W        W27533   3.736   3.142   3.615  0.0874 -0.4240 -0.0813
11460W        W27534   3.314  16.019   2.163 -0.0902 -0.0081  0.3772
11461W        W27535   9.174  10.172   2.033 -0.0799  0.1927 -0.1003
11462W        W27536  18.635  11.458   2.616  0.0754 -0.5171  0.0189
11463W        W27537   1.153  17.740  11.381 -0.0809 -0.2161  0.1174
11464W        W27538   2.530  12.859  13.251  0.2375  0.0021 -0.1120
11465W        W27539   7.060   2.779  12.963 -0.1187  0.0626  0.2003
11466W        W27540   3.285  10.904   0.889 -0.2168  0.0888  0.2964
11467W        W27541  11.898   0.574  13.499 -0.3965 -0.3379 -0.0805
11468W        W27542  16.467   7.696   0.888  0.2005 -0.2312 -0.3662
11469W        W27543  12.858   2.175  12.510 -0.0197 -0.0549 -0.3917
11470W        W27544   0.997   8.248  14.543 -0.0109  0.0833  0.2379
11471W        W27545  17.082  11.640   0.338  0.2198  0.0559 -0.2797
11472W        W27546  11.224  11.702  14.794 -0.3329 -0.2567 -0.0852
11473W        W27547   3.808   8.141   1.145  0.2621  0.2502 -0.0614
11474W        W27548   0.431   4.253  12.584 -0.2760 -0.0373 -0.0675
11475W        W27549   1.177   3.671   3.820  0.0965  0.2473 -0.1068
11476W        W27550   5.464   9.479   2.393  0.0556 -0.0924 -0.0154
11477W        W27551   5.748  15.342  11.265 -0.4231 -0.1429 -0.1154
11478W        W27552   5.583   0.330  12.351 -0.2298 -0.1416  0.3032
11479W        W27553  10.590   8.676   4.143 -0.3526 -0.0639  0.1615
11480W        W27554  16.453   3.917  11.065 -0.1590 -0.1665 -0.0702
11481W        W27555   4.281  18.800   3.246 -0.3660 -0.0260  0.1343
11482W        W27556  14.060  14.670   9.730 -0.2366  0.1932 -0.0471
11483W        W27557  15.151  10.400   5.701  0.0464  0.0108 -0.0079
11484W        W27558  17.243  14.892  13.464  0.4141  0.3192 -0.0907
11485W        W27559  14.560   8.460   1.450 -0.1784  0.0387 -0.0871
11486W        W27560  18.958  18.755  14.808  0.1199  0.1982  0.0609
11487W        W27561  10.176   3.714   3.050  0.1087  0.1132  0.0946
11488W        W27562   2.998   9.759   3.648 -0.2071 -0.1001  0.0577
11489W        W27563   5.725  17.701  15.001 -0.2425  0.0862 -0.0921
11490W        W27564  16.318  10.019   4.331  0.0261  0.1722  0.2480
11491W        W27565   2.286   5.951   4.019  0.1223 -0.5160 -0.0700
11492W        W27566   4.920  14.640  13.171  0.1838  0.5725  0.2464
11493W        W27567   5.241   8.560  12.182  0.2264 -0.0663  0.1682
11494W        W27568  15.137   1.537   3.701 -0.0801  0.1319  0.1165
11495W        W27569   6.622  19.194  13.680 -0.3139 -0.0316  0.1591
11496W        W27570  13.138   3.404   0.462  0.0484 -0.1242 -0.2924
11497W        W27571   7.749  17.941   1.768 -0.4406  0.0591  0.2830
11498W        W27572   3.481  18.559  13.737 -0.1567 -0.0235 -0.2725
11499W        W27573   5.187  14.221  14.884  0.0665 -0.3733  0.2407
11500W        W27574  12.625   2.608  13.160  0.0668  0.1669 -0.0077
11501W        W27575   6.443   2.907   1.086  0.0351  0.4045 -0.2098
11502W        W27576   0.708  17.753  10.237  0.1548  0.4750 -0.3957
11503W        W27577  15.750  19.186   2.650  0.0958  0.2321 -0.1797
11504W        W27578  18.935   1.868   2.982  0.2116  0.0901  0.0508
11505W        W27579  13.216   2.160   1.157 -0.0966 -0.1395  0.2504
11506W        W27580   9.975   9.800   1.594  0.2366  0.1348  0.2504
11507W        W27581   2.600  10.603  13.385  0.1726  0.0260  0.1693
11508W        W27582   3.721  16.692  13.766  0.1642 -0.0627 -0.1484
11509W        W27583   4.226   9.270  14.564  0.4463 -0.1505 -0.3235
11510W        W27584   4.408   2.972  12.456 -0.5166  0.0519  0.1147
11511W        W27585  12.962  18.865   1.381 -0.0577  0.3034 -0.1020
11512W        W27586   1.625  11.687  14.687  0.4356  0.1529 -0.2719
11513W        W27587  12.312  17.498   0.652 -0.0266  0.1819 -0.3769
11514W        W27588  14.963   6.246   3.115  0.2581  0.0301 -0.1304
11515W        W27589   4.299  13.947   5.630 -0.1038 -0.0525 -0.2666
11516W        W27590   4.906   7.617  11.093 -0.2617  0.1596 -0.0235
11517W        W27591   2.178  13.153  12.537  0.0985  0.1513  0.2660
11518W        W27592   7.346   1.234   3.574  0.4267  0.1567  0.0762
11519W        W27593   6.143   8.194  13.518  0.0280  0.2370 -0.0692
11520W        W27594   0.050  12.877  13.377  0.3333 -0.1883 -0.0137
11521W        W27595  14.644  10.707  12.122  0.0447  0.0532 -0.1160
11522W        W27596   3.671  11.810   1.043  0.0032 -0.3008 -0.1107
11523W        W27597  14.357   6.231  10.437 -0.1420  0.0725 -0.0277
11524W        W27598   0.338   0.736   1.368  0.1301 -0.0783 -0.0848
11525W        W27599   3.123   8.603   4.815  0.2397 -0.0370  0.0148
11526W        W27600  13.875   2.607   4.634 -0.1948 -0.0132  0.1097
11527W        W27601   6.570   4.150  11.505 -0.1715  0.3449 -0.0330
11528W        W27602   4.302   6.313  11.747  0.2427 -0.0677 -0.0153
11529W        W27603  12.106  12.605   2.608  0.1088 -0.1145  0.1741
11530W        W27604   3.741   6.347  11.764 -0.2014 -0.1076 -0.0404
11531W        W27605   9.387   6.427   4.741  0.4599 -0.0334  0.2574
11532W        W27606   6.969   0.471  11.093 -0.2597  0.0863  0.0670
11533W        W27607   8.552  18.107   2.309 -0.3167 -0.1442  0.0448
11534W        W27608   5.088  14.682   4.738 -0.0290 -0.0651 -0.1697
11535W        W27609   6.379  18.935  12.334  0.0740 -0.0339  0.3470
11536W        W27610  19.262   8.306  10.836  0.1600  0.1875  0.0371
11537W        W27611  14.664  13.730  13.942 -0.2901  0.1379  0.1362
11538W        W27612   3.867   4.781  12.325  0.1996  0.1294 -0.2003
11539W        W27613  15.557   8.529   2.147  0.3973  0.1506  0.0780
11540W        W27614  15.110  10.486   1.020 -0.2802 -0.0449 -0.4581
11541W        W27615  17.542   7.969   0.910  0.0700  0.0233  0.3091
11542W        W27616  18.401   8.744   0.342  0.0727  0.1679  0.1816
11543W        W27617   0.131   0.582  11.556 -0.0320 -0.4026 -0.2803
11544W        W27618  13.688  14.041  12.045 -0.5737 -0.1829 -0.0873
11545W        W27619   9.696   3.849   2.332 -0.1986  0.3372  0.2386
11546W        W27620  12.127   3.679  12.426  0.1233  0.1913 -0.0595
11547W        W27621   6.910  14.267   1.599  0.0412 -0.0458  0.3492
11548W        W27622  19.110   5.727   3.491  0.0730  0.0309 -0.1397
11549W        W27623   3.971  10.457   2.577  0.0161  0.0705 -0.1604
11550W        W27624  11.500  10.770  13.741 -0.3589  0.1234 -0.2259
11551W        W27625  17.999   2.020   4.194 -0.0988  0.1255  0.1369
11552W        W27626   4.593  14.849  13.922 -0.4995  0.0478  0.3835
11553W        W27627   1.054   9.864  14.265  0.1400 -0.2948 -0.2330
11554W        W27628   9.974   9.881   3.596  0.2237  0.0614  0.0207
11555W        W27629   6.330   2.164   0.413 -0.3564  0.0298  0.1680
11556W        W27630   8.309   7.788   2.683  0.1745 -0.4966 -0.2490
11557W        W27631   4.499  13.002   5.453 -0.0661  0.0283  0.3469
11558W        W27632  11.714   1.208  10.370 -0.1507  0.1550 -0.0551
11559W        W27633  18.011  11.466   2.414 -0.4136  0.2520 -0.0661
11560W        W27634   5.472  16.447   2.794 -0.1337 -0.0308  0.0487
11561W        W27635  15.803   5.642   2.124 -0.1812 -0.1461 -0.2166
11562W        W27636   7.093  17.812   2.534 -0.1631 -0.2930  0.0644
11563W        W27637  18.155   6.863  13.025 -0.0850 -0.0214  0.4590
11564W        W27638   2.825   0.028  14.942 -0.0984  0.1985  0.2339
11565W        W27639  10.537   7.703   2.133 -0.1270  0.1599 -0.0051
11566W        W27640  10.923  19.050   1.226  0.0951  0.0113  0.2375
11567W        W27641  13.818   4.974   3.497  0.0318  0.2511 -0.2542
11568W        W27642  15.793  11.837  13.683  0.2004 -0.0848 -0.2814
11569W        W27643   4.485  12.126   4.035 -0.0778 -0.0422  0.1335
11570W        W27644  17.142  18.553   3.997 -0.0078 -0.3986  0.0941
11571W        W27645  12.108   6.606   1.341  0.2942 -0.1479 -0.0672
11572W        W27646   2.921  10.960   4.416  0.1367  0.1008  0.2608
11573W        W27647  15.044   2.833   4.004 -0.3910 -0.2021  0.0459
11574W        W27648  11.372   8.007  14.940 -0.1446 -0.1397 -0.1816
11575W        W27649  16.661   9.569  14.321  0.0621  0.1574 -0.3290
11576W        W27650  12.339  10.744   2.534  0.1565 -0.0552  0.1674
11577W        W27651  18.452  17.424  12.395  0.0862 -0.0801 -0.0025
11578W        W27652   4.010  16.018  10.564  0.1774  0.0567 -0.0740
11579W        W27653   6.616   8.674   9.889 -0.2019  0.1695 -0.2176
11580W        W27654   1.953   6.702  12.414 -0.2061  0.0544  0.0816
11581W        W27655  19.007   4.062  14.227  0.0633 -0.0855 -0.2062
11582W        W27656  19.066   9.616   3.030 -0.1917  0.0334  0.2140
11583W        W27657  13.995   5.412   0.893 -0.1482 -0.2247  0.2053
11584W        W27658  17.019  11.284  14.900  0.1296 -0.0192  0.0599
11585W        W27659   6.791   4.071   0.125  0.1122 -0.0115 -0.0848
11586W        W27660  15.622  14.967  13.592 -0.0877  0.0484 -0.0086
11587W        W27661   0.888   5.518  12.981 -0.0056  0.3973 -0.1001
11588W        W27662   3.721   9.277   1.203  0.0444  0.1521 -0.3250
11589W        W27663  10.651  18.555  13.774  0.0363  0.1150 -0.3002
11590W        W27664  10.138  13.292   6.189  0.1358 -0.0289  0.0151
11591W        W27665   6.760  15.377   3.745 -0.2591 -0.1278  0.0870
11592W        W27666   8.589  14.451   1.313  0.0993  0.0864  0.2712
11593W        W27667   6.968  15.054   2.931  0.0463  0.4550 -0.1513
11594W        W27668   4.601  18.661  11.494  0.1272  0.2601 -0.2907
11595W        W27669   5.824   3.966   2.085  0.1136 -0.1478  0.1831
11596W        W27670   9.530   3.782  12.813 -0.0580 -0.0384  0.2265
11597W        W27671   6.970  17.340   0.297 -0.2411 -0.1323 -0.2841
11598W        W27672   4.983  10.299  11.309  0.1252  0.0067 -0.1240
11599W        W27673   8.409  14.279   2.232 -0.0992  0.4172 -0.3074
11600W        W27674  15.073  17.857  14.416 -0.0186 -0.0575 -0.0173
11601W        W27675   2.297  17.976  10.520  0.1355  0.0472  0.0043
11602W        W27676   3.864   1.617   3.873 -0.0743 -0.1347 -0.2437
11603W        W27677  13.707   2.790   3.825  0.5228 -0.0831  0.4203
11604W        W27678   1.701  10.329  10.280  0.1541 -0.0678  0.1242
11605W        W27679   6.389   6.490   0.789  0.1420  0.1716  0.0752
11606W        W27680  10.822   3.112  13.246 -0.0656 -0.0312  0.0548
11607W        W27681   0.777   0.202  10.881 -0.0483  0.0995  0.1863
11608W        W27682  16.901  13.029   4.026  0.0081 -0.0172  0.1771
11609W        W27683   6.809  16.760  10.578  0.4695  0.1777  0.1667
11610W        W27684   0.668  12.015   3.646 -0.1882  0.2795 -0.0183
11611W        W27685   0.497  13.968  11.165 -0.1715  0.0505  0.1062
11612W        W27686  10.444   3.628   1.712  0.0812  0.2031 -0.0858
11613W        W27687   5.444  18.203   1.387 -0.0385  0.2858  0.0860
11614W        W27688  12.726   5.624  13.938 -0.0498  0.1650  0.0036
11615W        W27689  14.546  14.390   4.679  0.1466  0.3100  0.1036
11616W        W27690  11.814  17.209   2.690  0.0739 -0.1717  0.2563
11617W        W27691  11.797  18.538  10.893 -0.0495  0.0076 -0.3267
11618W        W27692   8.982   7.621  13.805  0.2256 -0.3937 -0.3006
11619W        W27693   1.366  15.545  13.189 -0.0348  0.2854 -0.1389
11620W        W27694  16.733  12.677  13.437 -0.0149 -0.2502 -0.0713
11621W        W27695  15.271  11.142  12.058 -0.0561 -0.2180  0.1340
11622W        W27696  15.534  14.891  12.726 -0.1315 -0.5202 -0.0659
11623W        W27697  13.513   3.271  12.330 -0.2646  0.0572  0.1357
11624W        W27698  12.613  16.483  13.735  0.0095  0.0418 -0.0350
11625W        W27699  14.222   6.495   4.851 -0.0908  0.1760  0.0026
11626W        W27700   3.498   5.699  10.419  0.2333  0.3956  0.1642
11627W        W27701   5.326  19.045   1.983  0.0021 -0.1508 -0.0420
11628W        W27702   4.885  16.891   1.919 -0.0039  0.1298  0.2395
11629W        W27703   0.686   4.592  12.223  0.1587  0.0584 -0.3787
11630W        W27704   7.920   6.896   5.293 -0.0492  0.3188  0.1517
11631W        W27705  15.068  10.548   3.594 -0.1503 -0.2124  0.1313
11632W        W27706   8.813   4.714   2.562 -0.0786 -0.0116 -0.0024
11633W        W27707  18.234   0.567  14.375 -0.1134 -0.1448  0.0051
11634W        W27708  14.114   4.462  14.811  0.2132 -0.2130  0.0612
11635W        W27709  15.377   6.277   3.530 -0.0256  0.0738  0.0701
11636W        W27710  10.339   4.806  13.838  0.1019  0.0821 -0.1003
11637W        W27711   2.845  13.405   4.637 -0.4997 -0.3283 -0.1648
11638W        W27712   3.495  12.125  14.185 -0.1765  0.4581 -0.0313
11639W        W27713  17.946   6.283  13.683 -0.1237 -0.0707 -0.3081
11640W        W27714   5.728  13.097  13.791  0.2637 -0.1608 -0.2685
11641W        W27715   1.591  14.878   0.182  0.3604 -0.1815  0.4536
11642W        W27716  12.099  11.193  12.319 -0.1102 -0.0299 -0.3267
11643W        W27717   6.936   5.639  11.304  0.0692  0.0325 -0.2163
11644W        W27718   8.150  16.187  11.060  0.1579 -0.2162  0.2431
11645W        W27719   5.273  13.138   4.415 -0.0898 -0.1614 -0.0771
11646W        W27720   7.865   1.486  13.996 -0.1322  0.0223 -0.1093
11647W        W27721   5.891  14.398   1.499  0.0446 -0.0888  0.1500
11648W        W27722  17.991  13.180   4.635  0.1324  0.1723  0.1252
11649W        W27723  14.128   9.199  14.669  0.2386 -0.0016  0.0388
11650W        W27724   1.437  10.129   2.837  0.0321 -0.2844  0.0531
11651W        W27725   7.140   8.674   3.721 -0.0260 -0.1400  0.2604
11652W        W27726  14.500   6.673   0.855 -0.2158 -0.1388 -0.1767
11653W        W27727  15.212   7.221  13.743  0.0038 -0.5774  0.2134
11654W        W27728   5.588   5.212   2.594  0.1848  0.1828  0.0502
11655W        W27729   2.449  18.414   3.813 -0.3017  0.0641  0.2415
11656W        W27730  17.806   8.415   4.293 -0.2390  0.1043  0.2507
11657W        W27731   3.983  13.678  13.692 -0.1058  0.0845 -0.1957
11658W        W27732   3.045   6.788  11.395 -0.1674  0.1666 -0.0593
11659W        W27733   6.379  10.289   3.983 -0.3255  0.0831  0.1665
11660W        W27734  14.067   8.139   1.411 -0.1520  0.0506 -0.0251
11661W        W27735   0.194  15.303   3.087 -0.1440  0.2307  0.2086
11662W        W27736  15.425  11.495  10.568  0.1383  0.1569 -0.0780
11663W        W27737   3.114  10.481   3.670 -0.1849  0.2427  0.1342
11664W        W27738  16.702   7.223   2.053 -0.1051 -0.0974  0.0928
11665W        W27739   5.468  10.485  11.022  0.3369 -0.2547  0.0617
11666W        W27740  16.555  17.791  13.711  0.1344  0.1327 -0.2560
11667W        W27741  14.737   7.015   3.311  0.4973 -0.0219  0.3622
11668W        W27742   1.212  12.640   2.411  0.1792  0.0662  0.0424
11669W        W27743   3.089   6.952  13.219 -0.3731  0.4655 -0.3520
11670W        W27744  13.442  15.537  12.503 -0.6608  0.0963  0.1449
11671W        W27745  18.210  15.123  12.229  0.3183  0.1705  0.3892
11672W        W27746   5.320   2.742  12.359  0.2928 -0.4074 -0.1848
11673W        W27747   3.726  13.849  14.212  0.0586  0.2136 -0.1264
11674W        W27748   7.923   3.982   1.041  0.0984 -0.2652  0.1047
11675W        W27749   9.610  18.374  10.580 -0.2046 -0.1610  0.0929
11676W        W27750  14.313   0.428   0.621 -0.0432 -0.2313 -0.1533
11677W        W27751  12.324  11.209  11.371  0.0487 -0.0708 -0.0956
11678W        W27752  12.183  14.712  15.052  0.0623 -0.0396 -0.1245
11679W        W27753   8.797  14.314   0.298  0.2430  0.0394 -0.0442
11680W        W27754   8.445   6.355  14.000  0.0928 -0.2628 -0.1009
11681W        W27755   3.262   1.475  12.196 -0.4244 -0.1740  0.0254
11682W        W27756  17.879  17.543  10.409 -0.0332 -0.1471  0.2160
11683W        W27757   0.124  18.244   0.392  0.1384 -0.3172  0.0941
11684W        W27758   9.490  10.810   0.215  0.1143 -0.2307 -0.2065
11685W        W27759   4.288  12.741  14.951  0.0587 -0.0004 -0.3912
11686W        W27760  18.607   4.180   4.246 -0.0174  0.2188 -0.0750
11687W        W27761   0.060   8.096  12.669  0.2110  0.0660  0.1360
11688W        W27762   1.867  11.621  12.010  0.1168 -0.2191 -0.1028
11689W        W27763   2.682  18.978  11.059 -0.0745 -0.1973  0.1658
11690W        W27764   6.203   7.885  12.884  0.1451 -0.3316 -0.1807
11691W        W27765   6.743  13.863   0.323 -0.0447 -0.2174  0.0197
11692W        W27766  15.517   5.133   0.707  0.0497  0.0966  0.0356
11693W        W27767   8.552   5.731   5.436  0.1063  0.0070 -0.4257
11694W        W27768   8.160   2.097  11.592 -0.2416  0.0337 -0.0711
11695W        W27769  17.088  16.147  10.373 -0.2156  0.2998  0.1450
11696W        W27770   8.869  17.266  12.488  0.1462 -0.1048 -0.1771
11697W        W27771   4.073  14.469  11.051 -0.1135 -0.1351 -0.2396
11698W        W27772   8.171   6.438   3.208 -0.1268 -0.1632 -0.0733
11699W        W27773  11.422  13.230  14.707  0.1204  0.4549 -0.3228
11700W        W27774  18.621   6.498  13.219 -0.0392 -0.3291 -0.0970
11701W        W27775  12.972   6.428   5.145 -0.1726 -0.1109 -0.3463
11702W        W27776   5.700  18.732   3.383 -0.0420 -0.3024 -0.1450
11703W        W27777   3.917   7.625   3.086 -0.0239 -0.0326 -0.0719
11704W        W27778  16.635   6.525  11.646 -0.5028  0.0872  0.1359
11705W        W27779  10.646   6.600   5.799 -0.2942  0.2169 -0.1637
11706W        W27780  16.317  16.293  10.909 -0.0367 -0.0456 -0.4502
11707W        W27781   2.917   4.553   2.032 -0.0748 -0.4845  0.1582
11708W        W27782   2.961  11.963   2.643 -0.1227  0.2490 -0.1890
11709W        W27783  11.317   7.769  11.331  0.1662 -0.1241 -0.1961
11710W        W27784  14.244  12.171  10.348 -0.0988 -0.2343  0.3853
11711W        W27785  12.496  14.847   3.865  0.0619 -0.2296  0.0882
11712W        W27786   1.544  10.879   3.296  0.0126 -0.0013 -0.0166
11713W        W27787   8.321  12.348   3.248  0.0362  0.1482 -0.0225
11714W        W27788   0.912  17.474  12.135 -0.2523 -0.1681  0.2830
11715W        W27789   0.672  16.655  12.253  0.3479  0.0260 -0.1440
11716W        W27790  10.476   9.518   5.208 -0.1390 -0.1604  0.4060
11717W        W27791  15.697   5.532  13.264 -0.0038  0.3313  0.1392
11718W        W27792  13.972  14.486   1.499 -0.1574 -0.1149  0.1617
11719W        W27793   8.400  19.032  10.716  0.2166  0.0096  0.3361
11720W        W27794  13.008  15.478   2.345 -0.0885  0.1519  0.1162
11721W        W27795  15.911   5.937   1.267 -0.2003 -0.0727  0.0554
11722W        W27796  17.656  17.179  13.255 -0.0374 -0.0577 -0.2683
11723W        W27797   4.115   7.942   5.660 -0.2064  0.0037  0.1979
11724W        W27798   5.566  16.446   3.395  0.2772  0.1216 -0.2726
11725W        W27799   6.685  19.154   3.295 -0.0216 -0.2508 -0.0337
11726W        W27800   3.988   9.002   2.416 -0.2357 -0.1865 -0.0216
11727W        W27801   7.959   4.678  11.382  0.2656 -0.2518  0.0451
11728W        W27802   9.645   5.754   4.344  0.0157 -0.0705 -0.0670
11729W        W27803   8.739   5.755   0.047 -0.1649  0.1290  0.0693
11730W        W27804   6.005  13.062   2.281 -0.2204 -0.0106  0.1110
11731W        W27805   6.217  15.131  14.916  0.0601  0.2288  0.1008
11732W        W27806   1.181   2.465  11.837 -0.0216  0.1282  0.0807
11733W        W27807  10.227   3.171  11.036  0.2556 -0.0854  0.2333
11734W        W27808   9.600  17.518  13.538  0.0049 -0.1659 -0.1441
11735W        W27809  10.262   7.403  11.325  0.0268  0.0169  0.3631
11736W        W27810  10.814  17.731   4.175  0.1317  0.1054  0.1577
11737W        W27811  15.642  10.268   9.722 -0.1017 -0.0670 -0.1099
11738W        W27812   4.590   3.238   1.260  0.5644 -0.0504  0.1860
11739W        W27813  10.595  19.273   4.697  0.1250  0.2384 -0.1237
11740W        W27814  12.139   1.790  14.007 -0.2566 -0.1490  0.2464
11741W        W27815   7.527   2.767   3.406 -0.0591  0.1993  0.0134
11742W        W27816  12.895  10.746   0.075 -0.0519 -0.0267 -0.3591
11743W        W27817  16.383  17.871   0.721 -0.2689 -0.0362  0.0568
11744W        W27818   3.185  15.103  14.129  0.0603 -0.2142 -0.0844
11745W        W27819   3.860   6.264  12.484 -0.0527 -0.2289 -0.0746
11746W        W27820   5.846   6.390   0.924  0.0579 -0.0579  0.6155
11747W        W27821   2.101  13.818  10.278  0.1102  0.0957  0.2538
11748W        W27822   8.127   7.198   1.314 -0.4105  0.1398 -0.4416
11749W        W27823  19.158   8.564   4.656 -0.2056 -0.0118 -0.0428
11750W        W27824  11.998  10.945   4.643 -0.4479 -0.1092 -0.0758
11751W        W27825   6.381  14.472   2.353  0.3406  0.0608 -0.1038
11752W        W27826   1.902   9.505  10.764 -0.0400  0.0433  0.0225
11753W        W27827  10.424   0.779  11.227 -0.1955 -0.0995  0.0750
11754W        W27828  15.082   2.431   3.670 -0.1175  0.2194  0.1215
11755W        W27829   9.571  12.081   4.711 -0.1909  0.2761  0.0685
11756W        W27830  15.931  16.861  13.640  0.0381  0.2274  0.2771
11757W        W27831   2.776   7.651   0.517  0.2295  0.0306 -0.0683
11758W        W27832  11.240  19.161  13.646 -0.1384 -0.3720  0.3865
11759W        W27833   3.454  11.691  11.368 -0.1715  0.0687 -0.2753
11760W        W27834   1.070   2.838   4.398  0.3966 -0.1482 -0.2746
11761W        W27835  17.697   3.756   2.068  0.1506 -0.3078 -0.0465
11762W        W27836  17.040  17.794  11.719 -0.0572  0.1911 -0.1297
11763W        W27837  11.076   3.101  12.458  0.1886  0.1564 -0.2714
11764W        W27838   2.954   0.318   1.967  0.1742 -0.4503  0.0579
11765W        W27839   9.016   9.168   9.744  0.1800 -0.3657  0.2484
11766W        W27840  16.232   4.425  10.571  0.3076 -0.0116 -0.1951
11767W        W27841   3.248  12.562   5.037 -0.0206  0.1759  0.0371
11768W        W27842  15.390   0.726  12.694 -0.0246 -0.0967  0.4156
11769W        W27843   6.915   5.658   3.931  0.3072  0.0677  0.0459
11770W        W27844  15.237  13.597   0.837 -0.2405 -0.0024  0.0095
11771W        W27845  11.001   8.080   5.092 -0.3146 -0.0216  0.2243
11772W        W27846   5.282  13.008   4.870 -0.3890 -0.3942 -0.3330
11773W        W27847  12.665   7.735   4.840  0.1039  0.1210  0.3938
11774W        W27848   5.414   5.690   0.428 -0.0236 -0.3419 -0.0897
11775W        W27849  13.039   1.241  13.032  0.0680 -0.0576 -0.0598
11776W        W27850  16.364  17.237  10.804  0.0107 -0.0197 -0.3764
11777W        W27851  17.847   2.789  14.150 -0.2537  0.0418 -0.0101
11778W        W27852   4.959  19.162  14.479 -0.4000  0.1330 -0.0839
11779W        W27853  10.597  18.202  11.843 -0.0230  0.3955 -0.0975
11780W        W27854  14.839   4.870   0.847  0.1072 -0.2585 -0.1352
11781W        W27855  15.963  14.342   2.441  0.2122  0.0988 -0.0877
11782W        W27856  16.287   3.708   0.844 -0.1771  0.0734 -0.3147
11783W        W27857  14.439  16.809   0.559  0.7849 -0.2612  0.1049
11784W        W27858   0.267  12.688  12.886 -0.1471 -0.0834  0.0157
11785W        W27859  13.126  10.545   3.991 -0.0451  0.0472 -0.1327
11786W        W27860   9.673  14.737  14.767 -0.0698 -0.0720 -0.0520
11787W        W27861  18.762  19.253  14.608 -0.5081 -0.2595  0.1062
11788W        W27862  10.912  16.170  12.376  0.0246  0.0084 -0.0984
11789W        W27863  19.285  12.875  10.193 -0.2247 -0.2145  0.1618
11790W        W27864  15.395   5.063  12.065  0.2716 -0.5528 -0.2316
11791W        W27865  13.162   8.629   4.105  0.2353  0.0353  0.2293
11792W        W27866  12.263   9.757   5.095 -0.1091 -0.0385 -0.0314
11793W        W27867  15.218   0.987  10.755 -0.3829  0.0871 -0.2265
11794W        W27868  17.872  11.952   4.876  0.0902  0.1572 -0.2286
11795W        W27869  16.200   3.622  10.577 -0.1310  0.0916 -0.3806
11796W        W27870   4.077  14.884   2.845  0.1042 -0.0578  0.1551
11797W        W27871  13.814   1.064  11.642  0.1296  0.0850 -0.1943
11798W        W27872  17.664   8.844   4.521 -0.1773 -0.0769 -0.1603
11799W        W27873   6.524  18.001  14.616 -0.1804  0.1631 -0.1120
11800W        W27874  10.242  10.091  13.136  0.0309  0.2421 -0.6123
11801W        W27875  10.545  17.338   4.311  0.3041  0.1607  0.0289
11802W        W27876   3.012   2.325   2.417  0.0879  0.1211  0.1463
11803W        W27877  18.034   6.075   4.165  0.0097 -0.4472  0.1168
11804W        W27878  12.413  11.467  13.152  0.0322 -0.1535 -0.3044
11805W        W27879  18.321  11.006   9.288 -0.0668 -0.0479  0.1181
11806W        W27880  14.913  10.151  14.167  0.0289 -0.3680 -0.0696
11807W        W27881   1.608  13.965   4.152  0.2968  0.2347  0.0970
11808W        W27882  16.027  18.671   3.413 -0.2350  0.2150 -0.1817
11809W        W27883   1.172   4.141   3.573  0.0585 -0.1602 -0.0094
11810W        W27884  16.610  11.574   0.173 -0.2528 -0.1904  0.1674
11811W        W27885   5.961  15.513  12.623  0.2547  0.2390 -0.1840
11812W        W27886   0.422   4.752  13.612 -0.1094 -0.1250 -0.0116
11813W        W27887   0.986  12.812   5.001 -0.0632 -0.0843 -0.2619
11814W        W27888  17.472   4.606  11.564  0.1344  0.0838 -0.1627
11815W        W27889   3.304   9.508  14.949 -0.0920 -0.1712 -0.1034
11816W        W27890   8.595   5.472  11.253 -0.1121  0.0646 -0.0674
11817W        W27891   4.686   8.012  11.854  0.1376  0.1758 -0.1752
11818W        W27892  10.497   7.817  13.496 -0.0709 -0.1829 -0.0823
11819W        W27893   1.593  13.873  10.376 -0.1018 -0.1464  0.1952
11820W        W27894  14.400  16.926  14.268 -0.0228 -0.3824  0.1360
11821W        W27895   8.601   6.409  11.821  0.4833  0.1375 -0.4286
11822W        W27896   1.684  11.875  13.520  0.2042  0.0018  0.0849
11823W        W27897  18.977   8.065  11.847  0.5792  0.0645  0.3539
11824W        W27898   5.950  14.264  12.354  0.0201  0.4179 -0.1771
11825W        W27899   0.795   3.762   4.316  0.0238  0.1197 -0.1017
11826W        W27900   8.535  16.541   3.734 -0.1774  0.1896  0.0461
11827W        W27901   7.141  12.909  10.015  0.0713  0.1643  0.2079
11828W        W27902   1.363   0.601   1.066  0.0033 -0.0317 -0.3401
11829W        W27903   6.262  17.755  14.153 -0.0316  0.1461  0.1682
11830W        W27904   2.314  14.142  12.693  0.2819 -0.2500  0.3035
11831W        W27905   3.494  11.992   2.580 -0.1028  0.1615  0.0313
11832W        W27906  17.418   6.335   1.008  0.2296 -0.1383 -0.1527
11833W        W27907  10.872   7.413   5.346 -0.2547 -0.0321 -0.0997
11834W        W27908  18.467   7.983  10.920  0.0598  0.0581  0.1822
11835W        W27909   9.732  12.819   1.044 -0.1467  0.2316  0.0332
11836W        W27910  13.088   4.149  11.546 -0.3511  0.3009 -0.1473
11837W        W27911   3.708  13.583  13.317 -0.0798 -0.0694  0.0659
11838W        W27912  14.333   4.478  13.502 -0.0403  0.0740  0.1656
11839W        W27913  18.987   5.968  12.278  0.2021 -0.3579  0.1688
11840W        W27914   8.936  19.146  14.817 -0.1441 -0.2454 -0.0570
11841W        W27915  14.269  17.204   3.370  0.2606 -0.0603  0.2325
11842W        W27916   2.767   3.627  13.793 -0.3393  0.1888 -0.2841
11843W        W27917  10.241  12.259  13.131  0.2596  0.1976  0.0858
11844W        W27918  14.103   2.162   0.766  0.0648 -0.1093  0.1360
11845W        W27919   8.061   0.143   0.874 -0.3277  0.1345 -0.1202
11846W        W27920  14.768   7.831  12.567  0.1348  0.0461 -0.0995
11847W        W27921  18.090  11.714  13.872 -0.0456  0.1651 -0.2596
11848W        W27922  10.000  14.440  13.022 -0.1328  0.2633 -0.0336
11849W        W27923  12.815  15.106   4.217  0.0352 -0.1517 -0.2384
11850W        W27924   2.558   6.449   1.028 -0.2612  0.0738 -0.3710
11851W        W27925  19.031   2.796   3.021  0.1667 -0.1643 -0.1505
11852W        W27926   4.078   8.880   5.425 -0.0617 -0.1724 -0.0059
11853W        W27927  18.876  13.366  13.788 -0.1385 -0.0434  0.0424
11854W        W27928   9.327   1.802  12.677 -0.1969  0.0570 -0.1111
11855W        W27929   5.843  14.238  11.764 -0.2834 -0.0766 -0.0659
11856W        W27930   1.249  13.377  12.132  0.1340  0.1038 -0.2277
11857W        W27931   2.291  10.965   2.300 -0.2620  0.0028 -0.0084
11858W        W27932   6.326   7.390   0.294  0.0925 -0.0235  0.0581
11859W        W27933   9.380   4.291   2.374 -0.0475 -0.1215 -0.2663
11860W        W27934  13.878   6.435   2.021  0.0406 -0.2770  0.1111
11861W        W27935  19.106  14.010  14.465  0.0868  0.0002  0.1531
11862W        W27936   4.932   8.499   5.850  0.1885 -0.1098  0.0795
11863W        W27937   2.208   0.047  11.144  0.0404  0.4886  0.0895
11864W        W27938   0.514  10.573  14.114  0.0729 -0.0164 -0.1748
11865W        W27939   3.932  10.142  14.992 -0.1485 -0.6102 -0.1666
11866W        W27940  18.554  18.569   1.748 -0.2776  0.1535 -0.1713
11867W        W27941   4.538  10.189   3.580  0.0835  0.2612  0.0317
11868W        W27942   4.078   7.693  12.434 -0.2019 -0.3197  0.1795
11869W        W27943   5.149   0.961  13.433  0.1157 -0.0291  0.0798
11870W        W27944  18.218  16.657  10.188  0.2819 -0.2342  0.4397
11871W        W27945   9.141   6.500   4.244  0.0214  0.0118  0.2240
11872W        W27946   7.298  17.877  13.187  0.1695 -0.0336 -0.0201
11873W        W27947   8.690  10.910   2.079  0.0781 -0.1129 -0.4109
11874W        W27948   1.815  13.132  14.551 -0.5033 -0.0837 -0.0813
11875W        W27949   0.916   7.557  10.724  0.0178  0.0185  0.3185
11876W        W27950   7.988   4.092   3.296 -0.0070  0.0300 -0.1416
11877W        W27951   0.682   8.111   5.735 -0.1369  0.0966  0.0989
11878W        W27952   7.106   0.407   1.612 -0.3207  0.0200 -0.1711
11879W        W27953   0.109  16.254   3.593  0.0966  0.0540 -0.2895
11880W        W27954  12.014   2.962  11.962 -0.2972 -0.0498 -0.1156
11881W        W27955   7.378  12.899  12.248  0.0706 -0.1151 -0.0635
11882W        W27956  13.686  10.432  12.728 -0.0249 -0.4184 -0.0705
11883W        W27957  16.747   2.304  14.350  0.0076 -0.0437 -0.1616
11884W        W27958  18.457   3.401  11.252 -0.1029 -0.0405 -0.1205
11885W        W27959  14.510   9.634  13.372  0.1660  0.1965 -0.3525
11886W        W27960   5.534   1.126  12.236  0.5349  0.0286 -0.1951
11887W        W27961  16.780  13.106  10.031  0.1240 -0.0595 -0.0085
11888W        W27962   5.335  11.118  10.350  0.3069  0.1147 -0.1943
11889W        W27963  16.904   6.832  14.405  0.1450 -0.0909  0.2324
11890W        W27964   3.778  17.055  14.217  0.0218 -0.1912 -0.0102
11891W        W27965   7.455   8.161  14.841 -0.3307  0.4175 -0.2988
11892W        W27966   7.246   8.276  12.512  0.0799 -0.0601 -0.2871
11893W        W27967   6.382   2.390  14.594  0.2871  0.2451 -0.0182
11894W        W27968   8.635  11.934  12.294  0.1905 -0.2154 -0.0826
11895W        W27969   8.517   8.521  13.693 -0.2124 -0.1504  0.0167
11896W        W27970  12.029   1.337  12.953 -0.2171 -0.0299  0.3115
11897W        W27971   6.555   6.055   2.140 -0.0425  0.0624  0.1608
11898W        W27972   0.478  11.355   0.024  0.0491  0.1396 -0.2250
11899W        W27973   2.642  13.743  13.651  0.4055 -0.2334 -0.0958
11900W        W27974  11.766  16.571   0.105  0.3388  0.2055 -0.4581
11901W        W27975  14.897   9.726  14.528 -0.1258 -0.0062 -0.5831
11902W        W27976   6.945   7.893  14.095 -0.0449 -0.2735 -0.2957
11903W        W27977   7.947   1.809   5.294  0.2450 -0.0628  0.1149
11904W        W27978  14.174   4.181  12.985  0.1014  0.0427 -0.0627
11905W        W27979   0.976  13.728  11.125  0.1088  0.3309  0.0674
11906W        W27980  13.429   1.213  11.378 -0.3074  0.0876  0.1295
11907W        W27981   7.963   7.563  11.418  0.0072  0.0279  0.0156
11908W        W27982  10.986  17.819  13.206 -0.1891 -0.2152  0.0336
11909W        W27983   5.108  17.107   0.446 -0.0738  0.0175  0.0503
11910W        W27984  10.905  11.212  12.689 -0.0364 -0.0286 -0.0959
11911W        W27985   9.768   7.473   4.901 -0.0798 -0.1637  0.3580
11912W        W27986  12.641   9.774   0.811 -0.2129 -0.0674 -0.0478
11913W        W27987   5.682  14.331  14.748  0.1787  0.1386  0.0326
11914W        W27988  17.136  16.759   4.654  0.1414 -0.1624  0.0103
11915W        W27989   7.104   0.258   3.368  0.0708  0.0289  0.1583
11916W        W27990  17.632   9.035   4.005  0.3457  0.1702  0.1165
11917W        W27991  16.338  17.905   3.558 -0.5012  0.0977 -0.1193
11918W        W27992  18.026  12.870   1.565  0.0362 -0.0681  0.1184
11919W        W27993   1.757  15.386   3.147  0.1157 -0.4721  0.1255
11920W        W27994   8.077   9.239  14.100 -0.1371 -0.0987 -0.1461
11921W        W27995  16.005  14.747  14.890 -0.1761 -0.0531  0.0782
11922W        W27996  14.641   8.473   1.977 -0.1371  0.0996  0.1341
11923W        W27997   3.229   1.622  14.060 -0.0308 -0.1888 -0.1259
11924W        W27998  16.948  15.738  14.536 -0.2480  0.0847  0.1667
11925W        W27999   1.027  17.243   1.992  0.1843 -0.1256 -0.0474
11926W        W28000  13.324  17.502   5.435 -0.0610  0.0308  0.1059
11927W        W28001  16.173  16.164   9.127  0.0766 -0.2824 -0.4811
11928W        W28002  10.164  15.992   1.553  0.1015 -0.4258  0.3983
11929W        W28003  15.936   9.599  12.195 -0.0138 -0.2892 -0.0069
11930W        W28004   6.962  13.882   2.010 -0.0591  0.0870 -0.2277
11931W        W28005   5.404  16.786  10.617  0.1335  0.1640  0.0575
11932W        W28006   8.830  10.405   5.902  0.0131 -0.1571  0.0478
11933W        W28007   1.659   6.661  11.538 -0.2135  0.1137 -0.0180
11934W        W28008  11.916   1.591   9.535  0.0720 -0.2439  0.0805
11935W        W28009   6.041  18.147  12.161 -0.1182 -0.2126 -0.2262
11936W        W28010  11.215  12.594   1.954 -0.0455 -0.3338  0.1771
11937W        W28011  10.849  12.846   3.192  0.3465 -0.4486 -0.1681
11938W        W28012  16.575  15.445   0.192 -0.0853  0.0639 -0.0607
11939W        W28013   4.455   9.431   0.842 -0.1992 -0.3322  0.0110
11940W        W28014   1.439  11.157   1.001 -0.0463  0.2408 -0.0016
11941W        W28015   9.463  15.666   3.446 -0.4143  0.0144  0.1175
11942W        W28016  18.379  17.620   0.941  0.1466  0.1577  0.0670
11943W        W28017   4.294  12.127   3.505 -0.1212 -0.1319  0.1601
11944W        W28018  13.948  13.882  14.345 -0.0160 -0.2417  0.0821
11945W        W28019   7.891   9.107  12.467 -0.1616  0.1388  0.1455
11946W        W28020  10.118   9.256  11.510  0.3558 -0.1634  0.0098
11947W        W28021  15.873  12.494  14.943 -0.2083  0.0303  0.1165
11948W        W28022   2.483  11.816   2.421  0.3997  0.0145  0.0195
11949W        W28023  15.351   4.913   1.964  0.2950  0.1498  0.1058
11950W        W28024  13.071  13.038  14.744  0.3910  0.0689 -0.1802
11951W        W28025   5.532  19.281   2.448 -0.4347 -0.0298  0.2366
11952W        W28026  12.260   1.643   0.299  0.2304 -0.0512 -0.1622
11953W        W28027   5.643   3.976   1.546 -0.3915 -0.0462 -0.2651
11954W        W28028   9.362   4.701   4.977 -0.1813 -0.1619  0.1034
11955W        W28029   6.651   7.527  14.307  0.4549  0.0969 -0.1131
11956W        W28030   2.698  14.284  13.971  0.0507  0.0225 -0.2199
11957W        W28031   7.991  14.948  13.290  0.2824  0.1351  0.0586
11958W        W28032   8.948   3.307  12.474 -0.2863 -0.3984  0.2950
11959W        W28033   2.300  16.946   0.354 -0.0836  0.0079 -0.0243
11960W        W28034   5.050   5.188  12.418  0.1923  0.0172 -0.2962
11961W        W28035   4.212  10.402   1.371 -0.3260 -0.4069  0.1821
11962W        W28036  15.197   4.180   2.207  0.2891 -0.0456 -0.6061
11963W        W28037  13.279   8.455  14.160 -0.0378  0.1226  0.1190
11964W        W28038   8.575   2.321  11.332  0.3429  0.1737  0.0299
11965W        W28039  18.963  15.979   3.596  0.0697  0.2481  0.0163
11966W        W28040   7.897  17.279  14.319 -0.1193 -0.0931  0.0506
11967W        W28041   8.868  10.612  11.483  0.1829 -0.1116  0.1220
11968W        W28042   1.610  17.543   0.120  0.1371  0.3423  0.2499
11969W        W28043  17.902  15.868  11.241  0.3932 -0.2163  0.0593
11970W        W28044  13.438   8.146  13.839  0.0605  0.1323  0.4000
11971W        W28045   5.996   1.889  12.613  0.1138  0.0193 -0.0701
11972W        W28046  13.989   6.701   0.631 -0.0863  0.1503  0.3364
11973W        W28047   6.568  11.114  14.691  0.1079 -0.0267  0.1393
11974W        W28048   1.277  18.736   2.753  0.1203 -0.2215 -0.0214
11975W        W28049   8.249  17.682   2.246  0.2206 -0.1719  0.2359
11976W        W28050  17.565  18.471   2.238  0.0584 -0.0856  0.0686
11977W        W28051   5.616  13.450   1.849  0.1194  0.1563  0.1457
11978W        W28052  17.343  15.472   1.108 -0.0605  0.1824 -0.2074
11979W        W28053   0.439  16.145  10.380  0.0622 -0.1949 -0.1142
11980W        W28054  10.137  10.857  14.735  0.2845  0.0743  0.1865
11981W        W28055  11.185  16.483   4.006  0.1935  0.2378  0.2107
11982W        W28056   3.109  17.721   5.623 -0.2368  0.2849 -0.1905
11983W        W28057  17.700   2.230   4.537 -0.1040  0.1424  0.2532
11984W        W28058   3.969  18.953  14.183 -0.0511  0.0890 -0.2170
11985W        W28059   5.379   0.142   3.333  0.1014  0.2703 -0.2460
11986W        W28060  15.982  16.237   2.759 -0.0783  0.0453 -0.1300
11987W        W28061   9.966  13.874   0.175 -0.1002  0.5084  0.1873
11988W        W28062   0.380  12.558   1.728  0.0233 -0.3332 -0.2564
11989W        W28063   2.158  13.448   2.015 -0.2852 -0.2091 -0.1790
11990W        W28064  17.930  16.788   2.232 -0.2491 -0.2164  0.0118
11991W        W28065  13.535   3.224  11.353 -0.1448 -0.4402  0.2234
11992W        W28066   2.570  13.018  12.816 -0.2518 -0.1594  0.1007
11993W        W28067  12.451   3.612  10.889  0.0731  0.1137 -0.0174
11994W        W28068   1.158  15.346   4.557  0.1911  0.4040 -0.0900
11995W        W28069   9.039  17.326  11.063 -0.0592 -0.2645 -0.1279
11996W        W28070  14.696  17.389   1.742  0.1916  0.0919 -0.0432
11997W        W28071  16.249  11.125   1.670 -0.1574  0.0261  0.1252
11998W        W28072  18.812  17.487   0.752 -0.0116  0.1462  0.1342
11999W        W28073  11.659   6.843   4.043 -0.1310  0.2029 -0.0179
12000W        W28074  16.345   4.184  13.382  0.1804 -0.3007  0.0681
12001W        W28075  17.970  17.118   1.111 -0.2582 -0.2034 -0.4196
12002W        W28076  17.047   4.526  12.479  0.2101 -0.0970  0.2564
12003W        W28077  10.261  13.007   1.135 -0.0572 -0.2147 -0.4879
12004W        W28078   8.112   2.400   1.480  0.1541 -0.2052  0.4584
12005W        W28079   3.587   6.808  14.428  0.0365  0.4530  0.0056
12006W        W28080   8.700  17.054   3.530 -0.0450  0.1972  0.4586
12007W        W28081  13.184  17.936  10.978 -0.0643 -0.2563  0.2200
12008W        W28082  14.059  15.436  13.343  0.0746  0.2471 -0.4516
12009W        W28083   7.321  12.985  12.872  0.2409  0.0601 -0.1224
12010W        W28084   5.666   2.777   0.259 -0.0813 -0.0937  0.0261
12011W        W28085   1.972  15.535  12.462  0.0580  0.1950  0.2279
12012W        W28086   5.317   2.393  11.333 -0.0391  0.1493 -0.1193
12013W        W28087  15.137  11.408   4.036  0.0406 -0.1151 -0.0898
12014W        W28088  16.532   1.164  14.301  0.0616  0.4219 -0.1883
12015W        W28089   3.412   0.453   0.100  0.1195  0.0883  0.3491
12016W        W28090   7.085   8.262   2.428  0.2849  0.0698 -0.0977
12017W        W28091   4.011  12.582  14.528  0.1674  0.1032 -0.1933
12018W        W28092  15.157   2.801   2.819 -0.2779  0.0012  0.0960
12019W        W28093   8.346   5.577   4.950  0.2204  0.2413 -0.5255
12020W        W28094   0.481  18.199   1.183  0.0407  0.2104 -0.2876
12021W        W28095  13.191  11.915   1.812 -0.2152 -0.1456  0.0149
12022W        W28096   1.654   3.056  15.005 -0.2138  0.0111 -0.0093
12023W        W28097   3.595   4.472  10.936 -0.0251  0.2442  0.0591
12024W        W28098  10.243  18.349   0.067  0.1343  0.0950  0.0115
12025W        W28099  17.912  18.658  11.770  0.2612  0.0787 -0.2535
12026W        W28100  14.097   5.885  12.095 -0.1755 -0.0545 -0.0259
12027W        W28101   0.740   3.906   3.730 -0.1191 -0.1115 -0.1457
12028W        W28102   1.577  17.957   1.748 -0.1528 -0.0004  0.0174
12029W        W28103  16.820   8.923   1.618 -0.0333 -0.1025 -0.0552
12030W        W28104  14.660  15.708  12.927  0.1361 -0.1900  0.0605
12031W        W28105   4.020  15.584  14.051 -0.0112  0.1018  0.0172
12032W        W28106  18.641   0.416  12.916  0.0502  0.0720 -0.0327
12033W        W28107   5.701   7.154  12.346 -0.0155  0.2256  0.0849
12034W        W28108  18.801   1.194  13.715 -0.0535  0.2970 -0.2485
12035W        W28109   1.089   5.403  11.941  0.0471  0.3546  0.2471
12036W        W28110  13.783   3.134   3.399  0.1579  0.1153  0.0487
12037W        W28111  14.576   0.884   3.250 -0.0520  0.0510  0.2588
12038W        W28112   5.463   0.322   2.832  0.2320 -0.2562  0.0221
12039W        W28113   4.537  12.470   1.327  0.0244 -0.1509  0.0410
12040W        W28114  10.504   7.821   3.052  0.0111  0.2612  0.3287
12041W        W28115  14.798   9.232   3.152  0.0517 -0.0921  0.1119
12042W        W28116   5.688   8.509  13.635 -0.3944  0.1381  0.0434
12043W        W28117  11.633  18.054  13.583  0.2348  0.0082 -0.0680
12044W        W28118   0.645   6.677  13.620  0.2563  0.0077 -0.0471
12045W        W28119   6.358  12.305  10.001 -0.2418 -0.2923 -0.2516
12046W        W28120   1.894   9.340  14.356 -0.0236  0.4639 -0.2360
12047W        W28121   2.014   7.766  11.099  0.3060 -0.5280 -0.3345
12048W        W28122   1.132  10.875   0.671 -0.3787 -0.1667 -0.4890
12049W        W28123  18.240  17.676   4.438 -0.2445  0.3242 -0.0263
12050W        W28124   5.573  14.906  14.344 -0.0364  0.1471 -0.1780
12051W        W28125  15.905  11.273  11.267  0.2803  0.1292 -0.1177
12052W        W28126   0.232   7.804   4.184 -0.0646  0.0300 -0.1010
12053W        W28127   4.008   7.440  10.751 -0.1207 -0.0893 -0.0699
12054W        W28128   6.237   3.312   0.838  0.2188 -0.0715 -0.3106
12055W        W28129  10.656   5.721   5.627 -0.0331  0.0078  0.0255
12056W        W28130  11.518  14.634   3.910  0.4373 -0.0490 -0.1646
12057W        W28131   8.746   9.522  12.515 -0.2136  0.0707  0.1210
12058W        W28132  10.244   1.359  14.503  0.0138 -0.1263  0.0358
12059W        W28133   4.280   3.614  13.492 -0.1233 -0.2379  0.0189
12060W        W28134   2.673  11.390   2.345  0.0662  0.1316 -0.0939
12061W        W28135  13.794  14.258   1.051  0.1837 -0.0159  0.0041
12062W        W28136   5.019   1.007  14.574  0.1161  0.0231 -0.0157
12063W        W28137  18.349   2.625   2.603  0.1051  0.2160 -0.0532
12064W        W28138   8.506   6.135   2.186  0.4363 -0.0200  0.2047
12065W        W28139   8.455   4.956   0.396 -0.3179  0.0053  0.1475
12066W        W28140   6.302   2.367   2.812 -0.1915 -0.0052 -0.5240
12067W        W28141   4.753  15.250   1.066 -0.0848 -0.2140  0.3039
12068W        W28142  14.224   4.703   5.465  0.0590  0.4086 -0.0884
12069W        W28143   7.684  18.105   0.726 -0.2080 -0.1935  0.0044
12070W        W28144   6.621   5.583   0.721 -0.0056 -0.1959  0.0717
12071W        W28145   7.761  13.671   3.053  0.0568  0.5240  0.1643
12072W        W28146   2.112  13.044  13.969 -0.2013 -0.1274 -0.0016
12073W        W28147  13.925   9.791   0.484 -0.1003 -0.0313 -0.1889
12074W        W28148   8.618  14.149   0.893 -0.1823 -0.0613 -0.2050
12075W        W28149   3.178  12.934   0.660 -0.1025  0.0406 -0.2029
12076W        W28150   0.471   6.494   6.081  0.2546 -0.0795  0.3802
12077W        W28151   2.545   1.758  12.729  0.2219 -0.0155  0.3877
12078W        W28152   3.558   3.039   4.831 -0.2403  0.4289  0.3086
12079W        W28153  15.650  18.318   2.134  0.2253 -0.2057  0.1715
12080W        W28154   0.740   0.454  13.918 -0.1738 -0.0028  0.3468
12081W        W28155   6.885   7.546   5.739 -0.1511  0.1749 -0.3373
12082W        W28156  15.482   2.383   1.405  0.1597 -0.2719 -0.1648
12083W        W28157   4.314   9.138   3.522 -0.0911 -0.0405  0.2219
12084W        W28158   4.167   0.232  14.892 -0.3663 -0.2978 -0.3924
12085W        W28159  12.661   0.292   0.834 -0.0878  0.0526 -0.1198
12086W        W28160   3.997  16.579   3.262  0.1397 -0.0042 -0.0601
12087W        W28161  15.485   6.971   0.916 -0.0937 -0.1434  0.0872
12088W        W28162   9.932   6.569   4.842  0.0162  0.3192  0.0101
12089W        W28163  11.608   7.079  10.858  0.4059  0.0821 -0.1225
12090W        W28164  15.470   6.397   0.152  0.1446  0.3152  0.0933
12091W        W28165  17.529  15.703   3.784 -0.0002 -0.2304 -0.2182
12092W        W28166   2.789   8.957  11.930 -0.1053  0.2238 -0.0368
12093W        W28167  11.153   3.716   2.962  0.2544 -0.0199  0.2298
12094W        W28168   2.309   7.379   0.529  0.1022  0.5406  0.0977
12095W        W28169   7.980  17.359   3.484 -0.3125  0.0570 -0.2043
12096W        W28170  17.143   3.143   3.626  0.1313 -0.0560  0.0687
12097W        W28171   6.178   8.067   5.905  0.3666  0.2267 -0.0839
12098W        W28172   1.256   5.174   2.368 -0.1013 -0.0144 -0.0167
12099W        W28173  15.688   2.964  12.005  0.1249 -0.0244  0.2081
12100W        W28174  12.255  16.437   3.974 -0.1523  0.2105 -0.3129
12101W        W28175  18.266   8.327   4.143 -0.3004  0.2425  0.1747
12102W        W28176  11.104  10.637   5.149  0.2386 -0.1611  0.3248
12103W        W28177   0.649   0.105   0.496 -0.2760  0.0850 -0.0847
12104W        W28178   6.841  15.430  13.888  0.4158 -0.0765 -0.0953
12105W        W28179  10.854   2.420  10.496 -0.0203  0.1565 -0.0436
12106W        W28180  15.579  17.648  13.929 -0.2575 -0.1286 -0.1098
12107W        W28181  13.065  12.214   0.973  0.2346  0.0741 -0.2408
12108W        W28182  16.258  15.539  12.513  0.1055 -0.0691 -0.1126
12109W        W28183   3.034   3.841  11.178 -0.0108 -0.0818  0.0774
12110W        W28184  19.129  16.799  14.811  0.1121  0.3283  0.1496
12111W        W28185  14.969  17.588   3.413 -0.1366 -0.1789  0.1665
12112W        W28186  17.236  17.151   9.373 -0.1712 -0.2575 -0.1535
12113W        W28187   4.374  11.874  13.880 -0.0458 -0.0549 -0.2001
12114W        W28188   4.622   0.512  12.567  0.3403  0.1991  0.1460
12115W        W28189  12.373   3.769   0.090 -0.0780  0.0487 -0.2078
12116W        W28190   2.040  14.067   4.816 -0.0950  0.2031 -0.2294
12117W        W28191  12.176  11.990   0.722  0.1661 -0.0556  0.0455
12118W        W28192  18.255   1.914  14.070  0.1909 -0.2461  0.0854
12119W        W28193  17.138  16.567   0.993  0.1706  0.1123  0.3737
12120W        W28194  18.689   5.573  12.235 -0.0493 -0.0682  0.0312
12121W        W28195  17.360   8.610   4.201 -0.4049  0.1511 -0.3504
12122W        W28196  10.381  16.681  14.738  0.1295 -0.0949 -0.0371
12123W        W28197  14.417   6.281   5.733 -0.1539  0.0769 -0.0879
12124W        W28198   7.920  14.184   2.036  0.0834  0.0358  0.4001
12125W        W28199   5.283  14.862  12.316 -0.1440 -0.0392 -0.3065
12126W        W28200  10.316  11.320  11.982  0.1795  0.1276 -0.3270
12127W        W28201   6.283   8.741   5.356 -0.0532  0.0112  0.0360
12128W        W28202   2.729   3.622  14.307 -0.1068  0.0895  0.1252
12129W        W28203  19.096  16.348   2.310  0.2377  0.1869  0.2236
12130W        W28204  12.663  13.198   3.395  0.0345 -0.0948  0.2932
12131W        W28205   2.559  17.330   0.601 -0.4176  0.0150 -0.5797
12132W        W28206  15.747  15.882  10.934 -0.2336  0.1991  0.3660
12133W        W28207   6.175   2.795  11.822 -0.1709 -0.0072 -0.2733
12134W        W28208  13.738  11.586   3.127  0.2029 -0.1283  0.0248
12135W        W28209   5.947   6.175  11.923 -0.1800 -0.1244  0.0916
12136W        W28210   8.090   4.684  13.544 -0.1203  0.4415  0.2260
12137W        W28211  12.753   7.372   0.027  0.3895  0.3796  0.2066
12138W        W28212   6.257   7.946   5.377  0.2888 -0.0901  0.0903
12139W        W28213  12.634   0.429  10.839 -0.0353  0.1987  0.1562
12140W        W28214   9.765   4.273   3.741 -0.0043  0.2761  0.2214
12141W        W28215  13.948  15.048   3.332 -0.0158 -0.2007 -0.0128
12142W        W28216  14.170   3.578  13.148 -0.0493  0.0536 -0.3428
12143W        W28217   1.839   4.566   0.122 -0.1698  0.1445  0.2754
12144W        W28218  17.008   9.704  11.229  0.0380  0.0770 -0.1456
12145W        W28219   5.084  18.921  11.616  0.0985 -0.2573  0.3034
12146W        W28220   7.323   8.874  14.225  0.0240  0.0650 -0.1777
12147W        W28221  16.592   5.555   1.502  0.1773 -0.0779 -0.4479
12148W        W28222   0.844  15.089  11.393  0.0671  0.3761 -0.2469
12149W        W28223   9.735  11.016   3.818 -0.1412 -0.2134  0.1222
12150W        W28224  10.314   5.724  10.892 -0.1000  0.3302  0.0424
12151W        W28225  15.110  13.610  12.515  0.0074 -0.0564  0.0894
12152W        W28226   3.863   9.078   3.459 -0.1816  0.2897  0.0118
12153W        W28227  15.825   4.049   1.156  0.1561 -0.0655  0.0776
12154W        W28228   0.093  15.212  11.993 -0.3440  0.1887  0.0348
12155W        W28229  11.411  18.528  12.233 -0.3693 -0.1893 -0.2308
12156W        W28230  17.410   1.735   9.731  0.0286 -0.0206  0.2281
12157W        W28231  18.116  17.293   0.363  0.2335 -0.0100  0.0514
12158W        W28232  18.628   2.436  11.245 -0.2326 -0.0794  0.0835
12159W        W28233  16.297   2.099   3.008  0.1691  0.0187  0.1154
12160W        W28234   8.724   6.404   0.494 -0.2500 -0.0629  0.2565
12161W        W28235   0.269   8.164  14.843 -0.1599 -0.1583  0.0538
12162W        W28236   4.413  17.077   1.189  0.1539 -0.1203 -0.2305
12163W        W28237   7.078   5.277  13.648 -0.1728 -0.1248 -0.0601
12164W        W28238  14.586  14.994   4.771  0.0261 -0.1274 -0.2590
12165W        W28239   3.311  18.880   3.093  0.4588 -0.3348  0.0394
12166W        W28240   4.281  19.203   4.104  0.2209 -0.0853  0.0788
12167W        W28241   8.283   0.883   0.838  0.1368 -0.0435 -0.2378
12168W        W28242  14.100   6.457  13.231 -0.0648  0.4422  0.3750
12169W        W28243   6.735  11.303   0.958 -0.1068 -0.0877 -0.1432
12170W        W28244   9.458  18.969  12.039 -0.1354 -0.2850 -0.0786
12171W        W28245  18.217  14.152  12.951 -0.2496  0.1365 -0.2099
12172W        W28246   3.145   6.127   1.728  0.4307  0.1344 -0.1482
12173W        W28247  10.914   3.748   1.737 -0.1515  0.0102 -0.3563
12174W        W28248   5.136   7.311  13.953 -0.0578 -0.1041 -0.0137
12175W        W28249   6.591   5.204  11.216  0.2720  0.0735 -0.4818
12176W        W28250   1.802   2.012  13.863  0.0726  0.0806 -0.0092
12177W        W28251  13.134  19.284   0.721 -0.1232  0.0762  0.0026
12178W        W28252  15.042  12.330   3.912  0.0583 -0.0079 -0.3622
12179W        W28253   4.825   9.392  11.991  0.0865 -0.0234 -0.2714
12180W        W28254   6.365  11.324   4.428 -0.0518  0.1944 -0.2078
12181W        W28255  19.252  11.532  14.925 -0.1146 -0.2782  0.1283
12182W        W28256  16.635   3.661  12.326  0.3289 -0.1872  0.1921
12183W        W28257   2.799  17.496  13.718 -0.0541 -0.4184  0.5121
12184W        W28258   7.156  11.311  14.244 -0.2409  0.2137  0.3717
12185W        W28259   7.369  11.857   0.869  0.2160  0.0705 -0.0054
12186W        W28260  17.511  14.994  14.761  0.3079 -0.0219 -0.0832
12187W        W28261   5.672   3.183  10.591 -0.4764  0.0254 -0.1161
12188W        W28262  16.445   0.496   0.451 -0.1638 -0.0244  0.1400
12189W        W28263   0.377   1.233   1.477 -0.1193 -0.1042  0.0034
12190W        W28264   8.210  10.721  13.031 -0.2927  0.2411  0.1075
12191W        W28265  16.048  10.264  10.102 -0.0287 -0.0998 -0.0594
12192W        W28266   2.513   5.092   0.863 -0.1560 -0.2104  0.0576
12193W        W28267  17.441   0.186  11.580 -0.0806  0.2118 -0.2678
12194W        W28268  18.828   7.492  13.263 -0.1014 -0.1561 -0.2956
12195W        W28269  15.149   1.121  14.387 -0.4912 -0.0094  0.1993
12196W        W28270   5.213   8.909  13.457  0.2978  0.1493 -0.1567
12197W        W28271  18.988   6.129   0.708  0.1391 -0.4468 -0.1410
12198W        W28272   5.657   7.773  14.800 -0.0545 -0.0827  0.0380
12199W        W28273  18.133  10.683   0.360  0.1375  0.1082 -0.1543
12200W        W28274   3.236  16.029  14.238 -0.1631 -0.0008 -0.1508
12201W        W28275  16.816   1.334   3.107 -0.0493  0.0310  0.1419
12202W        W28276  18.477  11.411  13.822 -0.2574 -0.0961 -0.1043
12203W        W28277   0.525   4.204   2.457  0.0215 -0.0974  0.0176
12204W        W28278   7.991   4.470   1.861  0.1333  0.0791 -0.3753
12205W        W28279  15.050  13.359   3.038 -0.0611 -0.1867  0.3196
12206W        W28280   5.625  17.100  10.959 -0.2522 -0.4047 -0.0615
12207W        W28281   1.152  13.623  14.658 -0.1746 -0.1117 -0.1322
12208W        W28282  17.040   3.527   4.350  0.0072  0.0942  0.4044
12209W        W28283   3.208   0.190  12.859  0.1558  0.0893  0.0113
12210W        W28284  15.165   6.683  11.554  0.1114 -0.1498  0.0777
12211W        W28285  17.636  11.741   3.234 -0.3505  0.0065 -0.3292
12212W        W28286   0.417  13.681   9.864 -0.0475 -0.1741  0.2660
12213W        W28287  13.029  16.065  13.975 -0.2623 -0.1997 -0.0953
12214W        W28288   5.475  16.794  12.434 -0.0009 -0.0449 -0.2609
12215W        W28289   2.729   1.980   2.637  0.0575 -0.1420  0.1722
12216W        W28290   7.797   8.758   3.355  0.1613 -0.1262  0.1635
12217W        W28291  12.665  16.248  12.446 -0.0779 -0.0998 -0.1332
12218W        W28292   9.308   9.198   4.993  0.0763  0.0033 -0.2685
12219W        W28293  18.606   1.073  12.706 -0.0424  0.1635 -0.2724
12220W        W28294   4.384   1.923  12.678 -0.2934 -0.2845 -0.1661
12221W        W28295  12.558   8.458  10.941 -0.1933  0.2819  0.3741
12222W        W28296  13.324   4.966  11.640  0.1118  0.1097 -0.1814
12223W        W28297   3.435  17.533  14.060 -0.0126  0.0598 -0.1195
12224W        W28298  11.669   5.380   5.808 -0.5204 -0.1525 -0.1520
12225W        W28299  12.558  12.695   2.769 -0.3338  0.4089 -0.0705
12226W        W28300  13.467   0.528  10.929 -0.0577 -0.1417  0.1680
12227W        W28301   8.975   5.743   3.403 -0.1479  0.1699 -0.3286
12228W        W28302   9.813   0.284  12.679  0.1829 -0.1245 -0.2860
12229W        W28303   1.464  11.569   4.561  0.5352  0.0445 -0.1440
12230W        W28304  15.949  17.733  11.981  0.1537  0.2831  0.0895
12231W        W28305  18.993   0.129   0.461 -0.0316  0.3477 -0.0661
12232W        W28306  14.419   1.695   1.573  0.1142 -0.1041  0.2330
12233W        W28307   6.820   6.155   1.665  0.1359  0.4768  0.3811
12234W        W28308   0.152  18.135  12.677 -0.1816 -0.2406  0.0001
12235W        W28309  16.575   5.192  10.711 -0.1738 -0.0694  0.0257
12236W        W28310  10.648   1.459   3.674 -0.0244 -0.1301 -0.0501
12237W        W28311   8.589  11.731   0.875 -0.3366 -0.1227  0.0610
12238W        W28312  10.851  13.821   0.111 -0.0836 -0.3194 -0.0423
12239W        W28313  15.839   5.147   2.059 -0.0845  0.0297  0.0820
12240W        W28314   7.627   2.762  12.918  0.2716  0.2942  0.0077
12241W        W28315   5.588   6.274   4.687  0.0969 -0.0974  0.3217
12242W        W28316  13.417   7.074   3.148  0.1795  0.0165  0.0144
12243W        W28317  17.330  12.195  14.347  0.0498  0.3268 -0.0166
12244W        W28318   3.952  18.728  13.733  0.2681 -0.2174 -0.3510
12245W        W28319  14.565   3.842   3.132  0.1364 -0.1877  0.1529
12246W        W28320   3.662   9.682   2.812 -0.0627 -0.0840  0.0334
12247W        W28321  11.873   1.936   1.882 -0.0074 -0.0093 -0.0933
12248W        W28322   5.479   0.645   5.353 -0.0284  0.0950 -0.3132
12249W        W28323   3.682   8.687   0.958 -0.0557 -0.0201  0.2322
12250W        W28324   4.543   2.126  12.244 -0.0635  0.2521  0.0102
12251W        W28325  12.234  12.074  12.450 -0.0910  0.0487 -0.4639
12252W        W28326   9.774  16.684  13.944 -0.0586 -0.0409 -0.1793
12253W        W28327  11.667   4.137  13.334 -0.2231  0.0829  0.1248
12254W        W28328  16.325   9.197  14.547 -0.2114 -0.0190 -0.2197
12255W        W28329  18.227  12.523   4.000 -0.0974 -0.0601 -0.1063
12256W        W28330  11.862   1.004   4.640  0.1518  0.1721  0.0005
12257W        W28331   3.224  17.581  12.631 -0.1452  0.0893 -0.1294
12258W        W28332  18.891  13.758   4.264 -0.0218  0.0326 -0.0580
12259W        W28333  11.202  10.605  12.441 -0.1416 -0.0278  0.0593
12260W        W28334  17.911   0.882  14.924 -0.0514 -0.0386 -0.4644
12261W        W28335   6.101  12.595  12.419  0.1393 -0.0224  0.4390
12262W        W28336   7.481   0.436  11.965  0.0437  0.0243  0.0083
12263W        W28337  11.411   8.686   0.581 -0.2467 -0.0641 -0.3537
12264W        W28338   2.592   6.816   2.731 -0.0581 -0.1084 -0.0348
12265W        W28339   3.193   0.622   0.548 -0.0049 -0.2140  0.1275
12266W        W28340  12.540  19.039   3.847  0.3180 -0.1188 -0.1815
12267W        W28341   0.376  14.425  10.953  0.0098  0.0818  0.0961
12268W        W28342   5.751   3.926   3.630 -0.2035 -0.0965  0.2834
12269W        W28343  10.801   3.465  11.991  0.0696  0.1004  0.1321
12270W        W28344   6.906   1.422  11.894 -0.0844 -0.0729  0.1064
12271W        W28345  18.975   4.930   1.994  0.0910 -0.1422  0.1549
12272W        W28346   5.899   5.599  13.534 -0.0260  0.0354 -0.0942
12273W        W28347  14.785  12.936   1.370 -0.0776 -0.3608 -0.3508
12274W        W28348  18.166  12.818  11.795  0.1124 -0.1530 -0.1891
12275W        W28349   6.994   7.587   4.225 -0.1548  0.1542 -0.4844
12276W        W28350  16.380   4.829  14.469  0.0024  0.1416 -0.1389
12277W        W28351  15.671   8.010  13.424 -0.2639 -0.1085  0.0507
12278W        W28352   3.126   0.549   2.748 -0.0786  0.0221  0.2975
12279W        W28353  17.947   9.785  14.329 -0.0070  0.1218 -0.1882
12280W        W28354  17.588   4.997  11.920 -0.0366 -0.0634 -0.0068
12281W        W28355  14.414   1.638  10.372 -0.0412 -0.1239  0.2007
12282W        W28356   2.319  13.382   4.379  0.2637 -0.5035 -0.4628
12283W        W28357   8.685   0.087   2.599  0.2595 -0.2607 -0.1105
12284W        W28358  12.922   7.997   2.275 -0.0287  0.5676 -0.1229
12285W        W28359  16.960  14.656   3.372 -0.1457 -0.2895 -0.0442
12286W        W28360  17.531   2.646   4.296 -0.2104  0.1197 -0.2743
12287W        W28361   9.546  11.343  13.227  0.0085  0.0695  0.1119
12288W        W28362   4.408  16.907   3.393 -0.1585  0.0778 -0.0392
12289W        W28363  18.885   7.640  12.360  0.1701  0.3530  0.2189
12290W        W28364   4.390  17.649  12.775 -0.1765 -0.2480  0.0204
12291W        W28365  11.791  10.289  11.200  0.2827 -0.1581  0.4119
12292W        W28366  15.523  10.113  12.043 -0.0274  0.1823 -0.1153
12293W        W28367   9.341   7.489   4.585 -0.2137  0.3843  0.2801
12294W        W28368  11.087   2.665  11.479 -0.1171  0.3018 -0.0640
12295W        W28369   7.085  13.275   4.892  0.0838  0.1844 -0.1782
12296W        W28370  13.475  14.296   1.822 -0.0733 -0.0649 -0.0848
12297W        W28371  16.842   5.401   5.403 -0.0434  0.2442 -0.0174
12298W        W28372   4.195   2.760   4.099 -0.3069 -0.1424  0.0846
12299W        W28373   0.384   7.906  12.320  0.1272 -0.0288  0.1094
12300W        W28374  12.284   3.539   5.483  0.2906  0.2198 -0.0237
12301W        W28375  13.321   4.746   0.290 -0.0259  0.0779 -0.1985
12302W        W28376  10.036   4.278   2.422  0.1430 -0.1554 -0.1119
12303W        W28377   0.588  19.080   4.459 -0.1824 -0.3993  0.1998
12304W        W28378   6.360  18.299   2.488  0.2017 -0.0397  0.2552
12305W        W28379   1.058   7.659   2.979  0.0258 -0.2011 -0.1886
12306W        W28380   2.308  16.930   1.368  0.2669 -0.1469 -0.3302
12307W        W28381  18.893   7.331  10.375 -0.3294  0.2163  0.2068
12308W        W28382  10.862   2.358   4.166  0.0292 -0.2898 -0.0201
12309W        W28383  11.867  14.138   2.151 -0.2869  0.3974 -0.0168
12310W        W28384   0.615  16.182   0.079 -0.0345 -0.0105  0.2212
12311W        W28385  14.365   2.935  10.927 -0.1943  0.3061 -0.1855
12312W        W28386  14.410  18.145  10.712 -0.0210 -0.2024  0.0236
12313W        W28387   0.337  11.150   4.377  0.0578  0.2879  0.0670
12314W        W28388   1.936   2.700  13.006 -0.2177 -0.0808  0.0739
12315W        W28389   8.554   2.049  13.757 -0.0284 -0.1480  0.0716
12316W        W28390   0.082  11.511   2.040  0.0959  0.0947 -0.1329
12317W        W28391   7.398   4.164  14.214 -0.5809 -0.3856  0.2610
12318W        W28392   7.981  10.424   2.719 -0.1220 -0.2490 -0.1410
12319W        W28393   6.819   5.138  14.460 -0.3103 -0.0697  0.5032
12320W        W28394   2.141  18.386  14.996  0.3212 -0.3462  0.1737
12321W        W28395   4.948  12.688  12.113  0.0352 -0.0166  0.1925
12322W        W28396   5.839   7.072   1.738  0.0765 -0.0902 -0.1012
12323W        W28397  18.300  11.723  10.449 -0.1072  0.0423 -0.1776
12324W        W28398   2.810   7.089   2.224 -0.3671  0.2899  0.0300
12325W        W28399  10.029   0.771  14.802  0.4254  0.1668 -0.1336
12326W        W28400  10.623   0.793   2.504 -0.0341  0.1096 -0.0367
12327W        W28401  16.515  18.050   2.420  0.0887  0.0128  0.1169
12328W        W28402  18.948  14.728  11.792 -0.0646 -0.0436  0.0100
12329W        W28403   8.449  11.465  11.820 -0.1983 -0.0558  0.0863
12330W        W28404  10.575   7.633   4.334  0.1458 -0.1344  0.0779
12331W        W28405  14.171   2.343  12.907  0.1238 -0.0250  0.0601
12332W        W28406  15.046   9.475  13.522  0.1343  0.3542 -0.1458
12333W        W28407   1.415  16.734   1.316 -0.1709 -0.1136 -0.1684
12334W        W28408  16.466   9.230   3.101  0.1649 -0.0882  0.1953
12335W        W28409   3.624   0.945  14.720 -0.0426  0.2591 -0.1440
12336W        W28410   0.824   6.140   3.030  0.2952  0.2562 -0.0628
12337W        W28411  12.094  12.634  15.050  0.5208  0.0294 -0.1047
12338W        W28412  10.483   2.685  13.820 -0.0867 -0.1821 -0.3805
12339W        W28413   0.886  11.191   0.263  0.0631 -0.2448 -0.4561
12340W        W28414  15.634  14.647  10.461 -0.1135 -0.0859 -0.1773
12341W        W28415  13.350  18.011   3.722 -0.1347  0.1455 -0.0842
12342W        W28416  11.964   7.222  11.403 -0.2192 -0.0008  0.0564
12343W        W28417  16.831   3.894   2.343  0.0442 -0.1535 -0.3919
12344W        W28418   1.043  18.445   3.044 -0.0733  0.2053  0.1886
12345W        W28419   1.637  17.645   0.664  0.2236  0.0132 -0.2563
12346W        W28420   6.869   1.220   2.283  0.1065 -0.0632 -0.0407
12347W        W28421   6.609   8.548   3.554  0.3631  0.0002 -0.3303
12348W        W28422  18.244  14.112  13.871  0.0983  0.2752 -0.0970
12349W        W28423  10.978  10.167  12.083 -0.0957  0.0973  0.2643
12350W        W28424  16.845  12.046   0.205 -0.1612  0.0548  0.0066
12351W        W28425   0.477  19.306  10.055  0.1174  0.0415 -0.2664
12352W        W28426  12.564  13.127   4.253 -0.1850 -0.1980  0.0229
12353W        W28427  19.022   0.761  12.971 -0.2717 -0.1666 -0.0397
12354W        W28428   6.423  18.429   4.592 -0.3840  0.3959  0.2884
12355W        W28429   9.418  16.765   4.214 -0.0416  0.0733 -0.0611
12356W        W28430  12.351   5.868  13.143  0.1879  0.0524 -0.0302
12357W        W28431  13.292  16.354   3.110 -0.1859 -0.1443 -0.0612
12358W        W28432  12.471   6.773   1.687 -0.2480 -0.4123  0.1102
12359W        W28433  12.624  15.327  13.862 -0.2800 -0.0887 -0.2199
12360W        W28434  15.683  16.128   0.514 -0.0488 -0.3241  0.5819
12361W        W28435   2.723   3.275  11.835  0.3727 -0.4219  0.1371
12362W        W28436   5.413  14.461  13.454 -0.3336 -0.0793  0.2419
12363W        W28437  17.774  10.095   0.490  0.2277 -0.1598  0.0422
12364W        W28438   6.625   8.057  11.067  0.1254 -0.1240 -0.1503
12365W        W28439  14.268  14.404   4.146 -0.1628 -0.0846  0.0477
12366W        W28440   8.162  11.190  12.204  0.1033  0.2393 -0.4875
12367W        W28441   3.028  10.428  12.040  0.1322 -0.0150 -0.2019
12368W        W28442   1.359  12.959  13.591  0.2684 -0.1470 -0.2394
12369W        W28443  10.304   3.179  11.948 -0.0972  0.2826 -0.1773
12370W        W28444  11.374  14.847  10.122  0.5456  0.3077  0.3718
12371W        W28445   3.418   3.999   2.478  0.0469 -0.4168 -0.0556
12372W        W28446   9.958  18.029  12.449  0.2317 -0.1007  0.2052
12373W        W28447   6.098  18.469   0.987  0.0414  0.2156  0.2137
12374W        W28448  11.092  15.190  12.926 -0.0093 -0.0095  0.0087
12375W        W28449   7.586  13.173   2.494 -0.1562  0.0252 -0.0287
12376W        W28450  12.429  16.586   0.889  0.1676  0.0401  0.1322
12377W        W28451   0.293   8.590   1.591 -0.0693 -0.0771  0.0767
12378W        W28452  11.023   0.499  12.994  0.0113  0.2329  0.2016
12379W        W28453  15.511   1.225  11.435 -0.0072 -0.0414 -0.0897
12380W        W28454  11.078  16.017  13.289  0.2606  0.2925  0.1877
12381W        W28455   3.300   6.300   2.164 -0.2683  0.0272 -0.0052
12382W        W28456   2.506   8.877   0.736  0.1401 -0.0443 -0.1770
12383W        W28457   8.256   2.478   1.944  0.1535  0.0649  0.2789
12384W        W28458  17.000  11.464  13.025 -0.0733 -0.4480  0.2712
12385W        W28459   8.641   5.450  14.083  0.0735 -0.2278  0.1559
12386W        W28460  18.089  14.204  11.874  0.1846 -0.1831 -0.0115
12387W        W28461   7.278   1.683  13.988  0.1718 -0.1666 -0.1501
12388W        W28462  18.103  16.716  14.493  0.0713  0.0179 -0.1432
12389W        W28463  16.494   7.427   1.572 -0.4151 -0.4210 -0.3239
12390W        W28464   3.199   1.281   3.907 -0.1776 -0.1192  0.2027
12391W        W28465   2.145  12.790   2.941  0.0602  0.2911  0.0615
12392W        W28466   3.519   9.219   2.040  0.2366  0.1604  0.2420
12393W        W28467   2.058   8.186   3.063 -0.0542  0.1585  0.4701
12394W        W28468   5.105   4.695   1.328 -0.1192  0.0751  0.0567
12395W        W28469   2.467  15.335   0.553 -0.1334 -0.0176 -0.0352
12396W        W28470  18.653   8.183   1.432  0.1006 -0.2870 -0.3133
12397W        W28471  15.223   5.506  10.795 -0.1504 -0.1007  0.1758
12398W        W28472  15.768  16.731   4.268  0.2375 -0.0383 -0.1097
12399W        W28473   3.655  14.807  11.829  0.1328 -0.0532 -0.1454
12400W        W28474   8.386   4.463  13.230 -0.0261  0.3392  0.5106
12401W        W28475   6.677   7.354   3.200  0.0199 -0.4419  0.1141
12402W        W28476  12.511  17.719  13.902 -0.2442  0.1833 -0.0315
12403W        W28477   9.220   2.536   4.626  0.1491  0.1315 -0.0440
12404W        W28478  18.781  13.591  12.499 -0.1243 -0.0605 -0.1472
12405W        W28479   8.007   8.360   4.323  0.2266  0.0289 -0.1328
12406W        W28480  11.416   3.260  10.110  0.1825 -0.0941 -0.1684
12407W        W28481  13.817  16.399   0.438 -0.1642 -0.0593  0.2121
12408W        W28482   9.383   9.890   0.411  0.0892  0.5853  0.1588
12409W        W28483  10.635  10.377   5.328  0.0876  0.0182  0.0781
12410W        W28484   9.503  14.640  14.360 -0.1397  0.0345  0.3468
12411W        W28485   7.669   2.413  13.992 -0.2816 -0.2128  0.2044
12412W        W28486  13.868   2.092   3.389 -0.0769 -0.0170 -0.2616
12413W        W28487   1.191   7.838  14.474  0.0073  0.0293 -0.2583
12414W        W28488   3.729  13.985   2.764  0.0194  0.2786  0.1775
12415W        W28489   4.473   9.882   1.932  0.3881 -0.0880  0.2451
12416W        W28490   9.630  19.017   2.183  0.0609  0.1471  0.0969
12417W        W28491   7.755  13.411   9.510  0.0195  0.2931  0.3647
12418W        W28492  13.875  13.410   4.888 -0.2214  0.0113 -0.1171
12419W        W28493   9.646  17.854  10.639 -0.0943  0.3190  0.1477
12420W        W28494  13.167   9.488   2.471 -0.1811 -0.4591  0.1154
12421W        W28495  13.027  12.948  11.558  0.2258  0.1378  0.2758
12422W        W28496   0.266  13.711   1.231  0.0340  0.1268 -0.2290
12423W        W28497  14.180  10.056  13.531  0.4063  0.2789  0.1414
12424W        W28498  17.269  16.041  10.869 -0.1770  0.0654  0.0270
12425W        W28499   4.358   8.121   1.114 -0.1224 -0.3136 -0.0598
12426W        W28500   5.615   7.276   5.280  0.0525  0.2857  0.0788
12427W        W28501   6.918   8.861   0.047  0.0070 -0.0297  0.0583
12428W        W28502   8.708  10.168   5.287  0.0182  0.3160  0.1157
12429W        W28503   3.748  10.864   3.405  0.2664 -0.1380  0.1997
12430W        W28504  18.713  15.701   1.281 -0.0271 -0.0615 -0.0858
12431W        W28505  16.554  11.057   3.550  0.2139 -0.1553 -0.1458
12432W        W28506   1.178  17.574   1.065  0.1102 -0.1648 -0.2292
12433W        W28507   1.757   8.860   2.268 -0.0826  0.1806 -0.1807
12434W        W28508  14.185   0.629  12.976 -0.0048 -0.0879  0.0672
12435W        W28509  14.892  14.913  11.652  0.2431  0.1116  0.0583
12436W        W28510  11.198   5.510   4.068  0.2915 -0.0809 -0.0755
12437W        W28511   3.590  10.279  14.530  0.0670  0.1536 -0.3848
12438W        W28512  16.978  12.967  10.708  0.2871  0.2678 -0.3413
12439W        W28513  10.755   3.517   3.134  0.4055  0.1697 -0.0363
12440W        W28514   1.662   9.543   2.121 -0.0393  0.1710  0.0444
12441W        W28515   0.900  12.285  14.963 -0.1348 -0.1624  0.1573
12442W        W28516  12.540  13.605  11.742  0.0783 -0.2501  0.1130
12443W        W28517  13.860  10.902   0.142  0.1703 -0.1733 -0.0990
12444W        W28518   4.934   8.195  12.312  0.0005  0.1538  0.2287
12445W        W28519   1.285   0.295  12.332  0.2386 -0.0180 -0.1501
12446W        W28520  12.002   8.328   4.612  0.2905 -0.0569  0.1065
12447W        W28521   0.765   2.536   1.140  0.2755 -0.0305  0.0163
12448W        W28522  10.379   4.870   4.128 -0.1430  0.0079  0.1025
12449W        W28523   8.261  12.292  12.146  0.0632  0.2570 -0.3292
12450W        W28524  15.238   2.311   1.960 -0.1814  0.4590 -0.0777
12451W        W28525   8.132   5.404  14.471 -0.0206 -0.1835 -0.2675
12452W        W28526   8.717  17.397  11.607  0.0390 -0.0610  0.2100
12453W        W28527   6.252  13.811   0.505  0.0951  0.0644 -0.1106
12454W        W28528  15.361   5.596   0.811  0.0389 -0.0712  0.2982
12455W        W28529   5.224   5.459   2.273  0.0681  0.1209  0.0109
12456W        W28530  11.051  10.945  13.063  0.1257 -0.2074  0.2339
12457W        W28531  11.751  16.054   0.020  0.2479 -0.2618 -0.1634
12458W        W28532   6.065  11.699   5.993  0.0641  0.3348  0.0877
12459W        W28533   9.029   6.600  13.257  0.1770  0.1571  0.0476
12460W        W28534  17.856   0.545  12.346  0.2223 -0.3936  0.0376
12461W        W28535  13.922  16.159  13.830  0.2935 -0.4213  0.0641
12462W        W28536  10.657   7.593   5.744 -0.1589  0.1670 -0.1004
12463W        W28537   4.582  17.820   3.307 -0.0719 -0.0088 -0.1401
12464W        W28538   6.337  11.121   1.246  0.1117 -0.1603  0.1029
12465W        W28539   1.750   4.084   4.949  0.4157  0.1076  0.3714
12466W        W28540  18.642  12.729  14.989 -0.1834 -0.0725  0.0217
12467W        W28541  15.411  16.357   4.078  0.0733  0.2378 -0.1092
12468W        W28542  11.405   2.615  12.328  0.0607 -0.3822  0.0475
12469W        W28543  17.217   1.124  13.650 -0.2050  0.1888 -0.2266
12470W        W28544   5.909  18.265  12.636 -0.2393 -0.2551  0.0941
12471W        W28545   0.114  13.087   1.055 -0.0900  0.1152 -0.1262
12472W        W28546   0.144   9.987  14.755  0.0925  0.0075 -0.1786
12473W        W28547   1.393   6.245  11.636  0.0757  0.2020 -0.1043
12474W        W28548  15.888  11.758  12.971  0.4053 -0.4140 -0.0329
12475W        W28549  14.495   3.827   3.694 -0.2970  0.2017  0.0821
12476W        W28550   3.719   9.116  14.711  0.4458 -0.2049  0.0975
12477W        W28551   3.060  11.745  11.722 -0.0202  0.0148 -0.1382
12478W        W28552   0.275   5.408  12.247  0.1001  0.0709  0.1534
12479W        W28553  11.213   6.127  10.367 -0.3199 -0.1624 -0.1269
12480W        W28554  12.116   1.127   1.269 -0.1180 -0.2190 -0.2482
12481W        W28555   4.746   2.122  14.534  0.1590  0.0158 -0.1033
12482W        W28556   6.239   7.337   2.047  0.3659  0.0427  0.2268
12483W        W28557  13.978  15.877  10.883 -0.0474  0.1742 -0.0104
12484W        W28558   5.167   4.134   5.181 -0.0008 -0.2524 -0.1902
12485W        W28559   5.433   8.992  11.341  0.2344  0.5302 -0.0593
12486W        W28560   6.184  12.910   2.768  0.2862  0.1200  0.0525
12487W        W28561   0.993  10.665  12.224  0.0453  0.1687 -0.4180
12488W        W28562   6.283   1.859  14.459  0.3131  0.2540 -0.1299
12489W        W28563   2.232  17.403  13.674 -0.1276 -0.2273  0.1640
12490W        W28564  15.196  17.262   0.225 -0.1771 -0.0743  0.1078
12491W        W28565  10.718   8.869  10.946  0.1160 -0.0681 -0.1716
12492W        W28566   3.747   7.325   4.052  0.3815  0.2267  0.1428
12493W        W28567  14.225   3.959  14.838  0.1697 -0.0710  0.0973
12494W        W28568   6.286  11.736  14.214 -0.0954 -0.2106  0.0891
12495W        W28569  18.385  15.080   2.859 -0.0554 -0.4406  0.4398
12496W        W28570   0.937   6.529  12.686 -0.0316 -0.2014 -0.1135
12497W        W28571  10.675   9.162   3.338  0.3501 -0.0688 -0.3427
12498W        W28572   7.205  15.556   2.121 -0.1125  0.0761  0.0779
12499W        W28573   0.479   9.110   0.670  0.0453  0.0531  0.1322
12500W        W28574  14.565  16.263   3.634 -0.0240 -0.3261  0.2349
12501W        W28575  12.408   7.833   2.489  0.1914 -0.3705  0.4566
12502W        W28576  15.944   4.954   3.101 -0.0343 -0.0467  0.1905
12503W        W28577   3.713  11.877   3.695  0.3940  0.0929  0.0039
12504W        W28578  12.416  17.131   3.673 -0.0964 -0.0022 -0.1049
12505W        W28579  12.678   3.384   3.795 -0.4375 -0.1980 -0.1826
12506W        W28580  17.562  14.978   1.031  0.3504  0.0939 -0.3289
12507W        W28581  16.963  15.472  11.045 -0.3772 -0.3595 -0.0574
12508W        W28582   3.733  13.309  14.321 -0.1671  0.2740  0.5058
12509W        W28583   5.834  15.149  13.589 -0.3369 -0.1312  0.1272
12510W        W28584   7.097   8.368  14.510 -0.0367  0.0346 -0.3345
12511W        W28585  17.558   6.127   0.568 -0.4179  0.3197  0.1368
12512W        W28586   3.740   3.392   4.544  0.0857  0.4022  0.0954
12513W        W28587  14.145  13.768  10.168 -0.0539 -0.0243 -0.2072
12514W        W28588  14.398  18.845   2.123 -0.1030  0.1480 -0.0518
12515W        W28589   2.401  12.401  13.176  0.1791 -0.0674 -0.0455
12516W        W28590   5.098   5.817   4.018 -0.4231 -0.3668  0.2612
12517W        W28591  17.407  14.694  14.289  0.1155  0.0230 -0.5815
12518W        W28592   8.647   6.602   5.911 -0.0793 -0.0069 -0.0871
12519W        W28593   9.640   3.804   1.486 -0.2476 -0.1736 -0.0712
12520W        W28594  12.632   8.755  13.908 -0.0471 -0.4575 -0.4091
12521W        W28595   6.192  18.762  14.407 -0.3160  0.0369 -0.0203
12522W        W28596   2.710  14.373  11.707 -0.0343 -0.3340  0.0459
12523W        W28597   6.949   4.105   0.687  0.1705  0.1294 -0.1389
12524W        W28598   7.406   7.505  11.343 -0.2137  0.0550 -0.2607
12525W        W28599   9.006   9.453  12.061 -0.3337 -0.0608 -0.0308
12526W        W28600  15.274   9.920   0.437 -0.1426  0.2023 -0.0435
12527W        W28601   8.580   2.931  13.324 -0.1081  0.0403 -0.4508
12528W        W28602   3.228  17.808  14.498 -0.2624 -0.1763  0.4268
12529W        W28603  16.133  17.393   0.668  0.3217  0.0206 -0.0193
12530W        W28604   6.000   9.427   1.513  0.1647 -0.1709 -0.2247
12531W        W28605   9.193  17.234   4.854  0.0431 -0.1333  0.1581
12532W        W28606  17.783  17.637   1.644 -0.1656  0.1028  0.1501
12533W        W28607  17.277   8.261  13.884 -0.0405 -0.0164  0.0180
12534W        W28608  12.377   2.694   4.409  0.0708  0.0806  0.2195
12535W        W28609   2.239   8.996   4.469  0.0244  0.2360 -0.2320
12536W        W28610  13.742   0.559  14.117 -0.0434  0.0574  0.0566
12537W        W28611   0.636   9.681  12.103 -0.1014 -0.1858 -0.2182
12538W        W28612   1.016  14.043  12.835 -0.0652  0.2230  0.1703
12539W        W28613  13.491  16.606  12.694 -0.0060 -0.0779 -0.2859
12540W        W28614   0.464   0.913  13.460  0.2277  0.1403  0.1112
12541W        W28615  18.796   4.601  14.035  0.0121 -0.1305  0.0047
12542W        W28616  11.817  12.337  14.525  0.0046  0.3643  0.1670
12543W        W28617  16.198  18.906   2.680 -0.0718 -0.1313  0.2059
12544W        W28618  18.344  18.432   1.258  0.3303 -0.1017  0.0196
12545W        W28619   5.710   9.813  12.336 -0.1613  0.0744 -0.0333
12546W        W28620  15.149   8.134  11.175 -0.1575  0.0131  0.4768
12547W        W28621  15.503   5.777   3.665 -0.0485 -0.3093  0.0996
12548W        W28622  11.195   7.823   0.307 -0.0511 -0.1303  0.0668
12549W        W28623   9.407  11.300   2.949 -0.0043  0.0336 -0.2490
12550W        W28624  13.174  13.626   1.085 -0.1797  0.1677  0.1515
12551W        W28625  11.226   3.034   2.384  0.2455 -0.0408  0.3321
12552W        W28626  17.530   0.129  10.578  0.1690 -0.0386  0.3451
12553W        W28627   3.382   4.414  13.106 -0.0288 -0.3941  0.0861
12554W        W28628  17.378  11.057   5.051  0.0809  0.2038 -0.0849
12555W        W28629  11.425   1.637   4.113 -0.0553 -0.2719 -0.2836
12556W        W28630  16.689  14.152  11.733 -0.0247  0.0015 -0.1070
12557W        W28631  11.976  18.423  12.338 -0.0108 -0.0428  0.0012
12558W        W28632   9.263   8.019  14.478  0.0449  0.2830 -0.0070
12559W        W28633   7.509  15.692   4.021  0.1257 -0.0494 -0.1791
12560W        W28634   1.888  15.593  14.785  0.1275 -0.0876 -0.0898
12561W        W28635   2.934   9.347  11.039  0.1392  0.1074 -0.0174
12562W        W28636   3.086  10.910   2.416  0.0203  0.1473  0.2814
12563W        W28637  13.374  17.047   3.866  0.1678  0.0910  0.3447
12564W        W28638  12.999   0.591  11.217  0.1186  0.0361 -0.0938
12565W        W28639   7.032  13.759  13.470  0.2807  0.0644 -0.0903
12566W        W28640  16.004   8.168  12.964  0.0355  0.0339 -0.0451
12567W        W28641   5.832  10.440   0.216 -0.2579 -0.0591 -0.0602
12568W        W28642  18.705  11.944  13.247  0.1744  0.5059 -0.0424
12569W        W28643   3.573  17.771   3.947 -0.1550  0.0275 -0.1731
12570W        W28644  13.862  14.225  10.071 -0.0104 -0.0680 -0.1162
12571W        W28645  13.680  14.951   1.844  0.3937 -0.2095  0.1517
12572W        W28646  14.107   9.809   4.786  0.0064  0.1932 -0.1877
12573W        W28647  11.547  12.727  11.130  0.3701 -0.0375  0.1063
12574W        W28648  16.646   2.946  13.446  0.2071  0.0689  0.0018
12575W        W28649  14.827   0.137   3.930  0.1200 -0.1926  0.1517
12576W        W28650   6.767   7.968  13.559 -0.2386 -0.0417  0.3535
12577W        W28651   5.777  18.918  14.646 -0.0246 -0.0923 -0.1095
12578W        W28652  17.023  15.218   3.390  0.0020 -0.1731 -0.1341
12579W        W28653   6.667   0.293   3.114 -0.2246 -0.0719  0.0553
12580W        W28654   1.141  18.635  10.324 -0.0593 -0.0215  0.2498
12581W        W28655   5.800  17.497   5.006  0.2256 -0.3423  0.0971
12582W        W28656   3.327  13.596  14.248 -0.1480  0.0769 -0.1548
12583W        W28657   2.681   6.886  11.073  0.1085  0.2701 -0.0261
12584W        W28658   9.353   1.888  11.457 -0.1127 -0.3539 -0.1344
12585W        W28659  10.845   9.463   3.811  0.0697  0.2483  0.0839
12586W        W28660   2.308   3.092   4.634 -0.0506 -0.0682  0.0711
12587W        W28661   3.087   3.434   0.279 -0.2504 -0.2638 -0.0488
12588W        W28662   1.645   4.663  14.278  0.4242 -0.3242  0.1205
12589W        W28663   4.885  15.837   5.165  0.0882  0.0004 -0.1982
12590W        W28664   4.381  17.342  10.228  0.0753 -0.0206 -0.0877
12591W        W28665  12.617   2.884   2.265 -0.0937  0.0118  0.0546
12592W        W28666  10.945   8.844   0.845  0.1229 -0.2467  0.1505
12593W        W28667   1.780   1.540   3.074 -0.0771  0.1560 -0.2080
12594W        W28668  13.888   4.489  13.265  0.0222  0.1143  0.0880
12595W        W28669  15.121  12.049  12.246 -0.2049 -0.1394 -0.1814
12596W        W28670  16.001   9.564   1.537  0.0403  0.1699 -0.3725
12597W        W28671  10.236   9.502   0.175  0.0423  0.0052  0.1116
12598W        W28672   4.516  15.392   2.232 -0.2053 -0.1405  0.1749
12599W        W28673   5.410  10.154   4.330 -0.0746 -0.0492 -0.1492
12600W        W28674   4.137  17.181   2.093 -0.0192  0.1141 -0.1192
12601W        W28675  11.542  14.212   0.667 -0.1062 -0.2564  0.0688
12602W        W28676   1.417   7.007   2.189  0.0104 -0.0523  0.0441
12603W        W28677  10.420  15.139  14.694 -0.1904 -0.2207  0.0520
12604W        W28678  16.017  10.747  11.124  0.0792  0.0117 -0.2281
12605W        W28679  11.355   5.480  13.974 -0.0151 -0.0204 -0.1849
12606W        W28680   0.994   4.432  11.870  0.2027 -0.1682  0.1235
12607W        W28681  11.671  15.425   4.041  0.0602 -0.0522 -0.4077
12608W        W28682   3.251  11.075   3.474 -0.0027 -0.2411  0.1523
12609W        W28683   1.107  10.348   0.626  0.2167 -0.2530 -0.4271
12610W        W28684  17.765  15.974   2.840  0.2500 -0.2195 -0.0759
12611W        W28685   3.247   8.694  12.050 -0.0135  0.1118  0.1156
12612W        W28686  16.920  10.302  13.407  0.0209 -0.0577  0.2781
12613W        W28687   4.767   8.711  13.064 -0.1897  0.1798 -0.2669
12614W        W28688  18.357   2.984   2.894 -0.2917 -0.0087  0.2447
12615W        W28689  15.330   6.517   5.474 -0.1930 -0.1163 -0.2318
12616W        W28690  15.559  16.488  10.357  0.0522 -0.1200 -0.0146
12617W        W28691   1.854   5.691   3.954 -0.1866 -0.1421 -0.3198
12618W        W28692   7.956   4.256  14.462  0.1572  0.1128 -0.0971
12619W        W28693   6.826   4.290   1.547 -0.0117  0.0932 -0.0606
12620W        W28694   0.846   2.474   3.489  0.0601  0.0612 -0.1992
12621W        W28695   8.231   3.484  12.101 -0.1367 -0.1617  0.0239
12622W        W28696  13.168   6.989   0.602  0.2411 -0.0266  0.1636
12623W        W28697  17.036   7.322   5.340 -0.2698  0.0204  0.2326
12624W        W28698   3.517  16.123   1.607 -0.0961 -0.3223 -0.2432
12625W        W28699   4.998  12.284   2.608  0.2532  0.1082  0.1232
12626W        W28700   8.618   0.680   2.378 -0.2027 -0.5428  0.2213
12627W        W28701  12.683   5.441   0.335 -0.2757  0.3158  0.3447
12628W        W28702  14.410  14.933   3.467  0.1225  0.1723  0.0178
12629W        W28703   7.304   9.875   0.117 -0.2595  0.0246 -0.0323
12630W        W28704   6.179   2.810   4.378 -0.2196 -0.0460  0.0611
12631W        W28705  12.421  14.285  13.802 -0.4471 -0.2031  0.2274
12632W        W28706   2.358  10.691   1.881  0.2041 -0.1143  0.0400
12633W        W28707   9.540   5.930   2.521  0.0919  0.0263  0.1552
12634W        W28708  17.628  13.513   0.234 -0.0532 -0.0155 -0.1406
12635W        W28709  10.743  13.901   3.182  0.0912  0.1818 -0.2928
12636W        W28710   5.682   8.765  14.697  0.1943  0.2797 -0.0142
12637W        W28711   1.986   7.597   0.927  0.4146  0.0761  0.0574
12638W        W28712   7.058   0.562   2.950 -0.0634  0.1568 -0.1065
12639W        W28713  10.736   0.799  13.243  0.1473 -0.0712  0.0940
12640W        W28714   8.037  10.235  12.455  0.0620  0.2555 -0.0694
12641W        W28715   7.614   3.579   2.798  0.1374 -0.2120 -0.0045
12642W        W28716   8.090  10.171   3.088 -0.2970  0.0962 -0.3140
12643W        W28717   5.223   1.955  14.413  0.2024 -0.0140  0.0892
12644W        W28718  14.246  11.364   9.608  0.0708 -0.1505  0.3894
12645W        W28719   5.345  10.269  15.057 -0.0806  0.4636  0.0399
12646W        W28720   4.043  10.790   4.316 -0.2379  0.2477 -0.0591
12647W        W28721   8.872   0.422   3.360  0.0081  0.2282 -0.1056
12648W        W28722   9.323   3.326  11.997  0.1938 -0.0672 -0.5912
12649W        W28723  15.554  10.214   4.742  0.2293  0.0769 -0.1562
12650W        W28724   7.655  11.324  13.627 -0.1642  0.1627  0.3282
12651W        W28725   2.171  14.101   1.872 -0.0923 -0.1313  0.2080
12652W        W28726   0.092   6.490   0.587 -0.0497  0.1948  0.0251
12653W        W28727   4.423   8.284   2.354  0.3054  0.0539 -0.3704
12654W        W28728   9.735   0.389   0.832 -0.3334  0.1072 -0.1929
12655W        W28729  15.079   7.024   2.568 -0.2708  0.1624 -0.0871
12656W        W28730   8.699   5.340   1.704 -0.0787  0.3266 -0.1898
12657W        W28731  17.296  13.922   3.157 -0.1725  0.0708  0.1398
12658W        W28732   3.131  11.011  12.684  0.0154 -0.1186 -0.0139
12659W        W28733  10.161  17.783  14.076  0.1092  0.1563 -0.2267
12660W        W28734  14.711  13.489   3.787 -0.1015 -0.1657  0.0385
12661W        W28735  12.619   7.053   0.745 -0.0177 -0.2960 -0.0347
12662W        W28736   4.712   2.136   2.448 -0.1661 -0.1991 -0.2142
12663W        W28737   9.355  11.986   1.428  0.0085 -0.0861  0.1271
12664W        W28738  18.475   4.949  12.280  0.1163  0.0493 -0.0916
12665W        W28739  18.265  10.754  14.474  0.2851 -0.0746 -0.0105
12666W        W28740   8.049   6.274   6.587 -0.4190  0.0946 -0.1480
12667W        W28741  13.764   5.033  11.277 -0.2400 -0.3398 -0.0400
12668W        W28742   8.995   7.278   5.807  0.0361 -0.0824 -0.1995
12669W        W28743   1.362   1.835  12.036 -0.4169 -0.0407  0.0046
12670W        W28744   8.603   6.040  14.609 -0.1572  0.0161  0.0406
12671W        W28745   7.690  18.131   2.954  0.1462 -0.2750  0.0818
12672W        W28746  11.250  11.585  12.383  0.0909  0.0126  0.0831
12673W        W28747  13.448  11.529  14.535  0.1983  0.1606  0.0147
12674W        W28748  13.616   5.761   0.030  0.0253  0.4768  0.0522
12675W        W28749   1.913   4.402   2.423 -0.0101 -0.0977 -0.0522
12676W        W28750   9.635   7.342   6.263  0.2309  0.0283  0.5614
12677W        W28751  13.648  19.041  10.427 -0.5713 -0.1652 -0.0680
12678W        W28752  10.899  15.324   3.609  0.0300  0.0504 -0.1284
12679W        W28753  11.634  17.893   0.276 -0.1978 -0.3639  0.2813
12680W        W28754   9.022  11.634  12.355  0.2870  0.0616  0.2194
12681W        W28755   7.733   8.889  13.838  0.0498  0.0467 -0.0406
12682W        W28756   3.393   3.464  13.349 -0.2200  0.1208 -0.0425
12683W        W28757  18.941  15.188  12.714 -0.1606 -0.0213 -0.3913
12684W        W28758  18.844  16.660   0.247 -0.3557  0.0754  0.1389
12685W        W28759   5.500  17.353   3.074  0.0773  0.1925  0.1927
12686W        W28760  10.737  16.244   4.454  0.2683  0.0296  0.0235
12687W        W28761  12.746  10.960   0.667 -0.0387 -0.0454 -0.0872
12688W        W28762  18.166   1.256  11.206  0.1782 -0.3117 -0.0471
12689W        W28763   2.445  14.910  12.975  0.2758 -0.2848 -0.1610
12690W        W28764   6.569  11.558   4.005  0.0421  0.0356  0.4131
12691W        W28765   5.803   7.932  11.967 -0.1409 -0.0888  0.2777
12692W        W28766   7.390  14.481   0.739  0.3812 -0.1075 -0.0074
12693W        W28767  16.937   3.751  11.810  0.1375 -0.0114  0.3575
12694W        W28768  10.521  16.257   3.419 -0.0362  0.0092  0.2857
12695W        W28769  14.431   6.043  14.327 -0.0206 -0.1500 -0.2158
12696W        W28770   4.086  17.559   3.451  0.0470 -0.1731 -0.2144
12697W        W28771   4.466   2.433   5.916  0.2838  0.0656  0.1329
12698W        W28772   3.016  10.297   2.543 -0.1965  0.1219 -0.0187
12699W        W28773   6.267   0.539   2.879  0.2466 -0.0937  0.2248
12700W        W28774  15.889  11.590   1.043 -0.2018  0.0082 -0.0572
12701W        W28775   8.705   4.280   0.413 -0.1545 -0.1401  0.0365
12702W        W28776  10.167   8.554   0.553  0.0831 -0.0231 -0.2566
12703W        W28777   7.736  15.892  11.018  0.2708 -0.2839 -0.0205
12704W        W28778  18.497   5.419   5.226 -0.1872  0.0748 -0.1577
12705W        W28779   3.087  14.998  11.628  0.0296  0.2588 -0.0923
12706W        W28780  15.563   2.174  12.471  0.1405 -0.0746 -0.0058
12707W        W28781   5.393   8.193  14.085 -0.1408 -0.0543  0.0600
12708W        W28782  13.331  18.504   3.680 -0.0366 -0.3299  0.0808
12709W        W28783   1.887   8.203   3.975  0.2305  0.2411  0.1489
12710W        W28784   5.362   5.818  10.806 -0.2121 -0.1392 -0.0261
12711W        W28785   1.121   3.536   1.691 -0.3009 -0.0058  0.0029
12712W        W28786   5.578   8.183   3.318  0.4552  0.0984 -0.2657
12713W        W28787   9.019   7.211  14.039  0.2347  0.1455 -0.0494
12714W        W28788   7.617   4.231   0.036  0.0300  0.0184  0.4370
12715W        W28789   3.742   9.888  12.136  0.0697 -0.0947 -0.1461
12716W        W28790   9.167   8.661   0.127 -0.1850 -0.1426  0.1351
12717W        W28791  12.544  18.577   2.999  0.1136  0.1333  0.0342
12718W        W28792  18.216  11.872   2.813  0.1585  0.0604 -0.0685
12719W        W28793   7.789   5.747   2.569  0.1800 -0.1863  0.1615
12720W        W28794  19.099  14.399   0.341 -0.0983 -0.1085 -0.0742
12721W        W28795   4.667   4.575  12.082 -0.1079 -0.0607  0.1688
12722W        W28796   6.943   7.023  11.850  0.0268 -0.0335 -0.0301
12723W        W28797   1.748  16.620  13.302 -0.1223 -0.3006  0.1267
12724W        W28798  12.923  15.378  12.029 -0.0428  0.1464  0.0310
12725W        W28799  12.354  14.422  12.438 -0.0684 -0.0264  0.0496
12726W        W28800  16.080   5.128   0.251  0.1978 -0.2187  0.1066
12727W        W28801  10.781  10.602  11.597  0.0477 -0.3633  0.1695
12728W        W28802   6.555  15.478   9.606  0.3308 -0.0676 -0.0143
12729W        W28803   9.631  17.332  10.510  0.1715 -0.2851 -0.1082
12730W        W28804   5.931  17.788  12.519 -0.0690 -0.0124 -0.4946
12731W        W28805   7.457   2.588   1.894 -0.0420  0.0561  0.0607
12732W        W28806  14.508  11.306  14.741  0.1321  0.1415  0.0581
12733W        W28807   1.169  14.266   1.652 -0.1039  0.2254 -0.0862
12734W        W28808  16.012  17.231   5.143 -0.1367 -0.1037  0.1958
12735W        W28809   7.228   9.721   3.529  0.3529  0.0595 -0.5493
12736W        W28810   9.700   7.326  13.167  0.0917 -0.0976 -0.3061
12737W        W28811   9.733   1.613  13.582 -0.1844  0.1977  0.0766
12738W        W28812   4.242   6.099   4.514  0.0232  0.0564  0.5976
12739W        W28813  17.682   5.380  13.201 -0.1047  0.1813  0.0598
12740W        W28814  18.712  10.348  11.112  0.0105 -0.1092  0.2548
12741W        W28815  15.526   1.874   3.022  0.1042  0.2177 -0.0993
12742W        W28816  17.321  11.871  15.037  0.1789 -0.3083  0.0831
12743W        W28817  15.060  14.181   1.455 -0.2258  0.0264 -0.0791
12744W        W28818  12.290   6.473  11.917 -0.2126 -0.0751 -0.1380
12745W        W28819  18.293  16.478   3.045  0.1601  0.0652 -0.1190
12746W        W28820   0.751   3.634  14.567 -0.0229  0.1494 -0.2636
12747W        W28821   7.384  12.526  10.485  0.1673  0.1065 -0.3823
12748W        W28822  10.077  13.776   5.960 -0.1387 -0.0393 -0.2554
12749W        W28823   7.305   3.890  12.484 -0.1667  0.2458 -0.1724
12750W        W28824   8.593   1.195   1.181 -0.1405  0.1656  0.1349
12751W        W28825   3.460  14.753  10.519  0.1784  0.2631  0.0707
12752W        W28826   8.766  15.732   3.939  0.2804  0.0465  0.2444
12753W        W28827  17.686   7.439  10.495 -0.0359  0.0684  0.1774
12754W        W28828  14.360  15.187  14.353  0.0057  0.2092  0.2021
12755W        W28829  17.709  17.627   2.938  0.0438 -0.1810 -0.0673
12756W        W28830   6.522   0.796  15.026  0.5572 -0.0465 -0.2209
12757W        W28831   0.008   4.654   1.213  0.0602  0.1792 -0.0816
12758W        W28832   6.080  13.994   1.133  0.1587  0.2447 -0.0147
12759W        W28833  18.184  16.900   0.731  0.0587  0.0361  0.0150
12760W        W28834   0.256  16.382   2.280 -0.4564  0.0427 -0.0848
12761W        W28835  14.904  11.726   5.285 -0.1313 -0.1314 -0.0435
12762W        W28836  16.026   5.684   3.443 -0.1261  0.0735  0.0620
12763W        W28837   0.848  17.294   0.792  0.1065 -0.3031 -0.0965
12764W        W28838   3.464   9.583  12.442  0.0130 -0.0049 -0.2763
12765W        W28839   3.976  15.793  14.783  0.0167  0.0891  0.0237
12766W        W28840  14.499   5.753   3.461 -0.0064  0.0115  0.1966
12767W        W28841   1.128  12.673   3.286 -0.4682  0.3611  0.3033
12768W        W28842   7.607   9.952   2.418  0.1812  0.1118  0.4594
12769W        W28843  18.485   0.459  10.197 -0.2343  0.2080  0.2984
12770W        W28844  14.354   5.139   5.648 -0.2358 -0.1261 -0.2921
12771W        W28845   1.190   1.734   9.531  0.0301 -0.0702 -0.0087
12772W        W28846   5.133  13.114   0.177  0.2553 -0.1723  0.1830
12773W        W28847   0.732   6.843   4.361  0.2669  0.0934  0.0582
12774W        W28848   6.120  10.480   3.023 -0.0066 -0.2853 -0.0692
12775W        W28849  12.304   3.440   4.897 -0.2067 -0.0012  0.2902
12776W        W28850   4.160   8.172   0.365  0.0639 -0.1810 -0.1238
12777W        W28851  14.530   8.132  12.065  0.2012  0.1699 -0.0819
12778W        W28852   1.220   8.459   4.443  0.0245  0.3871  0.2575
12779W        W28853   9.615   6.203  10.678  0.1638  0.1104  0.0977
12780W        W28854   3.830   4.481   1.395 -0.0877 -0.1158  0.3419
12781W        W28855  17.233  16.626  13.976 -0.2868 -0.1235 -0.4118
12782W        W28856   6.126  18.321  14.213  0.0903 -0.0821  0.0835
12783W        W28857  11.087  14.242   1.918 -0.0058  0.3081  0.0966
12784W        W28858  12.089  15.478   3.635  0.1908  0.0179  0.0343
12785W        W28859   7.864  10.171  14.415  0.2552 -0.0866  0.0563
12786W        W28860   8.673   4.361   5.800  0.0859  0.1050  0.1189
12787W        W28861   7.857  17.904  14.333 -0.0046  0.1604  0.0035
12788W        W28862  13.670  10.658  11.428 -0.2947 -0.0380  0.1350
12789W        W28863   1.732   0.386   4.959  0.0225  0.0055 -0.1586
12790W        W28864   7.093   0.789   0.775  0.2315 -0.4324  0.0657
12791W        W28865   1.226   1.615  10.002 -0.1181 -0.1004  0.1020
12792W        W28866   4.454  12.407   0.475 -0.1720 -0.2163  0.1565
12793W        W28867  18.612   8.695   1.416 -0.1704  0.4664 -0.1701
12794W        W28868   6.142   5.263   2.913  0.5239  0.0629 -0.0073
12795W        W28869  10.094   2.723   0.860 -0.1552  0.2098  0.1593
12796W        W28870  17.398  14.654   0.601  0.0442  0.1375 -0.3449
12797W        W28871   9.704   0.567  11.354  0.0044 -0.1790  0.1651
12798W        W28872   1.698   7.023  13.210  0.0785  0.2143 -0.2056
12799W        W28873   1.482   3.828  14.100  0.2845  0.1466  0.0518
12800W        W28874  15.657   4.682  11.888  0.2194 -0.4239  0.1766
12801W        W28875  11.996   2.443   5.692 -0.0225  0.0640  0.0287
12802W        W28876   9.857  14.226  11.010  0.0821  0.1827 -0.1809
12803W        W28877  10.866  17.810   1.123  0.1926 -0.2628  0.0629
12804W        W28878  18.517  13.470   5.361  0.1247  0.1412  0.0632
12805W        W28879  19.027  15.398  13.135  0.0963 -0.0146 -0.1876
12806W        W28880  11.976  12.653   3.902  0.2187 -0.1260  0.0946
12807W        W28881  16.064   1.863  13.409 -0.0737 -0.1411 -0.5583
12808W        W28882   2.796  11.807  12.679 -0.0536 -0.1063  0.1012
12809W        W28883  16.706   0.222  13.492 -0.1902  0.1466  0.1853
12810W        W28884  10.359   1.292   5.035  0.1595 -0.4044 -0.0055
12811W        W28885  12.561  17.747   0.021 -0.0219  0.1312  0.1597
12812W        W28886   1.359  11.080  13.822 -0.0038  0.1058 -0.2945
12813W        W28887  15.328   2.201  14.729 -0.0131  0.2647 -0.2652
12814W        W28888   8.008   6.847   2.854 -0.0032 -0.2489  0.0519
12815W        W28889   0.845  13.095   4.220  0.0264  0.2712 -0.1884
12816W        W28890  15.607   5.469   0.244 -0.2730  0.1321 -0.1663
12817W        W28891   7.823  16.691   1.893  0.0602 -0.2418  0.4804
12818W        W28892   1.998  11.787   3.126 -0.0062 -0.0296 -0.1891
12819W        W28893   0.697   3.127  14.771  0.0870 -0.2444 -0.0596
12820W        W28894   8.534  11.482  14.080  0.1347  0.1695 -0.2148
12821W        W28895   4.176  12.541  12.424  0.2751 -0.0219 -0.2079
12822W        W28896   7.526  16.997   3.300  0.2413  0.1086  0.2398
12823W        W28897   4.330   3.532  14.644  0.1064 -0.0600 -0.1781
12824W        W28898  17.804   2.492   0.021 -0.2789  0.2586  0.2543
12825W        W28899  16.169  10.143   2.826 -0.1633  0.0092  0.0191
12826W        W28900  10.283  17.211   2.069 -0.1133 -0.0417 -0.0670
12827W        W28901  11.271  11.434  13.840  0.3048 -0.0536 -0.3737
12828W        W28902   7.077  14.194  11.853 -0.0749  0.4972 -0.3241
12829W        W28903   3.375  18.956  14.124  0.4105  0.1619  0.1191
12830W        W28904  15.558  13.936  14.001 -0.0246 -0.4575  0.0392
12831W        W28905  11.655  12.617  13.568  0.3302 -0.4522  0.0383
12832W        W28906   7.397   8.319  12.975 -0.4022 -0.1715  0.0316
12833W        W28907   2.298   6.426   4.341 -0.1306  0.2571 -0.2046
12834W        W28908  15.906  16.910  10.132 -0.2178 -0.1146 -0.2066
12835W        W28909   7.303   4.599  12.555  0.4176 -0.2224 -0.1388
12836W        W28910   5.701   5.761   1.634 -0.1375 -0.4439  0.0470
12837W        W28911   8.688   8.926  12.127  0.2485  0.3407 -0.3920
12838W        W28912   3.355  11.584  14.842  0.2819  0.1248  0.3305
12839W        W28913  11.806   6.124   3.379  0.0001 -0.0349  0.1815
12840W        W28914   4.466  16.886   2.255 -0.0122  0.0985 -0.2494
12841W        W28915   1.907   6.884   3.179 -0.0436  0.1351 -0.2206
12842W        W28916  12.459   3.230   4.450  0.1374  0.1644 -0.1576
12843W        W28917  17.255   1.035   3.149  0.2489 -0.2174  0.0698
12844W        W28918   8.140  15.266  14.407  0.1067  0.2061  0.1648
12845W        W28919   9.870   2.948   4.192  0.1767 -0.2055  0.0656
12846W        W28920  13.360   5.562  13.753  0.1116 -0.2851 -0.1358
12847W        W28921  14.441   5.043  11.788  0.0184  0.0907 -0.2649
12848W        W28922  18.962  19.008  12.861 -0.3237 -0.0198  0.0622
12849W        W28923  18.870   4.452   0.099 -0.1126 -0.0799  0.1315
12850W        W28924  16.221   7.174  13.657  0.0339  0.0002  0.1475
12851W        W28925  12.381   2.045   2.454  0.0222 -0.0597  0.0968
12852W        W28926   3.953  17.952   0.335  0.0681  0.2370  0.1312
12853W        W28927  15.615   4.309  12.976  0.3876 -0.2951 -0.0421
12854W        W28928  15.138   7.446   1.702 -0.3415 -0.1817 -0.1280
12855W        W28929  14.138  13.921   4.048  0.0397  0.2537 -0.0796
12856W        W28930   8.261   2.386  12.349 -0.2678 -0.0669 -0.1295
12857W        W28931  18.739  11.829  12.143 -0.1073 -0.3956 -0.0147
12858W        W28932  15.838   0.346   2.773 -0.1776  0.0528 -0.1058
12859W        W28933   1.831  10.296  12.566 -0.2195  0.2884 -0.0605
12860W        W28934   9.148  17.458  13.372  0.1876 -0.1298 -0.1451
12861W        W28935   3.180  16.946   1.295 -0.2171  0.1844 -0.0134
12862W        W28936  11.399   0.359   3.910  0.2553  0.1493  0.0157
12863W        W28937  12.166   3.555  14.178 -0.0303 -0.0556 -0.1020
12864W        W28938   7.912   0.691   1.975 -0.3816  0.0233  0.1703
12865W        W28939   9.982   3.523  12.918  0.0298 -0.0243 -0.0319
12866W        W28940  16.655  19.216  12.073 -0.4725  0.2099  0.1799
12867W        W28941   1.155   9.814   1.060 -0.0891 -0.0318 -0.1157
12868W        W28942  11.688  10.324   0.924  0.0585  0.0550 -0.2081
12869W        W28943  10.001   3.737  13.375 -0.1924  0.0809  0.2161
12870W        W28944   2.530  16.828   3.579  0.0117 -0.2318 -0.2121
12871W        W28945   1.209   2.340   5.254  0.0040  0.0777 -0.1229
12872W        W28946  14.832   7.442  13.338  0.0578 -0.1872 -0.1524
12873W        W28947  11.721   7.328  13.637 -0.2690 -0.1022  0.0091
12874W        W28948  18.034  13.487  10.376 -0.0741  0.2899  0.0021
12875W        W28949  19.092  13.383   1.296  0.0543 -0.0466  0.1844
12876W        W28950  11.107   8.901   3.359 -0.0309  0.1119 -0.1909
12877W        W28951  15.781  11.341   4.145 -0.1867  0.2988  0.2111
12878W        W28952   4.730  10.577   2.898  0.0143 -0.1688 -0.2222
12879W        W28953   7.360  19.028   4.982  0.0054 -0.1223 -0.2691
12880W        W28954  12.270   4.327   4.192  0.0134  0.0429 -0.0991
12881W        W28955   0.440   7.379  11.625  0.0083 -0.1063  0.1229
12882W        W28956   3.073   1.646   2.691 -0.1350  0.1504  0.0050
12883W        W28957   0.862  11.431  13.497 -0.1776 -0.0531  0.1820
12884W        W28958   0.557  14.039  15.024  0.0963  0.0154 -0.0849
12885W        W28959  19.148  17.325  14.944  0.2450  0.0243 -0.2261
12886W        W28960   0.408   6.365   2.975 -0.0816 -0.0520 -0.1436
12887W        W28961   0.649  12.125   0.328 -0.1039  0.2095 -0.2272
12888W        W28962   3.564  16.009   1.007 -0.2022 -0.0578  0.2888
12889W        W28963   4.216   2.207   0.321 -0.2916 -0.0714 -0.0481
12890W        W28964   5.261   0.089  11.742  0.0997  0.5187  0.3003
12891W        W28965   7.025   1.123   5.013  0.1199  0.1792 -0.2345
12892W        W28966  11.040   1.363  14.958  0.0268 -0.0729  0.0821
12893W        W28967   4.794   7.628  14.240  0.1288  0.3521  0.3221
12894W        W28968   4.331   1.483  13.714 -0.1904  0.2219  0.1669
12895W        W28969   4.856   2.909   0.314  0.2267 -0.3324 -0.3136
12896W        W28970   4.888   9.737  13.129 -0.2298  0.0462  0.0913
12897W        W28971   6.062   7.593  12.460  0.1706 -0.1258 -0.3795
12898W        W28972   4.852  12.311   3.682 -0.4543  0.3093  0.1590
12899W        W28973   0.651   6.508   3.980 -0.1300 -0.0040 -0.1403
12900W        W28974   3.604   7.206  14.787 -0.1091  0.1086  0.2411
12901W        W28975   0.651  18.890   3.436  0.0716 -0.5158 -0.1110
12902W        W28976   3.418   3.709   4.755 -0.2162 -0.3046 -0.0798
12903W        W28977   3.891   3.710  12.496  0.1954 -0.0359 -0.4593
12904W        W28978   6.649   2.623  13.253 -0.2628  0.1838  0.0306
12905W        W28979  12.166  19.237  12.877 -0.1207 -0.1693 -0.1687
12906W        W28980  15.221   8.617   1.028  0.1340 -0.1454  0.1041
12907W        W28981   2.115   2.833   2.473  0.0154 -0.1366 -0.1145
12908W        W28982   2.630   2.095   2.082 -0.0736 -0.0200 -0.1369
12909W        W28983   4.530  16.484  15.040 -0.1262 -0.2391  0.0329
12910W        W28984   9.324   0.952   3.432 -0.1673 -0.0715 -0.1601
12911W        W28985  13.408  10.692   0.008 -0.0512  0.0986  0.0293
12912W        W28986   8.392   2.287  10.805 -0.1091 -0.0316  0.1257
12913W        W28987  12.203  12.857  11.419  0.2189 -0.0107 -0.0489
12914W        W28988   9.227   8.904  10.791  0.1488 -0.0416  0.0954
12915W        W28989  11.541   8.259   0.768  0.2612  0.1016 -0.1283
12916W        W28990   1.691  15.142  12.166 -0.1132  0.0615 -0.0701
12917W        W28991  10.689  16.910  11.640  0.2936  0.1105 -0.2446
12918W        W28992   7.024   5.503   5.220  0.0982  0.1439 -0.3266
12919W        W28993   3.107  12.101   3.552  0.2008  0.1682 -0.3343
12920W        W28994   9.115  16.364  10.993 -0.2858  0.1173  0.2423
12921W        W28995  18.138  10.400  10.288 -0.3976  0.1629 -0.2257
12922W        W28996  18.915   3.780   1.208  0.3666  0.1443 -0.1857
12923W        W28997   3.079   6.815   3.981  0.0790  0.1575  0.0622
12924W        W28998  14.953   5.871   2.266  0.0391  0.4653 -0.0510
12925W        W28999   9.559   3.986  13.329 -0.4444  0.0241 -0.1523
12926W        W29000  18.933   3.110  13.185  0.1649  0.0484  0.1752
12927W        W29001  16.547   0.317   2.121 -0.1287 -0.0120  0.0872
12928W        W29002  12.995  18.001  13.895 -0.3485  0.4675 -0.1114
12929W        W29003   4.465   0.251  10.367  0.5714 -0.1708 -0.0467
12930W        W29004  17.087   7.702  12.234 -0.4050 -0.1038 -0.0311
12931W        W29005  18.517  14.108   4.467 -0.0956  0.2760 -0.2195
12932W        W29006  15.024  11.050  13.634 -0.1914 -0.0055 -0.0285
12933W        W29007   7.878  11.474  12.570 -0.3792  0.3260  0.6467
12934W        W29008   0.704  13.735   8.893 -0.2359  0.0841  0.0684
12935W        W29009   1.332   4.463   0.151  0.1835 -0.1722  0.2862
12936W        W29010  18.954  18.095   3.628  0.1186  0.2213 -0.2419
12937W        W29011  17.738  17.837   0.106  0.2553 -0.1603 -0.1383
12938W        W29012  15.882   0.386   2.278  0.2528  0.4241 -0.1358
12939W        W29013  13.532  18.634  14.463 -0.4496  0.1330  0.0596
12940W        W29014   2.551  17.596  10.690 -0.0681 -0.2048  0.3450
12941W        W29015   0.962  18.384  13.036  0.0104 -0.0730 -0.0842
12942W        W29016  17.787  14.374   2.804  0.0090 -0.0910 -0.3142
12943W        W29017  18.590  15.517   2.668 -0.2419  0.0716 -0.0991
12944W        W29018   2.582   0.739  10.371 -0.0078 -0.3921  0.3051
12945W        W29019   3.064   7.458  12.166  0.0068  0.0719  0.1478
12946W        W29020  12.831  10.194   1.820  0.0468  0.3143 -0.0885
12947W        W29021   2.559  12.807  10.704  0.0627 -0.0524 -0.0252
12948W        W29022  16.539  15.062   2.852  0.0161 -0.0180 -0.1647
12949W        W29023  12.546  12.998   0.352  0.1000  0.0013  0.2568
12950W        W29024   8.226  16.995  13.064  0.0480 -0.1968  0.0039
12951W        W29025  11.127  17.700  10.920 -0.0362 -0.2540 -0.0193
12952W        W29026  12.858  16.690  11.570  0.0118 -0.1808 -0.1218
12953W        W29027   1.912   6.055  11.754 -0.1292 -0.1880 -0.2754
12954W        W29028   2.921  14.329  14.425 -0.2175 -0.1458 -0.0712
12955W        W29029  16.639   8.420   1.908  0.0950 -0.1493  0.1270
12956W        W29030   7.929   5.812   5.228 -0.2654 -0.2337 -0.0980
12957W        W29031   3.084   1.613   3.397  0.1092  0.0336 -0.2295
12958W        W29032   9.718   9.595  11.547 -0.5623 -0.0938  0.0353
12959W        W29033  16.087  16.793   4.867 -0.1291  0.0116 -0.0398
12960W        W29034   4.153  17.583  10.738  0.0645  0.0965  0.4063
12961W        W29035  16.935  13.120  13.361  0.2374 -0.0862  0.2326
12962W        W29036   0.732   7.862   1.972 -0.2852 -0.2002  0.2588
12963W        W29037   5.362   0.639  14.542 -0.0999 -0.3909 -0.2452
12964W        W29038   2.501   4.555  13.361  0.2751 -0.0682  0.0180
12965W        W29039   1.348   6.898  13.608 -0.1655  0.0507  0.1898
12966W        W29040  12.373   0.201   3.936 -0.2122  0.0206  0.1878
12967W        W29041  18.845   1.682  13.764  0.2050 -0.0456 -0.2435
12968W        W29042  10.814   7.828   0.691 -0.2154  0.0766  0.0541
12969W        W29043   7.619  14.811   3.824  0.2331 -0.0541  0.1556
12970W        W29044  14.667   3.255  12.144 -0.1498 -0.2253 -0.2789
12971W        W29045  12.828   3.182   3.267 -0.1084  0.2229 -0.3715
12972W        W29046  14.227   4.708  14.371  0.0606 -0.2227  0.3322
12973W        W29047  10.601  10.004  12.486 -0.0518  0.2759 -0.0450
12974W        W29048   9.227   2.642   4.091 -0.1737 -0.1534  0.1570
12975W        W29049  13.964   9.510   4.400  0.1670 -0.0258 -0.2680
12976W        W29050   4.947   0.776   0.180  0.1261  0.1611 -0.5324
12977W        W29051  18.108  18.728   3.335 -0.0744 -0.3487  0.0079
12978W        W29052   5.258  16.517  12.124  0.1790 -0.1744  0.0865
12979W        W29053   6.718   8.050   5.746  0.0378  0.0330 -0.0956
12980W        W29054  10.718   8.759   3.065  0.3137 -0.1384  0.2702
12981W        W29055   1.109  10.648   0.232  0.0390 -0.1813 -0.0653
12982W        W29056  13.398   4.254  10.737  0.1175  0.1682 -0.0445
12983W        W29057   1.515  15.604  12.140 -0.0505  0.0222  0.1082
12984W        W29058  13.741   7.583   4.108  0.0061  0.1451  0.3909
12985W        W29059   6.612  15.497   0.939 -0.0334  0.0930  0.2704
12986W        W29060   2.551  12.413   9.263  0.0711 -0.1558 -0.0781
12987W        W29061  10.145   2.940   4.652  0.1548  0.0559 -0.1457
12988W        W29062   8.548  16.488   4.264  0.0788 -0.1086 -0.0252
12989W        W29063  14.071  11.559  13.807  0.0189 -0.1491  0.0971
12990W        W29064  18.097  11.636  14.341  0.2979  0.0545  0.0538
12991W        W29065   6.588   1.207   0.225  0.0579 -0.1516 -0.1837
12992W        W29066  17.642   6.740  14.790  0.2793 -0.0031 -0.1828
12993W        W29067   7.244  11.831  14.130  0.0527 -0.0946 -0.0962
12994W        W29068  18.687   5.857   9.709 -0.0158 -0.0533 -0.1820
12995W        W29069  11.392  16.948   0.095 -0.1003 -0.1973 -0.0021
12996W        W29070   0.569  14.086  13.381  0.0539  0.1288  0.0760
12997W        W29071  14.933   9.573   0.753 -0.2628  0.2489  0.2207
12998W        W29072   0.723  10.479  13.547  0.2992  0.2968 -0.2876
12999W        W29073  10.510   1.507  14.097 -0.2888  0.1886 -0.1532
13000W        W29074   6.134  12.621  14.392  0.1195 -0.1019 -0.0736
13001W        W29075  12.130   5.079  13.373  0.3623 -0.0849 -0.2395
13002W        W29076   7.787   7.197  14.572  0.0003 -0.2587  0.1525
13003W        W29077  10.062   9.864   0.597 -0.0620 -0.0489 -0.1901
13004W        W29078  18.254   8.579   4.618  0.1351  0.4608 -0.3593
13005W        W29079   8.444  17.528  13.796 -0.0906  0.0073 -0.1103
13006W        W29080  13.863   2.871  11.561  0.2292  0.1446  0.0989
13007W        W29081   7.132   1.529   3.158 -0.4342 -0.1494 -0.3959
13008W        W29082  13.070  13.062   4.414 -0.0928  0.1316  0.2658
13009W        W29083  15.553   8.797  11.487  0.1448  0.0429  0.3333
13010W        W29084  15.697  17.683  10.756 -0.0911 -0.6889  0.2031
13011W        W29085  17.468   9.539   4.026 -0.0911 -0.1735  0.2055
13012W        W29086   7.388  14.866  14.700 -0.2831  0.2730 -0.3408
13013W        W29087   5.726   1.431   1.672  0.1366  0.0501  0.2873
13014W        W29088  14.810   4.325   2.478  0.1491 -0.0910 -0.1602
13015W        W29089   7.277   2.296   3.146  0.1290  0.1919  0.0142
13016W        W29090   7.575  14.163  14.969 -0.1819  0.0455 -0.3727
13017W        W29091   4.447   9.357   3.106  0.3096  0.0195 -0.1152
13018W        W29092   0.332  10.895  10.785 -0.0568  0.0193 -0.2519
13019W        W29093   9.776  10.508  11.783 -0.1322 -0.1965  0.0393
13020W        W29094   1.863   0.077   1.754 -0.1318  0.3451 -0.1106
13021W        W29095   4.808   9.032  13.860  0.2035  0.1285  0.2273
13022W        W29096  10.096  12.553   1.226 -0.0155  0.1844 -0.0436
13023W        W29097   1.650  18.386   1.991 -0.0717  0.0575 -0.0491
13024W        W29098   1.348   2.950  12.869  0.2267 -0.0497 -0.1439
13025W        W29099  16.575  18.204  12.657 -0.0472  0.0424  0.0072
13026W        W29100  17.618  15.971  12.006 -0.1256 -0.1532  0.4217
13027W        W29101   3.129   1.323  15.012  0.3388  0.2599 -0.2460
13028W        W29102  14.296  16.785  14.784 -0.0642 -0.0764  0.1323
13029W        W29103  15.930   0.990  11.959 -0.1748  0.1142 -0.2847
13030W        W29104   1.407  12.714  12.233 -0.1331  0.0132  0.2784
13031W        W29105   7.580  16.571   5.003 -0.2940  0.1060 -0.0323
13032W        W29106  15.543   2.354  10.232  0.0902 -0.1618 -0.0761
13033W        W29107   7.611   9.827   0.948  0.0544 -0.3451  0.1878
13034W        W29108  19.107   5.542  12.012 -0.3620 -0.0167  0.4437
13035W        W29109  15.742   7.375   2.517  0.0886  0.2368 -0.0387
13036W        W29110   2.377   8.223   3.997  0.0656 -0.2084  0.2431
13037W        W29111   4.593   6.671   2.092 -0.1818 -0.3689  0.0103
13038W        W29112   8.652  13.223   0.130  0.0684 -0.1188  0.1143
13039W        W29113  16.587   2.561   5.261 -0.0916 -0.0648  0.0369
13040W        W29114   2.629   1.288   4.130  0.1512  0.1279 -0.1517
13041W        W29115  18.002   6.354   2.038  0.0761  0.0195  0.0617
13042W        W29116   5.592  16.439   2.071  0.3085 -0.0675 -0.1298
13043W        W29117   8.494  12.887   2.737  0.2023  0.3339  0.0883
13044W        W29118   3.615   6.802   3.846 -0.3950 -0.0929 -0.0105
13045W        W29119   1.699  16.800   0.791  0.3322 -0.0375 -0.2999
13046W        W29120  12.109   0.452   5.582  0.2734 -0.2045  0.1482
13047W        W29121  12.426   5.170   1.472 -0.0029 -0.0651  0.1430
13048W        W29122  15.459   9.302   1.520  0.0292  0.3159 -0.1228
13049W        W29123   9.341  11.016  13.680 -0.0450 -0.1652 -0.0081
13050W        W29124  17.595  11.051  13.517  0.1295  0.0181  0.1208
13051W        W29125   9.647  17.005  13.503 -0.3804 -0.3201 -0.0082
13052W        W29126   9.440   9.606  12.274 -0.0247 -0.4500 -0.2261
13053W        W29127  15.782   4.997  12.355  0.0218 -0.0305  0.1082
13054W        W29128   7.000   2.827  11.977  0.0822 -0.2946  0.1299
13055W        W29129  13.789   7.786   1.873  0.1054 -0.2994  0.0881
13056W        W29130  14.471  12.230  13.323  0.0413 -0.0320 -0.3735
13057W        W29131  12.947  16.820  12.065  0.1597  0.1210  0.2519
13058W        W29132  11.562  13.688  10.342 -0.0627 -0.0529  0.1612
13059W        W29133  10.702  17.053  10.552  0.0344 -0.0747 -0.0005
13060W        W29134   0.484   2.287   0.484 -0.0407 -0.0594  0.3502
13061W        W29135   1.122  18.235   1.848 -0.1221  0.1414  0.0466
13062W        W29136   9.222  11.208   0.383  0.3085 -0.2137  0.1379
13063W        W29137  18.192  15.039   0.321 -0.0181  0.2459 -0.0445
13064W        W29138   9.163   4.014   4.767 -0.2553 -0.0274 -0.0926
13065W        W29139   8.674  15.070   0.352  0.3214  0.1453  0.3167
13066W        W29140   1.709   9.591   3.381  0.2795 -0.0632 -0.0541
13067W        W29141  12.256   4.607  13.761 -0.1876 -0.0337 -0.0055
13068W        W29142   4.631   9.617   0.405  0.1670  0.1650 -0.3304
13069W        W29143  11.265   1.495   2.374 -0.2040  0.0015 -0.0142
13070W        W29144  18.272   4.663  14.239  0.1255  0.1311 -0.2542
13071W        W29145  15.966   1.645  14.132 -0.1984 -0.0387 -0.3914
13072W        W29146   9.495   0.356  14.439  0.1663  0.1829 -0.0531
13073W        W29147  16.736   9.294   0.196 -0.1528  0.1525 -0.2020
13074W        W29148  16.133  18.566  14.505 -0.2523 -0.1049 -0.1459
13075W        W29149  16.032   0.790  14.862 -0.2226 -0.3153 -0.0119
13076W        W29150  16.564   1.155   3.628 -0.2979 -0.3365 -0.1648
13077W        W29151   5.699  14.182   0.647 -0.2477 -0.0784  0.3194
13078W        W29152  15.979   3.698  11.176 -0.4500  0.1458 -0.0082
13079W        W29153   1.398  18.616  13.506  0.3184 -0.0974 -0.3590
13080W        W29154  18.677  13.122  11.024  0.2870  0.3516 -0.3239
13081W        W29155   8.874   9.812  13.090  0.3086 -0.0420 -0.0508
13082W        W29156  13.761  16.794  14.085 -0.1438 -0.0360  0.1096
13083W        W29157   1.192   8.332  11.453 -0.3438 -0.0421 -0.2570
13084W        W29158  10.089   6.143   0.407  0.3310  0.3366  0.1336
13085W        W29159   3.774   5.140   2.491 -0.4390  0.0421 -0.2106
13086W        W29160   3.908   6.918   4.303  0.2089  0.2782  0.0072
13087W        W29161   9.738   0.538   0.114 -0.1454 -0.0508 -0.2155
13088W        W29162   8.415   5.365  15.001 -0.0823 -0.1820 -0.0263
13089W        W29163   8.521  11.926   3.496 -0.0574  0.0661  0.2874
13090W        W29164   0.441   6.715  11.818 -0.1065 -0.0572 -0.1452
13091W        W29165   2.131  18.997   2.097  0.3339 -0.1911  0.0855
13092W        W29166   1.385  14.017   9.366 -0.0886 -0.0204  0.0708
13093W        W29167  13.132  10.954   5.586 -0.2846  0.0089 -0.0308
13094W        W29168   8.524   5.775  13.720  0.0218  0.3063  0.2527
13095W        W29169   9.685  10.304   2.256 -0.0990 -0.0842  0.1335
13096W        W29170   2.278  19.146  11.910  0.0761 -0.1212  0.0191
13097W        W29171   9.396   9.775  13.710 -0.1229  0.1911  0.2177
13098W        W29172  18.778   6.548   0.818  0.3306  0.0060 -0.2134
13099W        W29173  12.092   5.044  11.889  0.2677  0.1534 -0.0821
13100W        W29174   3.843  12.689  10.694  0.1441  0.2513 -0.2670
13101W        W29175   1.147  12.382   9.953 -0.1388 -0.1917  0.2091
13102W        W29176   1.074   2.039   4.625  0.1860 -0.2413 -0.0096
13103W        W29177   0.082   1.799  12.510 -0.1064 -0.0642  0.2779
13104W        W29178  10.131   1.021  14.124  0.0671  0.1177 -0.0468
13105W        W29179  13.004  11.817   0.445 -0.0519 -0.1660 -0.1479
13106W        W29180  19.190  13.020  13.931  0.3117 -0.1011 -0.2357
13107W        W29181   0.145   5.068  11.358  0.0130  0.1379  0.1466
13108W        W29182   0.661   7.975   5.250  0.1123 -0.2084 -0.0425
13109W        W29183  18.874   9.427   2.316 -0.3467 -0.0111  0.3831
13110W        W29184   2.432   9.482  14.974 -0.0815  0.0769  0.0676
13111W        W29185   8.580   4.298   1.772  0.2255 -0.1059 -0.2016
13112W        W29186   3.167  11.908   5.070 -0.0196  0.1102  0.0291
13113W        W29187  16.012  10.988   3.413  0.3427 -0.3119 -0.0405
13114W        W29188   2.212  11.610   1.519 -0.0786 -0.0310  0.2613
13115W        W29189  12.772  18.365  10.901 -0.1912  0.0633  0.0014
13116W        W29190  17.476   7.805  11.711  0.1043  0.1764 -0.1959
13117W        W29191   2.308   9.545   4.431 -0.0921  0.1569  0.1640
13118W        W29192  17.134  11.215   1.880 -0.2779 -0.0196  0.1189
13119W        W29193   9.579  14.285   4.410 -0.1754  0.1430  0.0871
13120W        W29194  15.739   3.041   3.903 -0.2188  0.0838 -0.1128
13121W        W29195   0.511   4.823   0.887  0.0034 -0.1500 -0.0026
13122W        W29196   7.529  12.607  12.640 -0.3055  0.0150  0.0068
13123W        W29197  17.547   8.005  11.191 -0.2445 -0.1199  0.0454
13124W        W29198   3.021  10.185  12.681 -0.2039  0.0040 -0.3207
13125W        W29199  10.009  13.388   3.339  0.1165 -0.0623  0.3870
13126W        W29200  16.992  17.508  13.489  0.3843  0.1899 -0.0793
13127W        W29201   5.778   8.948  13.339 -0.0916 -0.0630  0.0189
13128W        W29202  16.875  16.913  14.307 -0.0290 -0.1817 -0.1156
13129W        W29203  11.633  15.340   1.548  0.1647  0.1251 -0.1670
13130W        W29204  13.507   4.838   4.885 -0.3584  0.1294 -0.1084
13131W        W29205  13.620   5.980  12.598 -0.0355  0.3939  0.0514
13132W        W29206   2.258  17.697   9.510  0.0696  0.1397 -0.1420
13133W        W29207  16.217   7.531   2.349  0.1387  0.0733  0.1640
13134W        W29208   4.187  16.741  11.103 -0.1204  0.2850  0.1600
13135W        W29209   9.571   4.575   1.453 -0.2306 -0.3866 -0.0409
13136W        W29210   3.704  10.767  13.334 -0.2099  0.0925  0.0312
13137W        W29211   2.282   2.244   1.537 -0.1098  0.1086  0.0223
13138W        W29212  17.813   4.481  13.590 -0.1691  0.0532 -0.0491
13139W        W29213  13.782   2.094  11.636 -0.0264 -0.4556  0.1325
13140W        W29214  12.725  13.728  11.242  0.1075  0.0414  0.0338
13141W        W29215   8.232  13.170  13.404  0.0695 -0.3086  0.0893
13142W        W29216  14.027  15.748  11.543  0.0027 -0.1554 -0.1469
13143W        W29217  10.721   9.932   2.848 -0.1382  0.2385 -0.0432
13144W        W29218   4.069   0.303   1.748  0.1258 -0.3012  0.0948
13145W        W29219  14.338   3.581   4.625 -0.1570 -0.0911  0.3411
13146W        W29220  16.054  19.232   3.607  0.1796  0.1620 -0.0737
13147W        W29221  13.232  10.561   1.927  0.0034  0.1155 -0.3390
13148W        W29222  11.716  18.458   0.551 -0.3718 -0.0757 -0.2417
13149W        W29223   6.820   4.189   2.576 -0.0943  0.2438  0.1322
13150W        W29224  16.574  14.400  13.168  0.0999  0.0930 -0.2578
13151W        W29225  14.839   0.836   0.050 -0.1812 -0.0537  0.1943
13152W        W29226   4.450   0.119   0.736  0.1730  0.0420  0.0109
13153W        W29227  15.422  12.100   5.356  0.2365 -0.1312 -0.1669
13154W        W29228   9.756   5.388   1.575 -0.1354  0.1360  0.1216
13155W        W29229   0.080  15.955  14.355 -0.1387 -0.1813 -0.1584
13156W        W29230   5.197   7.590   4.388  0.1747  0.3833  0.1670
13157W        W29231   9.194   7.233   1.756 -0.2221  0.0585  0.0798
13158W        W29232   4.664   9.093   4.990  0.0490  0.1190  0.2507
13159W        W29233   9.396  18.025   1.543 -0.3586 -0.3582 -0.2429
13160W        W29234  16.108   9.415  11.313 -0.2064  0.0547  0.1285
13161W        W29235   9.061   3.903   0.257 -0.0513  0.0901  0.1506
13162W        W29236   4.067   6.554  14.408  0.0777  0.0072 -0.1934
13163W        W29237  10.410   7.481   0.820 -0.1797  0.1797 -0.0248
13164W        W29238  17.139   4.655   1.109  0.1759 -0.0924  0.0210
13165W        W29239  14.419  18.349  13.340 -0.1730  0.0941 -0.2530
13166W        W29240  10.224  14.699  13.376 -0.3415 -0.1985  0.1065
13167W        W29241   4.460   3.934  14.322  0.3841  0.2979  0.0162
13168W        W29242  12.459   2.670   1.503 -0.1241  0.1032  0.1125
13169W        W29243   4.497  15.923  13.133 -0.1719  0.0383  0.0160
13170W        W29244  14.195   8.202  14.210 -0.0290  0.1147  0.0087
13171W        W29245   4.230  15.733   4.124  0.0269 -0.1153 -0.1846
13172W        W29246   9.420  10.359  12.286  0.0247 -0.2560  0.0923
13173W        W29247   4.763  14.292   0.045 -0.1686 -0.2373 -0.1039
13174W        W29248  19.002   5.380  11.503 -0.0537  0.0981  0.0338
13175W        W29249   4.878   0.662  11.994 -0.0574 -0.0847 -0.0199
13176W        W29250  16.910   3.006  10.500  0.1268  0.3001 -0.1796
13177W        W29251  12.551  11.649  10.995 -0.1516 -0.1730  0.0795
13178W        W29252   0.058  12.750   2.359  0.1859 -0.0539 -0.1799
13179W        W29253  12.205   7.918  14.356 -0.0858 -0.2163  0.1139
13180W        W29254   8.660   4.769   1.332  0.1620 -0.1854 -0.5066
13181W        W29255   6.554   7.003  14.973 -0.1384 -0.0064  0.0212
13182W        W29256   1.471  14.382  12.929  0.0192 -0.1776  0.3190
13183W        W29257   5.078   0.680   2.707 -0.0709  0.2521 -0.1810
13184W        W29258  18.442   2.038  13.625  0.1358  0.0008  0.4142
13185W        W29259   1.608  17.941  12.311 -0.0288 -0.2560 -0.0599
13186W        W29260  11.610   6.733   5.162 -0.3098 -0.0790 -0.3888
13187W        W29261  14.970  11.309  14.892  0.2354 -0.1253  0.0626
13188W        W29262   8.511   9.787   3.942 -0.2951 -0.0867 -0.1888
13189W        W29263   4.969   9.350   0.698 -0.0358 -0.2572 -0.0326
13190W        W29264   1.664   8.096  11.229  0.1126 -0.0022  0.1727
13191W        W29265  14.515   9.303  11.881 -0.0742 -0.0249 -0.3347
13192W        W29266   0.038   8.444  14.017 -0.1557 -0.4455 -0.1004
13193W        W29267   6.385   5.167  14.182  0.3488 -0.1013  0.1513
13194W        W29268  16.418   8.102  11.245  0.0371  0.1922  0.2035
13195W        W29269  18.444  13.527  13.941  0.0184  0.1293 -0.0165
13196W        W29270  13.524  17.385   2.346 -0.3103  0.0653 -0.0740
13197W        W29271   6.076   5.352   2.334  0.2244  0.3201  0.0835
13198W        W29272   2.640   7.512   0.947  0.0837 -0.0966 -0.4010
13199W        W29273  13.220   1.658   0.475  0.0545  0.0699 -0.4178
13200W        W29274   5.143   5.375  14.883  0.0146  0.1960  0.0496
13201W        W29275  16.619  12.897  13.869  0.2522 -0.1043 -0.2446
13202W        W29276   7.722  18.583   2.560 -0.0187 -0.2558 -0.2673
13203W        W29277   3.310  13.832   5.815  0.0421  0.0239 -0.3112
13204W        W29278   2.473  14.102  10.386  0.1751 -0.2284 -0.0024
13205W        W29279  11.725   7.720  12.300  0.0034 -0.4198 -0.0046
13206W        W29280   7.075   5.150   5.576  0.2506 -0.2983 -0.1377
13207W        W29281   4.296   4.335   2.356  0.0353  0.1261 -0.1730
13208W        W29282   5.180  16.930  11.069  0.0121  0.0137  0.2100
13209W        W29283  11.629  16.416  14.294  0.2447  0.1062  0.2802
13210W        W29284  13.005   9.633   0.173  0.3057 -0.4059 -0.0822
13211W        W29285   6.646   1.466   3.353  0.2022 -0.0571 -0.2737
13212W        W29286  15.819   7.849   1.608 -0.2308  0.0310 -0.1164
13213W        W29287   4.539   1.357  11.911 -0.0012  0.0572  0.1063
13214W        W29288   4.975   1.992   3.269  0.1497  0.1347 -0.3410
13215W        W29289  13.984   1.078   1.286  0.0528 -0.2317  0.3364
13216W        W29290   2.194  14.299   1.397 -0.0543 -0.0890  0.3235
13217W        W29291  13.615  14.839  11.851 -0.1281  0.2172 -0.3077
13218W        W29292  10.793   0.692  10.923  0.2964 -0.1279 -0.2290
13219W        W29293   2.144  14.995  12.408 -0.2415  0.1888 -0.0582
13220W        W29294   6.894  11.721   4.342 -0.0359 -0.1332  0.1074
13221W        W29295   8.310   8.279  13.250  0.0087 -0.1625  0.0580
13222W        W29296   9.379   3.506  14.858  0.0598  0.3502 -0.0618
13223W        W29297   8.785   7.469   1.411  0.2774  0.1569  0.1293
13224W        W29298   4.867   2.800   4.952  0.1789  0.0847 -0.0064
13225W        W29299   8.485  10.890   2.808  0.3976 -0.1632 -0.1766
13226W        W29300   9.016  15.539  12.141  0.2276 -0.0195  0.0551
13227W        W29301  18.886  16.787   2.459 -0.1398  0.0143 -0.4036
13228W        W29302  12.069  14.017  12.338  0.0871  0.0779 -0.0110
13229W        W29303   7.938   6.936  13.618  0.2486  0.0761  0.2160
13230W        W29304  19.060   5.822  11.335 -0.0976 -0.0336 -0.1061
13231W        W29305  14.236   1.907  13.894 -0.0420  0.2639  0.0949
13232W        W29306   1.717  17.872   3.565  0.0802 -0.2931  0.0578
13233W        W29307   1.559  11.390   5.409  0.3100 -0.2800  0.0684
13234W        W29308  19.252  11.701  11.026  0.0459 -0.0852 -0.2081
13235W        W29309  15.872  16.307  11.898  0.0979 -0.1640  0.0868
13236W        W29310   5.305  12.762   0.715 -0.0913  0.1025 -0.0739
13237W        W29311   9.297  15.585   0.182 -0.2966  0.2565  0.1326
13238W        W29312  16.789   2.074   4.108  0.0940  0.2985  0.0165
13239W        W29313   7.631  14.215   1.273  0.0330 -0.1918  0.0616
13240W        W29314   4.729  16.755  13.098 -0.5447 -0.2481 -0.0068
13241W        W29315   7.322   0.962  11.277  0.1937 -0.2295 -0.6175
13242W        W29316   5.661   0.857   4.928  0.0648  0.0193 -0.1747
13243W        W29317  11.611  11.587   0.052  0.3527  0.1916 -0.3211
13244W        W29318  17.534  15.074  13.799 -0.0446  0.1522 -0.4164
13245W        W29319   6.917  14.801   3.882  0.4196  0.2614  0.3002
13246W        W29320  12.172  17.164  10.444  0.0692  0.1091  0.0161
13247W        W29321  17.934  10.697   4.653 -0.0702  0.0014 -0.2483
13248W        W29322  16.908   2.110  11.177 -0.0705 -0.1787  0.1849
13249W        W29323  15.576   1.707   4.478 -0.0563  0.1657 -0.0709
13250W        W29324   1.270   6.181   0.139  0.0252  0.0291 -0.1236
13251W        W29325   5.738  13.007   0.937 -0.1371  0.1585  0.3007
13252W        W29326   5.577  12.188  10.206 -0.3903 -0.3763  0.0540
13253W        W29327  15.839  17.252   2.683 -0.1896  0.0740  0.1718
13254W        W29328  18.113   8.197   3.387 -0.2660 -0.0361  0.0913
13255W        W29329   7.789  18.078  13.548  0.1233  0.1097 -0.0351
13256W        W29330  11.496  11.370   0.969  0.1892  0.1528  0.3560
13257W        W29331   5.170   2.710   5.363  0.1378 -0.1419  0.1345
13258W        W29332  10.687  16.891   4.134 -0.1175  0.4574  0.1899
13259W        W29333   0.326  15.304   9.889  0.1030  0.4884  0.0803
13260W        W29334  13.573  10.232  14.901 -0.2428 -0.0833  0.1617
13261W        W29335  10.961   6.070   5.346  0.0831 -0.1213  0.2426
13262W        W29336   6.950   5.813   6.155 -0.2640  0.1078 -0.0465
13263W        W29337   4.206  18.363   4.062  0.1539 -0.2465  0.0997
13264W        W29338   0.217   7.969   3.491 -0.0983 -0.0588  0.1346
13265W        W29339  13.131  13.617   0.507 -0.1559  0.3881  0.1723
13266W        W29340   2.456  19.297   0.138  0.0139 -0.5115  0.0915
13267W        W29341   1.192  15.224   1.400  0.1890  0.0150  0.1484
13268W        W29342   0.541   5.592  14.439 -0.1915 -0.0008 -0.2065
13269W        W29343   3.041  13.597   0.019 -0.0520  0.3715 -0.2859
13270W        W29344   2.100   6.850   4.565 -0.0751  0.0252  0.1073
13271W        W29345   2.200   1.577  11.527  0.1612  0.0030 -0.0505
13272W        W29346  19.259  13.653   2.173  0.0102 -0.1151  0.0385
13273W        W29347  11.237  10.791  11.350  0.1814  0.1532  0.0947
13274W        W29348   1.712  10.335   3.221  0.1023 -0.0313 -0.1425
13275W        W29349   4.678   5.911   3.792 -0.0644  0.1200  0.1776
13276W        W29350   5.652  11.910  10.642  0.2717 -0.0674  0.2002
13277W        W29351  17.622  15.078   3.453  0.1550  0.0862  0.5920
13278W        W29352  15.380   4.456  10.196  0.2703  0.2101  0.1885
13279W        W29353  16.507   1.260  10.785  0.1173 -0.1679 -0.1599
13280W        W29354   2.614  16.659  14.419 -0.1908 -0.0168  0.0491
13281W        W29355  11.179   4.018   2.554 -0.1903 -0.3808 -0.3060
13282W        W29356  11.140   1.897  13.214  0.2828  0.0695 -0.0604
13283W        W29357  11.727  18.898   2.756 -0.2297 -0.1209  0.0257
13284W        W29358   2.573  16.334  11.366 -0.2096 -0.0004 -0.0943
13285W        W29359   0.809  15.469  11.058  0.1512 -0.0938  0.0619
13286W        W29360   5.357  15.427   2.072  0.1062 -0.0910 -0.0203
13287W        W29361  16.341  10.586   2.532  0.1700 -0.0391 -0.1104
13288W        W29362   6.532   1.817   3.690 -0.0110  0.1137 -0.3471
13289W        W29363  10.375   6.482   1.018 -0.1925  0.1864 -0.1806
13290W        W29364  16.609  13.268  10.487  0.2584 -0.3099  0.3732
13291W        W29365  16.521   3.637   4.170 -0.0453  0.0420  0.4855
13292W        W29366  18.047   2.081   1.141  0.3215  0.0079  0.2439
13293W        W29367   0.242   7.163   2.297  0.2545 -0.1075  0.0854
13294W        W29368   7.174   1.664   2.337  0.0331  0.2142  0.1889
13295W        W29369  14.541   5.817  11.922  0.0618  0.2915  0.1271
13296W        W29370   4.617   6.029  14.521  0.0288 -0.0022 -0.1572
13297W        W29371  18.836   7.398   5.329 -0.1937  0.2842 -0.1954
13298W        W29372  18.109   1.930  15.040 -0.1102 -0.4520  0.3705
13299W        W29373  13.253  16.249   2.633 -0.2246  0.0054 -0.2513
13300W        W29374   9.152   7.056   1.174 -0.1474  0.0974 -0.0195
13301W        W29375   0.797  15.106  13.884 -0.2614  0.0317 -0.0460
13302W        W29376  11.976   2.910   1.327 -0.2403 -0.2302 -0.0652
13303W        W29377   5.231  13.229   5.320  0.3069 -0.3576 -0.3540
13304W        W29378   0.232  13.367   9.031 -0.1338  0.0060 -0.2470
13305W        W29379  11.616   3.601   5.171  0.1853 -0.0581  0.0489
13306W        W29380   2.426  11.031   1.498  0.1254  0.2150 -0.0553
13307W        W29381   4.168  10.417   0.739 -0.0438  0.0789 -0.1279
13308W        W29382  15.054   3.845  12.774 -0.1947  0.0257 -0.0195
13309W        W29383  16.082  18.352   2.398  0.0636  0.2761 -0.2349
13310W        W29384   7.392   9.675   2.808 -0.1541 -0.0722 -0.0265
13311W        W29385   9.602   8.008   1.217 -0.0708 -0.0441  0.0072
13312W        W29386  13.575   1.921  12.159 -0.0887  0.0235  0.3007
13313W        W29387   2.355   4.937  13.743  0.0323 -0.0765 -0.0921
13314W        W29388   0.421  14.985   0.597 -0.1912 -0.1624 -0.1944
13315W        W29389   3.575  11.511  10.457  0.1218 -0.0344  0.0498
13316W        W29390  17.263   3.690   3.425 -0.3254  0.0531  0.0721
13317W        W29391   9.232  18.314  12.815  0.2144 -0.1155  0.2116
13318W        W29392   2.930   6.412  14.839  0.2619 -0.3664  0.3230
13319W        W29393  18.310   9.050   2.579 -0.4322  0.0539  0.0315
13320W        W29394   5.088   7.620   0.010 -0.1370  0.0061 -0.1024
13321W        W29395  11.217   6.331  14.966 -0.1291  0.0148  0.1828
13322W        W29396   9.419   2.949   0.305  0.1627  0.3038  0.2341
13323W        W29397  14.698   0.556  14.719 -0.1018 -0.1546 -0.0712
13324W        W29398   3.168   5.645   4.674  0.1679 -0.2480  0.1476
13325W        W29399  14.080   8.847   4.252  0.0292  0.0970  0.0728
13326W        W29400   0.081   3.122  11.387  0.2068 -0.2763  0.0467
13327W        W29401   3.533  19.107   5.150 -0.3272  0.0176 -0.0482
13328W        W29402   4.710  12.716   2.456 -0.0611  0.1690 -0.1202
13329W        W29403  15.478  11.866  13.302 -0.0309 -0.0781  0.2089
13330W        W29404   9.391   0.096   0.411 -0.1991 -0.3007 -0.0915
13331W        W29405   1.418   1.934   3.252 -0.2650 -0.0782 -0.1610
13332W        W29406  16.374  16.414   3.071  0.2457  0.0096 -0.2801
13333W        W29407  11.776  12.524  13.114 -0.3372 -0.2777  0.2900
13334W        W29408   4.080  11.108  14.841 -0.1496  0.3170  0.1817
13335W        W29409   2.485   2.581  11.626 -0.1211  0.1197 -0.0700
13336W        W29410   1.079   9.099   1.679 -0.1038 -0.2633 -0.0279
13337W        W29411  12.772  17.532   0.465 -0.0430 -0.1547 -0.0877
13338W        W29412  14.792   0.759   1.154  0.0648  0.4447  0.0935
13339W        W29413   1.526   5.584  13.964 -0.4350 -0.2200 -0.0324
13340W        W29414  18.490  14.214  14.631 -0.4070 -0.1499 -0.0939
13341W        W29415  11.691  15.936  11.129 -0.2359  0.1747 -0.3387
13342W        W29416   9.473   3.505   1.875  0.1839 -0.0027 -0.0936
13343W        W29417   1.278   9.680  11.595  0.2080  0.2205 -0.0855
13344W        W29418   7.179   2.836   3.719  0.0755  0.1167  0.1818
13345W        W29419   5.070   2.528   1.199  0.3068  0.0845  0.2643
13346W        W29420   5.805  14.423  14.273  0.2705 -0.0097 -0.1637
13347W        W29421   0.101  11.010   3.576 -0.0102 -0.3341  0.0337
13348W        W29422  11.607   5.978   2.957 -0.1552 -0.0735 -0.1421
13349W        W29423   3.102   1.531   4.391 -0.0492  0.2920 -0.1680
13350W        W29424   8.959  12.331  13.628 -0.1446 -0.0016 -0.1685
13351W        W29425   7.260  18.804   1.146  0.1552 -0.0362  0.1225
13352W        W29426  10.213   1.294  11.132 -0.3071 -0.2425  0.0450
13353W        W29427   1.013   4.674   5.177  0.0541  0.1378 -0.0218
13354W        W29428   8.199  18.765  14.290  0.1682 -0.0465 -0.1521
13355W        W29429   4.000  16.049   0.190 -0.1153 -0.0329  0.1602
13356W        W29430  18.147   4.883   1.425  0.1200 -0.3477  0.0392
13357W        W29431   0.877  12.229  13.346 -0.2616 -0.1211 -0.0203
13358W        W29432  11.828   4.308   1.275 -0.0572  0.0618  0.0419
13359W        W29433   6.185   6.419   2.384  0.3242  0.0172  0.3641
13360W        W29434   6.054  11.458   3.550  0.2767  0.3081 -0.1029
13361W        W29435   0.821  13.961   2.528 -0.0032 -0.0364 -0.0853
13362W        W29436  17.610   2.879   1.771 -0.0889  0.0405 -0.0599
13363W        W29437   6.352  14.388   3.838 -0.3279  0.2377  0.2594
13364W        W29438   3.576  16.300   0.415  0.0511 -0.1243 -0.0305
13365W        W29439  17.164   7.774   1.559 -0.0360  0.2294 -0.2810
13366W        W29440  15.629  15.926   9.445 -0.1859 -0.0020 -0.2139
13367W        W29441  18.317  16.014   1.162  0.0960 -0.2112 -0.0101
13368W        W29442   0.341   1.580  11.927 -0.0369  0.1785 -0.1501
13369W        W29443   1.637   9.833   4.920 -0.0772 -0.0471 -0.0567
13370W        W29444   0.472  17.254  11.947  0.1566 -0.1207  0.1771
13371W        W29445   0.776   0.183   3.922  0.1303 -0.4542  0.2408
13372W        W29446   5.163  13.169  12.177 -0.1703  0.0428 -0.1180
13373W        W29447   8.149  13.972  11.776  0.1409 -0.0022  0.1174
13374W        W29448  16.301   1.093  12.663  0.5182 -0.0696  0.1011
13375W        W29449   5.331   2.495  13.650  0.2666 -0.0387 -0.3656
13376W        W29450  11.219   3.301  12.892  0.0758  0.1577 -0.1538
13377W        W29451  16.685   8.973  14.295 -0.2317  0.1496  0.1675
13378W        W29452   0.191  10.157   4.131  0.2415  0.0369 -0.2369
13379W        W29453   1.402  17.528   3.943 -0.0032 -0.2676 -0.0836
13380W        W29454  12.515  14.732  13.877 -0.2203 -0.1924  0.1076
13381W        W29455   3.973   9.212   2.930  0.0729 -0.0858  0.1311
13382W        W29456  18.846  18.879  14.297  0.0130 -0.1931 -0.1047
13383W        W29457  19.012  17.233  12.339  0.1382  0.2297  0.1476
13384W        W29458   0.798   5.205  14.846  0.2449  0.2593  0.1127
13385W        W29459  11.443   2.608  13.643 -0.1350 -0.2259  0.1077
13386W        W29460   6.052  16.301  14.270 -0.2593 -0.0464  0.0103
13387W        W29461   8.792  14.170  14.886 -0.1596 -0.1714  0.2838
13388W        W29462  18.327   3.855  10.640 -0.0033  0.1730  0.1541
13389W        W29463   0.203   7.115  12.939  0.0211 -0.0363 -0.1674
13390W        W29464  13.160  17.711   9.862 -0.3195 -0.2567 -0.2933
13391W        W29465  17.563   1.403  13.994  0.0551  0.0650 -0.4423
13392W        W29466  15.689   3.051  13.867 -0.0255  0.2234 -0.3050
13393W        W29467  16.192  13.521   4.634  0.2728 -0.3297  0.1374
13394W        W29468  17.418   4.820   4.797 -0.0883  0.0974  0.0275
13395W        W29469  18.021   2.781   0.737  0.1388 -0.1544  0.0587
13396W        W29470   2.221   4.151  13.255 -0.0225 -0.1623 -0.0190
13397W        W29471   5.828  15.549  10.767 -0.1731 -0.0779 -0.0842
13398W        W29472   4.079  15.624  10.291 -0.2375 -0.1633 -0.0795
13399W        W29473  13.638  14.254  11.576 -0.1997  0.2299  0.3168
13400W        W29474   5.271   3.051  12.913 -0.0471 -0.1483 -0.3206
13401W        W29475   3.169  16.937   1.996 -0.0194 -0.1129 -0.0847
13402W        W29476   3.412   5.104  13.847 -0.0886  0.1140  0.2594
13403W        W29477   3.573   3.209   1.364  0.0430 -0.0979  0.0053
13404W        W29478  15.453   2.902   0.283  0.3211  0.1105  0.0093
13405W        W29479   9.053  12.750  15.038 -0.2824  0.1531 -0.2378
13406W        W29480  14.465  12.092   1.868  0.1531  0.0154  0.1131
13407W        W29481   6.515   0.480   4.686 -0.1227 -0.0426 -0.2046
13408W        W29482   2.190   4.773   4.876 -0.1706 -0.2406 -0.2801
13409W        W29483  11.896  17.167   0.418  0.0410  0.2635 -0.0826
13410W        W29484   8.463   3.039   1.704 -0.0736  0.0058  0.0851
13411W        W29485  17.726   3.724   0.293 -0.0820 -0.2495  0.0487
13412W        W29486  18.707  19.126  12.077  0.0693 -0.0101  0.0601
13413W        W29487   3.054   1.977  12.607  0.1312 -0.4065  0.0749
13414W        W29488   9.843  18.297  14.075 -0.0542  0.1796 -0.5020
13415W        W29489  12.148  15.142  11.279  0.1333 -0.0375  0.1332
13416W        W29490   1.622   0.360  14.242 -0.0403  0.0777 -0.0341
13417W        W29491  17.888  16.677  10.717  0.1200  0.0681 -0.0495
13418W        W29492  19.149  16.007   1.433 -0.1305  0.0321 -0.3075
13419W        W29493   2.900  11.453   4.008 -0.0340 -0.1153 -0.0891
13420W        W29494   7.309  12.364   3.588  0.0343  0.1162  0.1340
13421W        W29495   5.070  15.238  13.036 -0.1150  0.1174  0.2609
13422W        W29496  18.902   2.756   4.358  0.0710 -0.2233  0.1130
13423W        W29497  10.661  17.551  10.679 -0.0115 -0.1577 -0.0218
13424W        W29498   7.222  18.897   4.112  0.1337 -0.2547 -0.0587
13425W        W29499  17.277  11.917  13.139 -0.2477  0.2510 -0.0392
13426W        W29500   7.392   1.012  14.516 -0.1356 -0.0477 -0.4070
13427W        W29501  12.596   5.754   0.704 -0.2592  0.0547 -0.1159
13428W        W29502  11.365   8.415   0.163 -0.1353  0.0169  0.1429
13429W        W29503   5.262   7.788   2.143 -0.2290  0.3651  0.0710
13430W        W29504   4.706   1.314  14.094  0.1042  0.0006  0.1196
13431W        W29505  18.012  10.930  12.190 -0.3832  0.0641  0.3116
13432W        W29506   8.130   0.832  12.296  0.2129  0.3246 -0.1234
13433W        W29507  12.685  12.032  13.738  0.2058  0.0741  0.0021
13434W        W29508   9.195  16.938  13.373  0.2237  0.0413 -0.3000
13435W        W29509  16.794  12.432  13.894  0.0382  0.2616 -0.0241
13436W        W29510   9.532  16.852   5.981 -0.1561  0.0646  0.1529
13437W        W29511   7.030  11.135   2.430  0.0609  0.1475  0.0836
13438W        W29512  17.768   1.406  12.514  0.2395 -0.0367  0.1381
13439W        W29513   6.656  17.582   0.590 -0.0554 -0.1112 -0.2026
13440W        W29514   3.891  13.484   2.611 -0.3043 -0.2954  0.2606
13441W        W29515  18.528  12.124   0.607  0.1035  0.1779  0.0333
13442W        W29516   8.894   9.287  12.927  0.0912 -0.0632 -0.1013
13443W        W29517   1.663   7.950  10.351 -0.3010  0.0496  0.2509
13444W        W29518   8.371   0.304   3.348 -0.0546 -0.2087 -0.2979
13445W        W29519   6.087  19.141  12.894 -0.1853 -0.1635 -0.0843
13446W        W29520   0.481   9.376  13.656 -0.1418  0.1334 -0.2170
13447W        W29521   1.327   3.483   0.406 -0.0096 -0.2044  0.1749
13448W        W29522  13.689  18.512  15.038 -0.0994  0.2002  0.1028
13449W        W29523   5.509  16.302  10.539 -0.0666 -0.1585  0.0544
13450W        W29524   3.698   9.073   4.132 -0.0800  0.0087 -0.0584
13451W        W29525  11.240  12.191  12.665  0.0479 -0.1644  0.1911
13452W        W29526  13.146   8.416   5.027 -0.1180 -0.0666 -0.0413
13453W        W29527  18.131  13.807   4.661 -0.1969  0.4059  0.1097
13454W        W29528   9.761  15.741   4.326 -0.3115  0.1554 -0.1458
13455W        W29529  19.192  13.445   0.308  0.0063  0.3124  0.3460
13456W        W29530  19.211   0.992   1.398  0.1398  0.1176 -0.0161
13457W        W29531  19.204  11.671   0.898  0.1892  0.0161 -0.0335
13458W        W29532   7.582  18.526  13.648  0.0950 -0.0734  0.0092
13459W        W29533  11.138   1.178  12.248  0.0557 -0.1483 -0.0062
13460W        W29534   1.321   8.910   4.842 -0.0418 -0.4687 -0.0629
13461W        W29535  18.357   9.191   0.094  0.2986  0.2746 -0.0715
13462W        W29536   1.883   5.909  11.131  0.0680 -0.0349  0.2522
13463W        W29537   6.130   7.041  12.496 -0.1312  0.1196 -0.1491
13464W        W29538  17.470  10.625   3.315  0.1068  0.2069  0.2552
13465W        W29539   5.796   9.538  11.603 -0.1233  0.0789 -0.0533
13466W        W29540   5.176   7.143   6.112 -0.0032 -0.1926 -0.2249
13467W        W29541  11.368   5.043   1.730  0.1396  0.0610  0.2194
13468W        W29542   3.825   8.762   0.431  0.0470 -0.0045 -0.2999
13469W        W29543   9.822  12.548   3.561  0.0680  0.3978  0.0004
13470W        W29544  11.311  17.882  14.908  0.0142 -0.0363 -0.0289
13471W        W29545  15.765  15.377  13.884  0.0023  0.2730 -0.0362
13472W        W29546  11.727   6.052  10.648 -0.1043 -0.1297 -0.1292
13473W        W29547   7.216  13.087  14.074  0.0647  0.1308  0.0723
13474W        W29548   3.207   0.253  14.285 -0.0204  0.0508 -0.0775
13475W        W29549   5.499  15.004   2.672 -0.2775  0.0146 -0.2022
13476W        W29550  16.445  10.192  14.834 -0.0334  0.1319  0.2405
13477W        W29551  10.015   8.525   4.832 -0.2671  0.0129  0.2875
13478W        W29552  19.291   7.229   4.599 -0.1102 -0.0162  0.2711
13479W        W29553  13.204   1.274   4.964  0.1226 -0.0006 -0.2524
13480W        W29554   5.406  16.327   4.350  0.0400  0.0811 -0.0604
13481W        W29555   2.081  11.325  14.875 -0.1994  0.0134 -0.3489
13482W        W29556  11.916   9.821   4.745 -0.0196  0.0980  0.1515
13483W        W29557   6.384   9.282   0.634  0.3509 -0.1280 -0.1737
13484W        W29558   2.000  11.084   0.314  0.1735  0.0647 -0.1979
13485W        W29559  18.296   6.869  14.345  0.0593 -0.0230  0.3386
13486W        W29560   7.531   6.732  10.993  0.0622 -0.0974 -0.0377
13487W        W29561  14.970   8.914  14.329 -0.1919 -0.1306 -0.1743
13488W        W29562  12.865   4.382   9.608 -0.0429  0.3007  0.0215
13489W        W29563   6.380  15.613  13.532  0.0500  0.1036  0.2374
13490W        W29564   8.199  15.792  14.174  0.2716  0.1271  0.0959
13491W        W29565  11.018   0.383  13.566  0.0236 -0.0088 -0.0549
13492W        W29566   6.241   8.563  10.652 -0.1723 -0.0095 -0.2373
13493W        W29567   9.758   1.518   0.691 -0.2788 -0.1493 -0.0536
13494W        W29568  16.985  12.281   2.425  0.0078 -0.1228  0.2569
13495W        W29569  14.520   4.706   3.896 -0.3470  0.0943 -0.1185
13496W        W29570  17.762  18.643   9.890 -0.0182 -0.0178 -0.0332
13497W        W29571   8.631   7.949  11.178  0.5164 -0.2951 -0.0597
13498W        W29572   4.078  19.145   0.584  0.2198  0.0370  0.0579
13499W        W29573   4.178   6.779   4.681 -0.5943 -0.0557  0.0530
13500W        W29574   6.028   1.692  11.637 -0.2833  0.0973  0.0980
13501W        W29575   3.165   4.588  11.255 -0.0224  0.0979  0.0853
13502W        W29576   5.611  11.769   2.656 -0.0280  0.1258  0.3917
13503W        W29577  17.099  17.974   9.213 -0.0674  0.1907 -0.0806
13504W        W29578  18.970   0.733   2.143 -0.0988 -0.1554 -0.1896
13505W        W29579  10.597  12.619   0.931  0.1130  0.2859 -0.0142
13506W        W29580  17.797  17.607  14.624  0.1879  0.0142 -0.0133
13507W        W29581  10.348   4.390   1.350 -0.2884  0.0521  0.2189
13508W        W29582   0.159   1.184  11.569 -0.0744  0.1121 -0.2319
13509W        W29583  11.090   5.953  14.466  0.1739  0.1382  0.0586
13510W        W29584   1.374   5.743   1.760 -0.3118  0.1804  0.1585
13511W        W29585  12.075   0.253  14.884 -0.3192 -0.0104  0.0978
13512W        W29586  15.264   2.818   1.269  0.0943 -0.0912 -0.1248
13513W        W29587   3.719   5.727   1.141 -0.2008 -0.2911 -0.1454
13514W        W29588  11.301   2.790  10.468 -0.1723  0.2139  0.0060
13515W        W29589   8.013  16.621  13.384 -0.2655  0.0701  0.3075
13516W        W29590  13.943  12.038   2.853 -0.0808 -0.2816  0.0598
13517W        W29591   4.821  17.177   1.444 -0.0480 -0.0947 -0.0927
13518W        W29592  17.031   9.878  11.705  0.1373 -0.0497 -0.2584
13519W        W29593   4.625   6.156  13.181 -0.1459  0.0927 -0.4210
13520W        W29594   8.807  17.410   0.779 -0.0339  0.3377  0.3104
13521W        W29595  10.724   2.329   1.535 -0.2262 -0.2193  0.0859
13522W        W29596  11.898  10.456   4.710 -0.3451  0.0742  0.1569
13523W        W29597  16.462   3.478   2.928  0.4816  0.1262 -0.0814
13524W        W29598  14.880  13.469   1.380 -0.3781 -0.0258  0.1305
13525W        W29599  16.802   2.337   2.691  0.1199  0.0492 -0.0438
13526W        W29600   5.080   1.314  13.132 -0.0626 -0.4030 -0.0883
13527W        W29601   0.346   3.788  10.697 -0.1852  0.1497 -0.2958
13528W        W29602   5.914   2.106   0.730 -0.2178  0.3714  0.0322
13529W        W29603   8.522   2.457  14.163  0.0812 -0.2744  0.2420
13530W        W29604  18.342  15.443   3.220  0.2882  0.4488  0.1080
13531W        W29605  18.734  17.638   3.580 -0.1628  0.3767  0.0970
13532W        W29606  11.016  11.382  14.354 -0.0634  0.1952 -0.0119
13533W        W29607  10.866  15.563   2.285  0.1274 -0.1272  0.0099
13534W        W29608  18.026  17.187  12.436 -0.0412 -0.2129 -0.1325
13535W        W29609  12.757   4.288  12.035 -0.0117 -0.2674  0.2290
13536W        W29610  16.432   4.949   2.797 -0.0233 -0.0693 -0.0483
13537W        W29611  14.656   1.680   3.563  0.1025 -0.6271 -0.0196
13538W        W29612  11.781   7.809  11.437 -0.1299 -0.0937  0.2556
13539W        W29613   5.996   1.183   1.965 -0.0891  0.0298 -0.0244
13540W        W29614   5.877   8.272   4.250 -0.1999 -0.3063  0.0653
13541W        W29615  18.519   4.251  14.295 -0.0503 -0.1600 -0.1051
13542W        W29616  17.831  19.073  10.344 -0.1753 -0.0415  0.0412
13543W        W29617   1.884   7.469   1.356  0.3775 -0.1197 -0.0744
13544W        W29618  10.745   9.014  10.048  0.2284 -0.2025  0.1041
13545W        W29619   5.523  12.435   1.917  0.0945 -0.0319 -0.2260
13546W        W29620  16.118   7.561   2.829 -0.0123 -0.0507 -0.0336
13547W        W29621   9.917  15.219  11.174 -0.1574 -0.3447 -0.1289
13548W        W29622   6.251   0.068   3.350 -0.0840 -0.0337 -0.0586
13549W        W29623  14.514  19.087  10.966  0.3172  0.2606  0.2702
13550W        W29624  12.076  17.505  12.911 -0.1750 -0.2489 -0.2031
13551W        W29625   3.146  16.127   0.703  0.0904 -0.2350 -0.1867
13552W        W29626  14.039   0.821   4.686  0.1485 -0.1790  0.0461
13553W        W29627  13.593  14.449  12.319  0.3393  0.1283 -0.0969
13554W        W29628  10.541   0.405  12.004 -0.0999  0.1232 -0.2441
13555W        W29629  15.500  15.385  11.803 -0.0110  0.0010  0.1890
13556W        W29630  18.122   7.538  15.001  0.0557 -0.0028  0.0724
13557W        W29631  15.474   1.527  13.124  0.2426  0.0864 -0.1056
13558W        W29632  13.995  17.780  10.737 -0.1593 -0.1402  0.3421
13559W        W29633   2.666  15.303  11.467 -0.0610  0.1882  0.2172
13560W        W29634   3.845   6.163   5.154  0.2727 -0.0535  0.3118
13561W        W29635  13.674  11.848   4.499  0.3093  0.2634 -0.0452
13562W        W29636   5.800  11.581  14.498  0.0662 -0.2215  0.0257
13563W        W29637  18.264  18.803  10.322 -0.2590 -0.0254  0.1850
13564W        W29638  16.944   2.363  10.373  0.1046 -0.0425  0.0195
13565W        W29639  18.446   2.275  12.626  0.1514  0.1209 -0.2309
13566W        W29640  17.056   0.086  14.300  0.1074 -0.0002  0.2212
13567W        W29641   8.887   4.912   4.809 -0.0294 -0.1099 -0.2205
13568W        W29642  13.891   0.348  13.207 -0.0027 -0.0569  0.1940
13569W        W29643  19.245   6.048   3.886 -0.0864  0.2241 -0.1817
13570W        W29644  11.983   5.465   4.813  0.1334 -0.1709  0.1499
13571W        W29645   9.127  15.190  11.683 -0.2636  0.1104  0.1181
13572W        W29646   9.863   0.015   9.961  0.0530  0.1618  0.3949
13573W        W29647   3.648   6.204   0.004 -0.0522  0.2118 -0.0865
13574W        W29648   9.409  17.498   1.407  0.0030 -0.1842  0.3889
13575W        W29649   9.266  13.495   2.044  0.2395  0.1571  0.0898
13576W        W29650  11.454   6.144  11.042 -0.4574 -0.0398  0.2787
13577W        W29651   2.499  10.267   5.347  0.2811  0.2042  0.3182
13578W        W29652   5.316   8.707   1.814  0.0976  0.0260  0.1520
13579W        W29653   6.897  10.647   1.711 -0.0023 -0.1369  0.1366
13580W        W29654   3.626   3.866  13.280 -0.1007 -0.0743 -0.2105
13581W        W29655   1.831   1.902   2.138  0.2498 -0.4482 -0.2275
13582W        W29656   4.818   8.500   1.581 -0.2215 -0.1383 -0.1535
13583W        W29657   7.618  11.729  11.298  0.0747 -0.1370 -0.0622
13584W        W29658  14.018   6.076  10.831  0.0577  0.4139 -0.3762
13585W        W29659   9.028   5.778  12.100  0.2660  0.1515 -0.0524
13586W        W29660   0.916   7.069  11.743  0.2304 -0.1501  0.3385
13587W        W29661   5.344  18.283  12.694 -0.0024  0.0353  0.2563
13588W        W29662   1.609   7.731  10.838 -0.1033  0.0494  0.3864
13589W        W29663   4.223   9.908   0.655  0.0747  0.4431  0.1511
13590W        W29664  15.666   5.429  11.276 -0.4264 -0.0605 -0.3186
13591W        W29665  11.350   2.289  10.206  0.0982 -0.0036 -0.2163
13592W        W29666   2.191  12.125   5.043  0.2513 -0.1002 -0.1171
13593W        W29667  10.193  18.456  14.567 -0.2052 -0.1773 -0.4080
13594W        W29668   6.741   4.608   1.932 -0.2395  0.1903 -0.0251
13595W        W29669   7.790   6.617   0.744  0.1878 -0.1287 -0.1263
13596W        W29670  12.083  10.015   1.067 -0.0891 -0.0255  0.4552
13597W        W29671  15.065  18.779   0.638 -0.1016  0.5945  0.3107
13598W        W29672   9.566   9.224  13.188  0.0283  0.1646 -0.0450
13599W        W29673  10.574  14.460  12.057  0.1402 -0.0348  0.1377
13600W        W29674  12.901   5.411   4.474 -0.2839 -0.1187 -0.1761
13601W        W29675   7.018  17.291   4.496  0.1602 -0.1705 -0.0573
13602W        W29676  17.878   6.550  12.811  0.1104 -0.0317 -0.2819
13603W        W29677  14.807   7.361  14.374  0.3634 -0.4324 -0.0823
13604W        W29678  11.766   8.116   0.246 -0.2635 -0.3404 -0.0173
13605W        W29679  12.768  13.698   3.431 -0.2792  0.0549  0.0200
13606W        W29680  13.975   6.195   2.927 -0.1160  0.1727  0.1384
13607W        W29681  18.064   4.365   1.014  0.0919  0.1786 -0.0842
13608W        W29682  17.927  14.463  14.050 -0.1699 -0.1542  0.0715
13609W        W29683   9.154  12.444  11.993 -0.0390 -0.1256 -0.0396
13610W        W29684  16.304   0.160  14.495  0.1899  0.1930  0.5544
13611W        W29685  10.510  12.157  14.477  0.1443 -0.2155 -0.4950
13612W        W29686   4.584  10.138   1.171  0.0797  0.1735 -0.3633
13613W        W29687  11.965   4.919  11.025  0.0697 -0.1492 -0.2883
13614W        W29688  12.195  11.386   3.267 -0.2196  0.0728 -0.2370
13615W        W29689   7.875  18.049  10.784  0.0975  0.1506 -0.1980
13616W        W29690  10.595  13.617  13.661 -0.1475  0.1147 -0.3254
13617W        W29691   3.026  11.394   1.746  0.1404  0.0457  0.2655
13618W        W29692   4.520  15.365   0.499  0.0292 -0.2000  0.0843
13619W        W29693  17.848   2.239  14.256  0.0115 -0.1717  0.2336
13620W        W29694   9.357  16.412  12.348  0.1312  0.0884 -0.0131
13621W        W29695  17.506   3.374   4.422  0.3230 -0.0673 -0.1953
13622W        W29696   1.938  13.068   0.415 -0.4332  0.0688 -0.2819
13623W        W29697  11.755   7.131   3.132  0.2814 -0.4141  0.0301
13624W        W29698   7.833   2.552   2.208 -0.0151  0.1583  0.3744
13625W        W29699  14.963  19.240  11.134 -0.2384  0.0327 -0.0684
13626W        W29700  15.022  11.515   0.403  0.0517 -0.1231 -0.1425
13627W        W29701   5.659  12.945  14.258  0.0923  0.3840 -0.1336
13628W        W29702  11.652  16.750  11.218  0.1996  0.0739  0.0990
13629W        W29703   9.001   0.969  11.192 -0.0846  0.1417 -0.1646
13630W        W29704  14.666  17.993   1.912 -0.1995 -0.3710 -0.0005
13631W        W29705  17.322  16.360   2.935  0.2819 -0.0939 -0.1387
13632W        W29706   5.901  14.048   5.645  0.3455 -0.1678  0.0057
13633W        W29707  13.269   4.417   5.064 -0.5994  0.0980 -0.0451
13634W        W29708  16.975  10.226  11.010  0.0607  0.0028 -0.0289
13635W        W29709   2.098  12.946   1.839 -0.0214 -0.2750 -0.3773
13636W        W29710  16.061   8.338   5.218 -0.0109 -0.3526  0.4826
13637W        W29711  18.897  18.449  12.385  0.1328 -0.2529  0.0738
13638W        W29712   8.398   7.655   4.442 -0.1801 -0.2653  0.0396
13639W        W29713   4.814  13.498   4.364  0.0656 -0.0976 -0.1406
13640W        W29714   1.522   3.331   2.538  0.0035  0.2785  0.2851
13641W        W29715  12.259   2.673   3.077 -0.3384  0.1892 -0.1372
13642W        W29716   4.916  15.816   0.822  0.0582 -0.0559 -0.1636
13643W        W29717  13.749  14.894   2.354 -0.1026 -0.0112  0.0453
13644W        W29718   3.792  15.490   4.568  0.0075  0.2811 -0.3384
13645W        W29719   6.258  13.392  13.152 -0.0293 -0.3528 -0.2591
13646W        W29720   0.290  15.163   1.141 -0.0720 -0.0504  0.0200
13647W        W29721  16.288  13.680   3.581  0.0641 -0.1579  0.1549
13648W        W29722  11.858  18.988   0.354  0.1553  0.3902  0.1370
13649W        W29723   0.211  10.784   0.846  0.0291  0.2605 -0.1679
13650W        W29724  16.630  18.651  13.956  0.0870 -0.0339 -0.1862
13651W        W29725  19.234   3.536  10.547  0.0036 -0.2021  0.1079
13652W        W29726  18.582  11.935   3.867 -0.0529 -0.0748 -0.0269
13653W        W29727  10.923   8.108   3.829 -0.1924  0.0387  0.1296
13654W        W29728   9.237  19.179  13.280  0.0649  0.3729 -0.1462
13655W        W29729   4.793  17.665  14.695  0.2559 -0.0161  0.1653
13656W        W29730   1.567   7.424   0.717 -0.0831 -0.0605  0.1683
13657W        W29731   0.269  14.012  14.601 -0.1839 -0.0445  0.1311
13658W        W29732  13.207   4.507  11.836 -0.0509  0.0905 -0.1574
13659W        W29733  15.834   1.713   5.417 -0.3806 -0.0276 -0.2322
13660W        W29734   7.680  14.589   5.463  0.2723  0.1261  0.0499
13661W        W29735   0.611   3.012   4.149  0.0016 -0.0414 -0.2386
13662W        W29736   2.853   9.959  10.184 -0.0228 -0.0734  0.2153
13663W        W29737   5.666   5.183   5.405  0.2385  0.0180  0.3332
13664W        W29738  17.013  14.287  15.018 -0.2006 -0.0408  0.0928
13665W        W29739  16.625  17.237  14.584  0.0646 -0.3389  0.0453
13666W        W29740   0.743  12.655   0.220 -0.1808  0.1461  0.0427
13667W        W29741   8.361  13.536   9.492 -0.2404  0.1121 -0.5614
13668W        W29742  17.766   9.324   0.531 -0.2085 -0.2314  0.4337
13669W        W29743   6.172  14.027   2.398 -0.0898  0.2421  0.0255
13670W        W29744   8.133   1.905   1.699  0.2529 -0.3140  0.2073
13671W        W29745  10.449   0.115  14.728  0.2053  0.3264 -0.0022
13672W        W29746  13.460   0.827   0.329  0.0971 -0.1134  0.0923
13673W        W29747  12.496  17.312   3.054 -0.3013  0.5080  0.1574
13674W        W29748   8.109   8.933   2.984 -0.2246  0.2606  0.0315
13675W        W29749  16.989  16.277  12.155 -0.0919 -0.0980 -0.2852
13676W        W29750   4.648  18.227  11.270  0.0121  0.4345 -0.2639
13677W        W29751   6.304  10.675  13.544 -0.1531 -0.0202  0.0733
13678W        W29752   5.497   0.526  13.994  0.1945 -0.2313  0.2469
13679W        W29753  11.404   1.089  14.014 -0.0201 -0.4101  0.0233
13680W        W29754  19.278   8.191  13.156  0.1171 -0.2337  0.1453
13681W        W29755   6.228  13.172  10.917 -0.0854  0.3771 -0.0885
13682W        W29756  13.913  15.690  14.807 -0.0920 -0.4659 -0.0214
13683W        W29757   0.091  18.760  14.533 -0.0062  0.1287  0.2825
13684W        W29758  10.230   6.686   4.349  0.1979  0.1156  0.0716
13685W        W29759  16.468   0.054  11.012 -0.1525 -0.0376 -0.0978
13686W        W29760  18.227  10.167   0.776  0.0390  0.0503  0.0087
13687W        W29761  16.278  15.766  10.026 -0.3692 -0.2156  0.6132
13688W        W29762  14.428  15.195  12.454  0.1482 -0.1185  0.2046
13689W        W29763   7.300  12.053  11.993 -0.4008  0.0340 -0.1421
13690W        W29764  17.105   8.198   2.815  0.1856  0.2213 -0.0790
13691W        W29765  17.122  13.366  10.418  0.1502 -0.0589  0.0976
13692W        W29766  14.714  13.285  10.206  0.2152  0.4089  0.0013
13693W        W29767   1.964   9.284  12.364 -0.0218  0.0884  0.2374
13694W        W29768   6.645   9.771  12.872 -0.0451  0.2246  0.1046
13695W        W29769  15.731  10.853   2.447  0.0861 -0.1535 -0.2890
13696W        W29770   1.049   3.591  11.025 -0.0913  0.2724  0.0692
13697W        W29771  12.446  14.522   0.423 -0.5104  0.1272 -0.2673
13698W        W29772  11.169   0.394  11.097  0.2443 -0.0269  0.2065
13699W        W29773   8.355  11.175  11.241  0.2168 -0.0916 -0.1302
13700W        W29774  11.950  19.269   4.919  0.1650 -0.0929 -0.0875
13701W        W29775  12.571   8.253  12.232  0.0635 -0.3576  0.5176
13702W        W29776  12.267   7.274   1.778 -0.0246 -0.1128 -0.0019
13703W        W29777  16.762   0.922  12.466 -0.0976  0.0597  0.1641
13704W        W29778   1.457  15.646   1.401 -0.0825 -0.3343  0.3403
13705W        W29779   6.889  12.645  11.893 -0.1272 -0.0567  0.3466
13706W        W29780  14.767  17.339  12.431  0.2668 -0.0677  0.2586
13707W        W29781   2.069  10.778  10.560  0.0725  0.0537 -0.0930
13708W        W29782   0.709   9.764   5.250  0.1476  0.0864 -0.1310
13709W        W29783  11.298   3.161   0.354 -0.2160 -0.0518 -0.5808
13710W        W29784   0.965  10.542   1.633  0.0811 -0.1167  0.2972
13711W        W29785   6.754  10.370   5.132 -0.1606  0.1102 -0.3154
13712W        W29786   1.005   6.843   3.955  0.1309  0.0258 -0.1710
13713W        W29787   2.507  18.235   3.144 -0.0022 -0.1762 -0.4349
13714W        W29788  17.244   2.314   3.118  0.1747  0.2253 -0.1505
13715W        W29789  16.361   2.844  14.921  0.0119 -0.2409  0.1799
13716W        W29790   3.419   9.142  11.908  0.0771  0.3365  0.1411
13717W        W29791  13.259   1.161   3.647 -0.0789 -0.0217  0.2169
13718W        W29792   3.990   4.292   4.406  0.2165 -0.2397  0.0143
13719W        W29793   0.833  17.857  13.991  0.3066  0.0238 -0.0313
13720W        W29794  10.061   4.422   4.553 -0.1166 -0.0443 -0.0722
13721W        W29795   7.267   7.516   0.946 -0.0451 -0.1588  0.2703
13722W        W29796  18.095  14.116  10.918 -0.1266 -0.3764  0.0025
13723W        W29797   2.296   1.178   2.641  0.4628  0.0425 -0.1931
13724W        W29798   8.076  14.746  14.778  0.0498  0.3044  0.3334
13725W        W29799   5.328   3.527  12.351  0.0562  0.0034  0.0068
13726W        W29800   0.099   3.337  14.437  0.0945 -0.0171  0.1779
13727W        W29801  13.589  15.333  13.625 -0.0477 -0.0270  0.0661
13728W        W29802  16.526  13.410   2.636  0.0536  0.0028  0.0945
13729W        W29803  15.237   8.231   0.333  0.2576  0.0267 -0.0412
13730W        W29804   2.439  17.751   1.427  0.1902  0.2332 -0.2407
13731W        W29805  12.867   4.681   5.549 -0.0602  0.2125 -0.1395
13732W        W29806  16.449  17.874  11.834  0.2466  0.1011  0.1705
13733W        W29807  15.796  17.089  12.559  0.3704  0.1846 -0.0275
13734W        W29808  18.330   9.122   4.409  0.1975  0.2118  0.1919
13735W        W29809   7.321  12.472  14.656  0.0185  0.1750  0.0002
13736W        W29810   0.178   0.638   9.466 -0.1319  0.1706  0.0538
13737W        W29811  16.865  15.774   2.490  0.1598  0.0643  0.4442
13738W        W29812  19.143   8.108   3.812 -0.0978 -0.3305  0.1045
13739W        W29813   2.352   9.408   1.526 -0.1195 -0.0317  0.1873
13740W        W29814   7.236   9.166  11.182  0.1214 -0.3745  0.0504
13741W        W29815  11.586  16.979   4.873  0.1584 -0.1742  0.2521
13742W        W29816   3.884   8.720  14.021  0.2685 -0.0055  0.1939
13743W        W29817   3.322  14.039   4.241 -0.0277 -0.1843  0.0738
13744W        W29818   3.511  11.030   3.932 -0.0989 -0.2524 -0.0930
13745W        W29819   2.025  14.974   2.901 -0.1865 -0.3117 -0.3395
13746W        W29820   5.653  16.727  13.760  0.0582 -0.0328  0.3321
13747W        W29821  13.082  12.830   2.616  0.1010 -0.0417  0.0176
13748W        W29822   1.062   5.064   5.497  0.1996  0.0447  0.2146
13749W        W29823   0.791   7.217  11.199  0.2003  0.1365  0.3570
13750W        W29824  17.758  17.248   0.727 -0.2539 -0.1132  0.1027
13751W        W29825   2.364   8.933  11.086 -0.2263  0.1232  0.3437
13752W        W29826  13.927   3.263  12.782 -0.1711 -0.3147  0.2027
13753W        W29827  13.298   3.873   3.034 -0.0560 -0.1418  0.4293
13754W        W29828  12.911   1.598  13.954 -0.0025  0.2113 -0.0963
13755W        W29829  10.512  15.627  10.742 -0.1549 -0.0408 -0.4082
13756W        W29830   5.024  16.538  14.279 -0.1233 -0.0622 -0.0106
13757W        W29831  13.248  14.747   1.875  0.1303 -0.1781  0.2167
13758W        W29832  18.833   8.023   0.388 -0.1972  0.1169 -0.0068
13759W        W29833  13.132  19.200   1.736 -0.2474  0.2002  0.5407
13760W        W29834  16.170   4.009  14.220 -0.1884  0.1716  0.0061
13761W        W29835   6.556   5.306   1.208 -0.0297 -0.2799 -0.4574
13762W        W29836  10.261   6.390  11.531 -0.1857 -0.1347  0.1150
13763W        W29837  11.961  13.285   3.302 -0.2375  0.1235  0.0768
13764W        W29838   4.867   0.412   2.043  0.1495 -0.0087  0.2046
13765W        W29839  12.296   5.403   1.890 -0.0814  0.0534 -0.1933
13766W        W29840  10.476   6.159   3.146 -0.0249 -0.0425  0.2717
13767W        W29841  16.710   1.799  10.845  0.3772  0.0352  0.1040
13768W        W29842  16.065  15.443   4.860 -0.1712 -0.2911  0.3370
13769W        W29843  12.771  16.210   3.756  0.0275 -0.1085  0.1571
13770W        W29844  14.093  18.685   4.752 -0.0391 -0.0182 -0.3890
13771W        W29845  14.296   7.715  14.399  0.0054  0.0414  0.0704
13772W        W29846   9.487  18.501  14.326 -0.0907 -0.1292 -0.0228
13773W        W29847  10.284  12.989  14.066  0.0292 -0.2628  0.3064
13774W        W29848   9.072  16.535   2.867 -0.0738 -0.2430  0.0440
13775W        W29849  18.483  15.482  12.335 -0.2234  0.0573 -0.1636
13776W        W29850   7.349   3.850   0.624  0.0688  0.1674  0.0168
13777W        W29851   3.205   3.164   0.689 -0.3045  0.0394  0.3159
13778W        W29852   5.756  11.848  11.882 -0.1020 -0.0623 -0.3137
13779W        W29853   8.802  15.514  10.817  0.4719 -0.0684 -0.1993
13780W        W29854   4.368  11.675  13.310 -0.2264  0.3174  0.1780
13781W        W29855  14.524   1.860  11.688  0.4851  0.0044 -0.1010
13782W        W29856  11.714  12.902  11.550 -0.2331  0.1194 -0.1778
13783W        W29857  13.329   3.246   1.879  0.1448  0.1023 -0.0384
13784W        W29858   2.489  14.901   3.085  0.1151 -0.1054  0.2711
13785W        W29859  16.040   1.622   4.591 -0.0653 -0.1344 -0.1420
13786W        W29860  14.546   3.339  11.239 -0.0098  0.0070 -0.0288
13787W        W29861  19.240  17.872  13.961  0.0418 -0.5360 -0.0905
13788W        W29862  16.022  14.244  10.536 -0.0841  0.0725  0.1107
13789W        W29863  11.055  12.780  14.283  0.1162 -0.1489  0.1208
13790W        W29864   8.599  16.849   5.429  0.1414  0.2652  0.4523
13791W        W29865  15.303   1.572   0.891  0.2720 -0.2168  0.2032
13792W        W29866   0.209  15.611   2.448 -0.2092 -0.0133  0.1712
13793W        W29867   6.244   0.297   3.907 -0.2930  0.1096 -0.0576
13794W        W29868  15.806   1.507   1.397  0.1853  0.0455 -0.2042
13795W        W29869   7.685  19.284  12.569  0.1400  0.0595 -0.2991
13796W        W29870   1.117  11.941  11.053  0.0585 -0.2840  0.1166
13797W        W29871   7.234  18.441  11.169 -0.2490  0.0127  0.0967
13798W        W29872  17.664   3.271  10.786  0.1188 -0.2441 -0.1696
13799W        W29873  10.589  18.255   1.001 -0.0689 -0.0457  0.0889
13800W        W29874  18.172   3.190  12.318  0.1093 -0.0107 -0.0692
13801W        W29875  17.570   8.810  14.954 -0.2010  0.1545  0.0681
13802W        W29876   5.963  12.378   3.465 -0.0935 -0.0131 -0.1830
13803W        W29877   2.759   6.628   5.804 -0.1993  0.3298 -0.3805
13804W        W29878  16.883  16.266   2.696 -0.0488  0.3590 -0.1351
13805W        W29879   6.131   5.155  14.605 -0.1200  0.3195  0.3905
13806W        W29880   8.055   6.129   1.578  0.0299 -0.1117  0.1790
13807W        W29881   1.587  12.111   1.997  0.3153  0.0926  0.2487
13808W        W29882   4.155   0.770   2.431 -0.0741  0.0121 -0.1225
13809W        W29883  13.641  19.216  11.700  0.1627  0.0559  0.0047
13810W        W29884   8.783  13.199   4.488 -0.0196  0.2740  0.3536
13811W        W29885   4.938  18.314   0.225  0.2156 -0.0718 -0.0599
13812W        W29886   1.065  17.958  10.936 -0.2738  0.4617  0.1326
13813W        W29887   6.739  14.120   2.450 -0.0345  0.0430  0.1210
13814W        W29888   3.745   5.198  12.830  0.0845  0.0341 -0.0698
13815W        W29889   9.685  10.020  11.255 -0.1801 -0.2909  0.0057
13816W        W29890   2.669   9.820  11.247  0.0256 -0.1432  0.0133
13817W        W29891  13.994   5.256   0.030  0.0209 -0.2335  0.4174
13818W        W29892  17.886   2.650  12.942  0.0180 -0.0756 -0.0667
13819W        W29893   8.194  13.882  10.413 -0.3064 -0.0186 -0.1164
13820W        W29894   6.491   5.378   5.039 -0.3499  0.2041 -0.5107
13821W        W29895   1.974   0.514   0.153  0.2201 -0.2541  0.1408
13822W        W29896   0.606  10.530  11.421  0.2972 -0.2646 -0.0393
13823W        W29897  17.401   9.929   2.193 -0.1052 -0.1577  0.0257
13824W        W29898   4.687  14.714   0.999  0.0408  0.0788 -0.2316
13825W        W29899  17.854  16.149   1.463  0.1240 -0.2011 -0.0818
13826W        W29900  16.238   4.863  12.599 -0.0786 -0.1049 -0.0917
13827W        W29901   2.445  14.671  10.531 -0.1067  0.1935  0.0590
13828W        W29902   9.662  18.457   1.500 -0.1960 -0.1056 -0.0418
13829W        W29903   6.977   4.395  11.080 -0.4348 -0.2154 -0.0086
13830W        W29904   3.033   4.546   3.906  0.2661 -0.0288 -0.2895
13831W        W29905   5.203   0.723   4.174  0.0988 -0.0736  0.1134
13832W        W29906  17.108  15.516   1.624  0.2231  0.0040 -0.1915
13833W        W29907   2.116  19.044   4.339 -0.2399 -0.0077  0.1724
13834W        W29908   9.442  16.663   4.745  0.0370  0.3343  0.0498
13835W        W29909  13.194  13.423   1.570 -0.2366  0.0913  0.1553
13836W        W29910   4.379   9.734  14.730  0.2028  0.1728  0.0901
13837W        W29911   1.142  13.250   0.913 -0.0013 -0.1141 -0.0870
13838W        W29912   4.844   1.371  13.573 -0.3638  0.3028 -0.2059
13839W        W29913   2.857   6.900  15.037 -0.0917 -0.1438 -0.2062
13840W        W29914  14.180   5.725  12.625  0.0983 -0.3954  0.0027
13841W        W29915   6.103   7.107   1.292  0.0962 -0.0189 -0.2296
13842W        W29916  11.483   0.753  11.821  0.1738 -0.3630  0.1423
13843W        W29917   7.224   1.881  12.620 -0.0855  0.2645  0.1936
13844W        W29918   3.387  16.984  11.213 -0.0272  0.3817  0.0170
13845W        W29919  15.871   1.296  14.950  0.0079 -0.1294  0.1392
13846W        W29920   7.094  17.004   4.085 -0.4413 -0.0351  0.3123
13847W        W29921  17.985   1.758   0.444  0.2983 -0.1380  0.0028
13848W        W29922  16.001   0.428   3.875 -0.1577 -0.3494  0.1539
13849W        W29923  18.580   8.648   9.815 -0.0480  0.0398  0.0589
13850W        W29924  12.140  12.017  11.009 -0.0709  0.0136 -0.0780
13851W        W29925   7.619  12.072  12.405  0.1427 -0.3129 -0.1698
13852W        W29926  10.599  15.222  10.401  0.0344  0.0008 -0.2290
13853W        W29927  18.396  15.576   0.924 -0.0738  0.3763 -0.0760
13854W        W29928   2.382   6.898   4.114 -0.1558 -0.3724 -0.2880
13855W        W29929   9.011   1.625  13.027 -0.4456 -0.0041  0.1152
13856W        W29930  17.306   6.104  14.242 -0.1228 -0.0818 -0.0570
13857W        W29931  14.956   7.814   3.756  0.1855  0.1561 -0.1052
13858W        W29932  17.653   5.064  12.874 -0.0770  0.0703  0.3906
13859W        W29933  11.868   8.351   2.231  0.4642  0.1182  0.3735
13860W        W29934   7.529   5.581   1.419  0.0220 -0.1942  0.2232
13861W        W29935   0.847   4.231   0.873  0.1341 -0.2325  0.0292
13862W        W29936   8.922   2.092  12.195  0.0039 -0.0651 -0.1129
13863W        W29937   2.186  16.373  14.599  0.0746  0.0472 -0.3840
13864W        W29938   3.558   8.483   1.373  0.2292  0.2767 -0.0075
13865W        W29939  15.870   2.004   0.507 -0.0275  0.1374 -0.2604
13866W        W29940  16.246   5.699   4.802 -0.1597 -0.1370 -0.2272
13867W        W29941  13.681   9.599  14.260 -0.1892  0.2151  0.0994
13868W        W29942  17.392  10.361   2.505  0.4759 -0.0894 -0.0584
13869W        W29943   9.950  19.272  11.302 -0.0074  0.0517 -0.0528
13870W        W29944  10.405  10.353  10.341 -0.1086  0.1224 -0.0404
13871W        W29945  10.707  10.574  12.393  0.0783  0.1972  0.0633
13872W        W29946  19.239   9.228   3.509  0.1946  0.0055  0.1899
13873W        W29947  18.206   1.928  11.815 -0.1855 -0.1780  0.2279
13874W        W29948  13.033   3.353   0.942  0.1837  0.1797 -0.0283
13875W        W29949   4.685   6.443   5.221  0.0404  0.1804 -0.2405
13876W        W29950   7.077   2.117   4.820 -0.1157 -0.2339  0.1688
13877W        W29951  18.536  16.251   4.460 -0.0335  0.0944  0.2486
13878W        W29952  10.604   2.764   1.326 -0.1067  0.1623 -0.3874
13879W        W29953   1.219   1.880  13.700 -0.1324  0.0907 -0.1759
13880W        W29954   4.287   1.957  14.610 -0.1905  0.2644 -0.1816
13881W        W29955  16.377  12.411  14.868  0.1658 -0.1061  0.1776
13882W        W29956   2.027  11.531  14.412  0.2329  0.0535  0.0956
13883W        W29957  13.768  16.383  12.281 -0.0246 -0.4026  0.1815
13884W        W29958   4.577   9.800  13.564  0.3305  0.2063 -0.2188
13885W        W29959   4.457   3.650  11.285  0.3996 -0.0830 -0.4032
13886W        W29960  15.107   5.167   5.121  0.0786 -0.0680  0.1747
13887W        W29961  18.286   1.461  14.710 -0.1358 -0.2679  0.2151
13888W        W29962   9.999   6.206  11.005 -0.0856 -0.1601 -0.0309
13889W        W29963  16.707   8.383  14.258 -0.2896 -0.1349  0.2565
13890W        W29964  17.105   5.600   3.365 -0.0550  0.2988 -0.1111
13891W        W29965  15.407   1.915   1.745 -0.0027 -0.2264 -0.0895
13892W        W29966   5.289   6.360  13.735 -0.1035 -0.0153  0.0591
13893W        W29967   9.385  15.773  12.415  0.0331  0.1449  0.3826
13894W        W29968  13.208  15.224  14.639  0.0435 -0.1543  0.5414
13895W        W29969   9.615  12.772  14.259 -0.1767  0.2317 -0.0266
13896W        W29970  11.099  16.767   0.471  0.0368 -0.0226  0.4826
13897W        W29971  16.364  15.853   2.381 -0.0157 -0.0332 -0.1513
13898W        W29972   7.720  17.693   2.701 -0.3059 -0.0420  0.1823
13899W        W29973   9.050  12.487   0.446  0.3024  0.2398 -0.1950
13900W        W29974   4.061   5.621   4.473  0.0680  0.1698  0.0665
13901W        W29975  11.741  18.492  13.427 -0.1824 -0.1884 -0.1923
13902W        W29976  11.353  17.358  12.469  0.1586  0.0199 -0.2325
13903W        W29977   9.693  18.449  12.654  0.0885 -0.1715  0.0342
13904W        W29978   9.410  16.448   3.797 -0.1384 -0.2283 -0.0702
13905W        W29979   1.994  15.616   0.634  0.0885  0.1603  0.1229
13906W        W29980   5.252  11.839  12.760  0.1861  0.0934  0.1248
13907W        W29981   2.208  18.988   0.576 -0.0218 -0.1449 -0.0187
13908W        W29982   5.029   4.097  10.735  0.0364  0.0849 -0.3314
13909W        W29983   6.956   0.136   5.358  0.0307  0.1427 -0.2207
13910W        W29984  15.962  11.434  12.595  0.0774  0.2051 -0.0269
13911W        W29985   9.067   9.948   3.338 -0.0826 -0.0178  0.1193
13912W        W29986   7.464   8.355   3.449  0.0588 -0.0371  0.3485
13913W        W29987   2.757   5.575   3.778  0.3354  0.0872 -0.0373
13914W        W29988  13.601  11.357   5.426  0.1226 -0.3276  0.1725
13915W        W29989   5.194  13.320  10.732 -0.2328  0.1268 -0.4321
13916W        W29990   3.237  13.877  10.602 -0.0624  0.1229  0.0065
13917W        W29991   2.920  10.823  10.324 -0.1413  0.0428 -0.0935
13918W        W29992   6.031   1.192   9.397  0.0608 -0.2171 -0.2811
13919W        W29993   8.058   6.761   0.342  0.2468  0.0720  0.1698
13920W        W29994  10.250   4.237   2.891 -0.3261  0.2826  0.5035
13921W        W29995   5.869  17.315   4.203  0.0970  0.2371  0.3283
13922W        W29996  11.358  16.235  13.772 -0.2625 -0.4697 -0.1475
13923W        W29997   1.828  12.504   4.413  0.1725 -0.1733  0.0233
13924W        W29998  19.286  16.847   2.197 -0.1221  0.0887 -0.0102
13925W        W29999   3.920   2.071   1.762 -0.2000  0.0876 -0.0302
13926W        W30000   6.253  12.131  13.949  0.3233  0.0781  0.1618
13927W        W30001   6.812  10.280   4.201  0.2039 -0.1953 -0.1318
13928W        W30002  16.918   5.451  14.661 -0.1681 -0.0103 -0.2190
13929W        W30003  16.989   0.470  12.306  0.1172 -0.1717 -0.1492
13930W        W30004  16.161  17.478  11.629 -0.2304 -0.0132 -0.2089
13931W        W30005   2.103  13.277  14.916 -0.1061 -0.0546 -0.3348
13932W        W30006   2.148   4.977   5.518  0.0485 -0.0234 -0.4581
13933W        W30007  12.030  14.654   4.089  0.1817  0.0774 -0.3203
13934W        W30008   4.212   7.598  13.065  0.0360  0.0742 -0.0484
13935W        W30009  18.747   4.038   1.605 -0.1861 -0.3956  0.0263
13936W        W30010   6.500   6.035   2.667 -0.0039  0.0444 -0.1238
13937W        W30011  17.336  18.687  14.824  0.1077  0.2706  0.0266
13938W        W30012  18.314  19.237   3.559  0.0863  0.0302  0.2856
13939W        W30013  17.570  10.501   4.358  0.0043  0.1892  0.2154
13940W        W30014  15.944  11.066   0.824  0.0930  0.1640  0.1269
13941W        W30015  17.856  13.445   4.207  0.1745  0.1347 -0.1685
13942W        W30016   3.599   3.264   1.904  0.1718 -0.0696 -0.1490
13943W        W30017   4.286  11.852  10.774 -0.2033 -0.0667 -0.1192
13944W        W30018  16.637   9.442  11.013  0.0764  0.0097 -0.0355
13945W        W30019  10.427   3.593  13.893 -0.3619  0.2375 -0.0277
13946W        W30020   6.162  16.917  11.046  0.1227 -0.1885  0.1395
13947W        W30021   9.582   1.600   2.939  0.1712 -0.1776 -0.0947
13948W        W30022   0.610   2.880   0.125  0.0882 -0.2270  0.0667
13949W        W30023  16.768  11.898  12.050 -0.2304  0.0222  0.0579
13950W        W30024   4.962   3.924  13.142  0.0164 -0.2963  0.0656
13951W        W30025   4.381   2.759   1.093  0.1368  0.2646  0.0023
13952W        W30026   9.789  13.968  12.893 -0.0335  0.1273 -0.1333
13953W        W30027   0.522   9.450   2.805 -0.0398 -0.0724 -0.1989
13954W        W30028   2.664   4.903  11.246 -0.1426 -0.2439  0.1597
13955W        W30029  17.598   8.926   3.083  0.0781  0.3686  0.0526
13956W        W30030   1.872   5.487  12.982 -0.3697  0.1153  0.3125
13957W        W30031   3.536   8.213   4.851 -0.1975 -0.0465  0.0701
13958W        W30032   5.783  10.877   0.000 -0.1819 -0.2413 -0.0610
13959W        W30033  10.113  19.036   5.284  0.2531  0.1585  0.1084
13960W        W30034  18.123  19.223  15.015  0.1328 -0.1366  0.0904
13961W        W30035  16.322  11.426  10.042  0.1367 -0.0651 -0.0699
13962W        W30036   1.732  11.763   2.522  0.0418 -0.1848 -0.1661
13963W        W30037  16.856  14.763  12.783 -0.1659 -0.0879 -0.1510
13964W        W30038   0.257  11.493  14.463 -0.0334 -0.0407  0.0012
13965W        W30039  15.905  10.333   2.393 -0.1664  0.0664 -0.3270
13966W        W30040   5.082   0.320  12.261  0.0839 -0.0859  0.1340
13967W        W30041   4.660  11.294   0.564 -0.2888 -0.2217 -0.0552
13968W        W30042  10.710   4.861   3.570 -0.1501  0.0366 -0.2642
13969W        W30043  12.766   6.142  10.740  0.2040 -0.0388  0.1979
13970W        W30044   0.124   6.113   3.396 -0.2697  0.4373 -0.1902
13971W        W30045  14.098  16.581   2.625  0.2920  0.2213 -0.1807
13972W        W30046  10.993  11.805   3.166  0.0520  0.2608 -0.0285
13973W        W30047  19.068   2.640   0.803 -0.1082  0.2178 -0.3785
13974W        W30048  13.151   5.410   0.124  0.1674 -0.0137 -0.0240
13975W        W30049  18.844  13.548   2.497  0.2269  0.3524 -0.0832
13976W        W30050  13.660   5.445   4.166 -0.1960 -0.2289  0.3177
13977W        W30051   6.300  11.134   0.582 -0.0199 -0.2794 -0.1670
13978W        W30052   3.582   9.488  13.802 -0.3385 -0.0469  0.1216
13979W        W30053   5.293   6.089   4.378  0.0309 -0.1509 -0.0715
13980W        W30054   1.387   5.735  12.865 -0.0476 -0.1210  0.0239
13981W        W30055   4.262  13.660  11.398 -0.2733  0.2603  0.2762
13982W        W30056  18.081   1.846  13.313  0.0745  0.2074 -0.3360
13983W        W30057   7.778  12.639   5.051 -0.0825  0.0584  0.2684
13984W        W30058  11.299   2.109  10.643 -0.0014 -0.0498  0.0843
13985W        W30059   3.836  10.141  11.179  0.0408  0.0634  0.1524
13986W        W30060   4.804   2.377   0.328 -0.2149 -0.0106 -0.2760
13987W        W30061  16.504  13.819   1.697  0.2107  0.1322  0.1447
13988W        W30062  12.417  17.992   4.685 -0.1963 -0.3045  0.0566
13989W        W30063   7.174  14.212  11.320 -0.0186 -0.1571 -0.0107
13990W        W30064  18.470  17.898   3.890  0.1507  0.0160  0.1517
13991W        W30065   5.608  19.186   9.691  0.1594 -0.1413  0.5143
13992W        W30066  16.080  16.701  11.172 -0.1515  0.0338  0.2580
13993W        W30067  14.323   7.536   2.728  0.0357  0.1656  0.3672
13994W        W30068  12.432   4.197  13.948 -0.1317 -0.0323  0.1826
13995W        W30069  13.217   5.609   4.095 -0.1763  0.2823  0.2907
13996W        W30070  17.290   1.183  13.064 -0.6083 -0.1884  0.2569
13997W        W30071   8.517  16.673   3.193 -0.0250 -0.4850 -0.2521
13998W        W30072   8.590  16.966   0.896  0.1046 -0.2665  0.2496
13999W        W30073  13.532  11.217  14.948  0.0297  0.2444  0.1470
14000W        W30074   6.983   1.083   3.920  0.1424 -0.0845  0.1441
14001W        W30075  13.742   2.962   1.698 -0.1031  0.0952 -0.3024
14002W        W30076   6.345   8.123  12.109  0.1328 -0.0246 -0.1165
14003W        W30077  10.807  16.568  10.420  0.2635 -0.1548 -0.0952
14004W        W30078   3.690   8.076   5.885  0.0652 -0.0106  0.0233
14005W        W30079   3.264   9.211  13.326  0.3591 -0.2342 -0.2034
14006W        W30080  13.236   8.616   1.168 -0.2500 -0.0280 -0.0957
14007W        W30081  14.542   1.693  12.163  0.2359  0.3092  0.2064
14008W        W30082  12.475   9.838  14.969 -0.1721  0.0540  0.2432
14009W        W30083   0.920   3.433  12.031 -0.1434  0.0802 -0.1126
14010W        W30084  13.334  18.137  11.799 -0.0757  0.1046  0.2755
14011W        W30085  14.025  16.469   1.851 -0.0244 -0.1825 -0.0595
14012W        W30086   3.897  12.366   2.638  0.1557 -0.0032  0.1097
14013W        W30087   7.333   6.960   1.710 -0.0100 -0.1729 -0.0340
14014W        W30088   6.510  12.112  15.044  0.0289  0.0054 -0.0085
14015W        W30089   6.433   6.456   4.159 -0.3349 -0.3078  0.0450
14016W        W30090   7.443   6.357   4.827  0.1632  0.0126  0.1923
14017W        W30091   5.966   9.207  11.250  0.0485 -0.1509 -0.1659
14018W        W30092   8.881   3.549  13.837 -0.1965  0.2151 -0.2015
14019W        W30093  11.689   0.025  12.762  0.2660  0.0717 -0.0567
14020W        W30094  11.876  12.114   0.117  0.0525  0.1546 -0.2755
14021W        W30095   9.846   9.891  14.571 -0.1462  0.0489  0.3304
14022W        W30096   7.412   6.936  11.466  0.0595 -0.1821  0.0620
14023W        W30097   3.430  15.524  12.983 -0.1208  0.1224  0.1314
14024W        W30098  10.459  18.515  13.310  0.0384  0.0755  0.3435
14025W        W30099  13.366   0.864   2.870 -0.2328  0.2699 -0.0172
14026W        W30100   2.741   7.643   5.604 -0.2054 -0.0098 -0.1446
14027W        W30101   9.543   6.299  11.814  0.3019  0.0125 -0.4372
14028W        W30102  11.491   1.026   3.412 -0.1189 -0.0404  0.0608
14029W        W30103  16.188   5.292   3.842  0.2022 -0.0151  0.1009
14030W        W30104  14.301  17.062   2.081 -0.0282 -0.3907  0.0383
14031W        W30105   2.690  12.406   5.112 -0.1953 -0.1882  0.1412
14032W        W30106  10.064   8.561   1.871  0.1743  0.0577  0.0483
14033W        W30107  15.599   5.039  13.290 -0.0309  0.2212 -0.1298
14034W        W30108   6.137  12.452  14.844 -0.1370 -0.0122  0.1449
14035W        W30109  10.942   1.191   5.137 -0.1769  0.0082 -0.1965
14036W        W30110   0.792  17.028  13.277 -0.2977  0.2066  0.0655
14037W        W30111  16.332  17.675  10.564  0.1769 -0.0496  0.0354
14038W        W30112  13.161   6.881  11.949 -0.0205  0.0785  0.0885
14039W        W30113   0.576   9.525  14.149 -0.1004  0.0136 -0.1051
14040W        W30114  15.260   0.997   1.611 -0.0774 -0.0106  0.0319
14041W        W30115  18.065  19.039   9.809 -0.1923  0.0524 -0.2488
14042W        W30116   4.890  15.828  13.455 -0.0368 -0.0921  0.0727
14043W        W30117  13.655  10.986  12.060  0.2138 -0.0725  0.1776
14044W        W30118   2.889   3.925   3.260  0.5658  0.0493  0.2544
14045W        W30119  17.631  11.986   0.776  0.2930 -0.0881 -0.2961
14046W        W30120   0.241   4.187  11.117  0.1728 -0.0027  0.0787
14047W        W30121   9.759   6.735  10.731 -0.1100 -0.2515  0.1757
14048W        W30122   0.134   3.033   4.228  0.1121  0.1075 -0.1295
14049W        W30123   7.527   1.452  14.394  0.0225  0.0211 -0.0922
14050W        W30124  18.505  13.957  12.111 -0.2036  0.0093 -0.0319
14051W        W30125  17.294  10.817  11.687 -0.1273 -0.0349  0.1729
14052W        W30126   7.723   2.391  12.409 -0.1034 -0.1501 -0.0022
14053W        W30127   7.757   6.222   3.373 -0.0046 -0.0621  0.0766
14054W        W30128   3.041  13.395  11.006 -0.0843  0.2325  0.4697
14055W        W30129   5.855  12.573  13.928 -0.0520 -0.1080  0.0334
14056W        W30130  17.004   3.291   2.565  0.0458 -0.1124  0.1587
14057W        W30131  14.004  13.931  11.389 -0.0266 -0.2716  0.2490
14058W        W30132   3.717  10.110   5.028 -0.3017 -0.0458 -0.5287
14059W        W30133  11.857   5.992   0.754 -0.0959 -0.2395  0.1913
14060W        W30134   0.930  17.093   3.255 -0.0034 -0.1542  0.1319
14061W        W30135  14.515  16.739   3.547  0.2250 -0.3152  0.0927
14062W        W30136   3.268  13.875  11.164  0.0333  0.2301 -0.0427
14063W        W30137  18.090   1.506   3.542 -0.1617 -0.1244 -0.0005
14064W        W30138  15.202  16.634  10.733 -0.0022  0.2763  0.2995
14065W        W30139  18.781   8.746  12.366 -0.0766 -0.2444 -0.2485
14066W        W30140  17.309  13.439   2.866  0.1956 -0.2626  0.2377
14067W        W30141   1.839  14.716  11.961  0.2127  0.0116  0.1105
14068W        W30142  17.108  13.313   0.431  0.0937 -0.2337  0.2032
14069W        W30143   3.066  15.532   2.256  0.1345  0.1397  0.0304
14070W        W30144  16.498  15.849  14.900  0.2513 -0.0152  0.2670
14071W        W30145   4.264  10.759  10.637 -0.1316  0.2350  0.0292
14072W        W30146   5.366  11.061  11.021 -0.0129  0.0774  0.4946
14073W        W30147   4.015  12.629   0.573 -0.1652  0.0029  0.0447
14074W        W30148   4.787  14.142   0.871  0.1231  0.1112 -0.0427
14075W        W30149   2.867   8.680  13.010  0.0028 -0.4040 -0.1656
14076W        W30150  10.408  18.871  14.178  0.5312 -0.0508 -0.3036
14077W        W30151  13.561   4.674  13.629  0.0249  0.2907 -0.2526
14078W        W30152   5.661  15.098   4.855 -0.1023 -0.0546  0.1220
14079W        W30153  19.094  10.610  10.132 -0.3221  0.1889  0.0012
14080W        W30154   3.879  16.114   5.423 -0.0936  0.1569  0.1736
14081W        W30155   5.070   1.616   2.182 -0.2192  0.1992 -0.2563
14082W        W30156  19.101   8.043  13.887  0.2615  0.2502  0.2199
14083W        W30157   9.194   7.231   4.156 -0.2596 -0.0671 -0.0613
14084W        W30158  16.753  12.486   4.101 -0.1956  0.0019  0.0854
14085W        W30159   0.616  15.020  12.699  0.4599 -0.0885 -0.1513
14086W        W30160  16.577  11.630   3.725 -0.2185 -0.0164  0.0621
14087W        W30161   3.332  11.723   1.409  0.0522  0.1471 -0.2278
14088W        W30162   7.707   4.287  11.085 -0.0421  0.0740 -0.0491
14089W        W30163  13.093   1.975   3.960  0.1175 -0.0419  0.0509
14090W        W30164  13.943   4.511   2.714 -0.2192  0.0569  0.2438
14091W        W30165   5.105  11.080   4.059 -0.2206  0.2420  0.1835
14092W        W30166  14.578   3.065  12.579  0.1682 -0.0853  0.3638
14093W        W30167   7.405   1.380   0.698  0.3387  0.3360 -0.0502
14094W        W30168   8.585  19.024  12.609 -0.2678  0.0758  0.3355
14095W        W30169  18.181   8.582   1.683  0.1381  0.1462 -0.2145
14096W        W30170   4.908  13.492  11.176 -0.0094  0.2193 -0.1625
14097W        W30171   5.685   9.031  13.829 -0.1401  0.2636 -0.1710
14098W        W30172  12.519  18.119   2.047 -0.1075 -0.1658 -0.0391
14099W        W30173  15.914   4.690  14.899  0.0272  0.1582 -0.1221
14100W        W30174  18.514   7.814   1.710  0.2161 -0.0576 -0.1919
14101W        W30175  13.646  14.655  14.040 -0.1603  0.0071  0.1970
14102W        W30176   5.904  16.273   4.322  0.1254 -0.2584 -0.0096
14103W        W30177   1.466  15.840  14.998 -0.2433 -0.0129 -0.2090
14104W        W30178  12.138  17.872  14.472  0.0174 -0.1029 -0.0712
14105W        W30179  11.307   9.720  14.093 -0.4574 -0.2079 -0.0178
14106W        W30180  18.402   2.261  14.382  0.0983  0.1618  0.0940
14107W        W30181  17.441   1.262   3.961  0.4625  0.1689 -0.2608
14108W        W30182   4.700   5.866  13.631 -0.2425  0.0492 -0.1517
14109W        W30183   1.923  14.175  13.020 -0.1747  0.1990  0.1374
14110W        W30184   7.614  10.947   3.487 -0.3494 -0.0503  0.3016
14111W        W30185   1.625  13.027  15.003  0.2611 -0.2333  0.2003
14112W        W30186   0.678  10.825   4.548  0.3011  0.2629  0.0668
14113W        W30187  16.400   5.223   3.345 -0.0963  0.0419 -0.1210
14114W        W30188  13.236   8.550   4.567  0.0729 -0.0668  0.0370
14115W        W30189  18.449  18.825   0.954  0.0741 -0.0952 -0.0740
14116W        W30190   6.760   9.826   5.250 -0.2339  0.0450 -0.1131
14117W        W30191   4.793  14.006   4.275 -0.0936  0.0711 -0.0078
14118W        W30192   6.535  15.449  14.290  0.1038  0.0565 -0.0897
14119W        W30193  12.032   8.395   3.393  0.0040  0.0531 -0.0732
14120W        W30194   3.460  14.317   0.376 -0.0654  0.3914 -0.3775
14121W        W30195   1.923  12.466  13.204  0.0891  0.1064 -0.1810
14122W        W30196   1.949   2.511   2.773  0.1836 -0.2195 -0.0018
14123W        W30197   5.194  18.728  12.410 -0.2058 -0.0384  0.1195
14124W        W30198  18.135  17.425  13.207 -0.1154 -0.1790 -0.1344
14125W        W30199  15.740  14.483   9.904  0.0265  0.1524 -0.0350
14126W        W30200   8.071   2.787   4.946 -0.1115  0.2652 -0.1820
14127W        W30201  10.026   0.417  12.120 -0.2481 -0.2773  0.0353
14128W        W30202  13.299  12.578  13.216  0.2823 -0.1247 -0.0451
14129W        W30203  12.181  17.476  14.214 -0.2740 -0.1318  0.1217
14130W        W30204   9.984  17.487  10.982  0.0862 -0.0784 -0.3332
14131W        W30205   3.098   9.071   5.048  0.1045 -0.0024 -0.0957
14132W        W30206  16.083  15.816   0.924 -0.0274 -0.2505 -0.3551
14133W        W30207   8.969   8.304   0.529  0.0563  0.0560  0.1766
14134W        W30208   1.209  12.580  13.157  0.4516  0.1230 -0.0857
14135W        W30209   1.972  14.413  13.840 -0.1951  0.0255  0.4410
14136W        W30210   8.939   0.792   3.771  0.0093  0.0327 -0.0019
14137W        W30211   3.443  12.025   3.214  0.0706  0.2517 -0.0146
14138W        W30212   4.190  17.470   0.158 -0.3215  0.3035  0.0675
14139W        W30213  13.135  17.523  14.057 -0.3050 -0.1363 -0.1935
14140W        W30214  11.666  15.268  12.919  0.2264 -0.2148  0.1437
14141W        W30215  17.055   1.067   1.578 -0.1045  0.0182 -0.3407
14142W        W30216   3.566  15.810   0.518 -0.0410 -0.0703  0.0985
14143W        W30217   0.646   2.888   3.650 -0.0936  0.1376 -0.0142
14144W        W30218  14.218  10.982  10.851  0.1567  0.0116  0.1431
14145W        W30219  12.124  14.218   4.564  0.1156 -0.1965  0.0721
14146W        W30220  17.578  17.055   3.535 -0.3911  0.0984  0.0290
14147W        W30221  16.619   2.355   0.590  0.1395  0.1028  0.3741
14148W        W30222  13.348   0.808  12.419  0.0646 -0.2910  0.2943
14149W        W30223   2.474  13.502  12.189  0.3923 -0.6482 -0.2076
14150W        W30224  12.049  12.596   0.487 -0.1661  0.0205 -0.0763
14151W        W30225  16.069  17.790   0.126 -0.0233 -0.0251  0.1625
14152W        W30226   7.625  11.396   4.963  0.0299  0.0775 -0.1938
14153W        W30227   6.026   5.679  12.905 -0.3956  0.0849 -0.1929
14154W        W30228   7.542  15.089  11.032 -0.4391 -0.0498  0.1180
14155W        W30229  15.522  18.688   4.925 -0.3462 -0.1230  0.0756
14156W        W30230  14.180  18.066   0.971  0.1723 -0.0964 -0.0791
14157W        W30231   5.084  13.860  10.866  0.1166 -0.0747 -0.0735
14158W        W30232  14.127   8.572   1.784 -0.1061  0.0063 -0.0016
14159W        W30233  14.896  16.247  11.066  0.1029 -0.1194 -0.0654
14160W        W30234   4.047  11.910   2.573 -0.3211 -0.1953 -0.0227
14161W        W30235  10.632   5.118   2.212  0.2905 -0.4036 -0.0672
14162W        W30236  15.722  17.592   1.376 -0.1851  0.1125 -0.1295
14163W        W30237   7.490  17.696  13.708  0.1178  0.1572 -0.0934
14164W        W30238  15.776  14.380  14.329 -0.2787 -0.0150  0.1467
14165W        W30239  10.811  16.304   0.429  0.2219 -0.1082 -0.0413
14166W        W30240  17.912  14.228   9.102 -0.0835 -0.1865 -0.1226
14167W        W30241   5.488   3.488  12.833 -0.0973 -0.3290 -0.1883
14168W        W30242   4.923  10.616   3.814 -0.1034  0.3543  0.2278
14169W        W30243  10.608  15.229  12.624  0.0695 -0.1398 -0.1716
14170W        W30244   9.922  14.553   0.165  0.2728  0.1062  0.1203
14171W        W30245   7.579  15.126  13.040 -0.1638 -0.1529 -0.1364
14172W        W30246  16.540   0.896  11.151 -0.1243  0.4204  0.1225
14173W        W30247   0.326   8.635   3.085  0.1869 -0.3140 -0.1153
14174W        W30248  17.745  18.595  11.229 -0.0342 -0.0955 -0.0847
14175W        W30249   1.184   5.515  13.390 -0.2017 -0.0995  0.0018
14176W        W30250  10.895  10.382   4.803 -0.1470 -0.1500 -0.0629
14177W        W30251  15.417  17.782   3.714 -0.0458  0.1501 -0.3739
14178W        W30252  10.880   5.432  14.338 -0.2411 -0.0898 -0.4316
14179W        W30253   3.029   7.860  14.358 -0.3510 -0.2088 -0.3384
14180W        W30254   0.618   8.924  11.124 -0.0596 -0.2103 -0.0306
14181W        W30255   6.551   8.453  13.650 -0.0102  0.1093  0.0575
14182W        W30256  15.273   3.820   4.440  0.0587  0.1497 -0.2866
14183W        W30257   2.248   3.291   0.713 -0.0971  0.0488 -0.2335
14184W        W30258   7.669   0.659  12.420 -0.0232  0.0073  0.1153
14185W        W30259  14.087   2.642   2.483 -0.1430  0.1308 -0.2483
14186W        W30260   3.031  16.463   4.127  0.0238  0.0117 -0.0071
14187W        W30261   5.647  19.298  13.845 -0.1925  0.1008 -0.0870
14188W        W30262   4.092   3.256  14.331  0.1902 -0.0615 -0.0876
14189W        W30263   1.989   5.641   4.441  0.3182  0.0207  0.2465
14190W        W30264   2.820  15.284   3.856 -0.0633 -0.0574 -0.1432
14191W        W30265  17.869   7.022   2.299  0.1629 -0.0854 -0.1864
14192W        W30266  10.004   4.290  13.330 -0.2080 -0.1509  0.3515
14193W        W30267   9.193  14.759  13.586 -0.0538 -0.0186  0.0629
14194W        W30268   0.151   6.707  14.888 -0.0728  0.2051  0.0912
14195W        W30269  13.607  10.300   4.204 -0.2096 -0.3353 -0.0183
14196W        W30270  11.984   4.994  14.915  0.1014 -0.0982 -0.1610
14197W        W30271  17.426  11.451  13.298 -0.2125 -0.0385  0.3025
14198W        W30272   8.078   8.808   1.562 -0.0610 -0.1904  0.3291
14199W        W30273   1.878   4.785   1.600 -0.0731 -0.0222 -0.1216
14200W        W30274  12.543  19.108   2.446  0.2117  0.0914  0.0180
14201W        W30275  15.827   4.209   2.191  0.4972 -0.0381 -0.0530
14202W        W30276   7.507   4.193   3.437 -0.1016  0.2795  0.1452
14203W        W30277  10.882  12.292  10.701  0.1551  0.0214  0.0039
14204W        W30278   7.751   9.293   5.464  0.4872 -0.0289 -0.1533
14205W        W30279  19.070  15.574   5.404 -0.1629  0.2929 -0.0367
14206W        W30280  12.918  11.848   3.847 -0.2288  0.0719  0.3604
14207W        W30281  14.078   2.507  12.034 -0.0885 -0.0119 -0.0476
14208W        W30282   9.850   8.782  14.777  0.2937 -0.6317  0.0846
14209W        W30283   0.643  10.853   3.750 -0.1448 -0.1918  0.0163
14210W        W30284  12.000   1.426   4.211 -0.1962 -0.0558 -0.1021
14211W        W30285   4.739   3.085   3.582 -0.0165  0.0889 -0.0091
14212W        W30286  18.849   3.138   4.859 -0.2501  0.4094 -0.2150
14213W        W30287   7.594  15.150  14.014  0.2069  0.3227 -0.1708
14214W        W30288   4.304   9.179   1.463 -0.2755 -0.1115  0.1097
14215W        W30289  14.432  14.461   3.214  0.2507 -0.0602 -0.0364
14216W        W30290  16.220  10.510  11.577  0.0681 -0.0030  0.2226
14217W        W30291  10.671   2.468   0.299  0.3035 -0.0072  0.3128
14218W        W30292   3.174  16.381   1.203 -0.1472 -0.2372  0.1393
14219W        W30293   0.558  18.466   0.250 -0.0224  0.0236  0.2130
14220W        W30294   3.558  12.371   1.846 -0.0483 -0.3657 -0.0701
14221W        W30295   6.319   5.164   0.762  0.0012 -0.2027 -0.1320
14222W        W30296  13.565  11.912  14.186 -0.2040  0.1204 -0.1010
14223W        W30297   4.402   4.831  14.536  0.1331  0.0770 -0.0976
14224W        W30298   1.926   2.355   5.522  0.0623  0.1030  0.1241
14225W        W30299   5.523   3.513   2.663  0.0320 -0.3002  0.1786
14226W        W30300  11.430   5.138   1.161 -0.1451 -0.0608 -0.0252
14227W        W30301   9.259   4.443  13.260  0.0442  0.2318 -0.0319
14228W        W30302  12.797  11.696  14.068  0.0915 -0.0211 -0.1871
14229W        W30303  14.224  13.607   2.722 -0.0334  0.0811  0.1700
14230W        W30304   4.267   1.097  14.016  0.0665  0.0869  0.1733
14231W        W30305  14.028  16.344  15.040  0.4204 -0.1445 -0.0895
14232W        W30306  10.383   4.029   3.882 -0.1710 -0.0520  0.0867
14233W        W30307  14.021  10.550   5.157 -0.1810  0.0286 -0.0426
14234W        W30308   8.104  11.385   4.755 -0.1672  0.1914 -0.1561
14235W        W30309   7.439   2.651  13.541 -0.1038 -0.2706 -0.1949
14236W        W30310  17.298  16.074  14.428  0.2395  0.2840 -0.1985
14237W        W30311  10.575  11.833   0.283 -0.1143  0.3265  0.2511
14238W        W30312  15.286   1.358   4.693  0.0614  0.1407 -0.2630
14239W        W30313  13.534  10.956   1.825  0.2429 -0.0747 -0.1117
14240W        W30314   5.771   9.621  14.697 -0.1198 -0.0321 -0.0149
14241W        W30315   8.290   4.897  14.876 -0.2911 -0.2936 -0.1047
14242W        W30316   8.686   2.431   0.413 -0.1297 -0.0984  0.3492
14243W        W30317   1.239  17.179  12.888 -0.0853  0.1835  0.2434
14244W        W30318   5.303   2.976  13.528 -0.4856 -0.2355 -0.4056
14245W        W30319  11.964   6.878  13.623 -0.0469 -0.0236 -0.3295
14246W        W30320   2.935   3.192  14.057 -0.1768  0.0423  0.0049
14247W        W30321   8.769  16.581  11.327 -0.0317 -0.2241 -0.0838
14248W        W30322  11.168   0.679   0.319  0.3959 -0.2907 -0.2101
14249W        W30323   8.603  15.276   3.872  0.2540  0.2846 -0.1019
14250W        W30324  16.925   6.216  12.549 -0.1778  0.2721 -0.0996
14251W        W30325   4.911   4.132  11.266 -0.0229  0.0289  0.0367
14252W        W30326  12.330  13.309  12.802  0.2690  0.3787 -0.1790
14253W        W30327   0.282  18.705   4.283  0.1821 -0.2106  0.0932
14254W        W30328  15.872  13.162  12.155 -0.0478  0.0477  0.1178
14255W        W30329   2.273   0.230   2.549  0.0907 -0.0784 -0.2379
14256W        W30330  17.234  10.529  10.171  0.1843  0.0326 -0.2340
14257W        W30331  12.226   5.971   9.717 -0.1596  0.1300 -0.0533
14258W        W30332   1.887   4.543   5.790  0.1839 -0.0737  0.1894
14259W        W30333   6.474  17.770  10.383  0.1141 -0.1475  0.0472
14260W        W30334   2.690  16.658   4.695  0.2234 -0.0329 -0.1144
14261W        W30335   7.344   1.765   6.068  0.0516 -0.1718  0.0001
14262W        W30336   8.039   1.294   0.998 -0.1315  0.3270 -0.3363
14263W        W30337  15.333  19.190   2.363  0.1645 -0.0676 -0.0303
14264W        W30338   6.886   2.072   0.585 -0.0904 -0.1066  0.3351
14265W        W30339  14.286  11.396   2.345  0.2355 -0.3643  0.1935
14266W        W30340   9.963  13.159  14.383  0.2319  0.1102  0.0693
14267W        W30341   4.878   5.025  14.594  0.0599  0.2923 -0.0539
14268W        W30342  16.402   7.697   3.203 -0.2668 -0.3431  0.2192
14269W        W30343  12.923  16.159  13.403  0.4795 -0.3631  0.0555
14270W        W30344  12.536   1.408  13.199 -0.0324 -0.1670  0.0191
14271W        W30345   2.718   6.293   0.204 -0.0503  0.0132 -0.1605
14272W        W30346  14.421   3.496  15.027  0.0222  0.1598  0.1398
14273W        W30347  11.780  17.459  10.597 -0.0294  0.2239  0.1393
14274W        W30348   3.351  10.829   1.550 -0.3013 -0.2518 -0.1036
14275W        W30349   4.951   2.862  14.765  0.0141 -0.1316  0.0194
14276W        W30350   3.686   1.740   0.446  0.0497 -0.0828 -0.3252
14277W        W30351  10.033   0.048   1.087  0.0362  0.3354  0.0826
14278W        W30352  13.049   7.457   3.267 -0.1703  0.1140  0.0243
14279W        W30353  13.321  14.622  10.380 -0.4176 -0.2814  0.1185
14280W        W30354  12.081   0.053  13.362 -0.0007 -0.1581 -0.1161
14281W        W30355   7.805   3.716   3.773 -0.1255  0.2304  0.2385
14282W        W30356  11.063   2.324   0.594 -0.3082 -0.4140 -0.0951
14283W        W30357   6.645  10.488  12.165  0.0676 -0.1494  0.1013
14284W        W30358   5.773   2.034  12.175  0.1393 -0.1166  0.1165
14285W        W30359   8.786  15.670  13.556  0.0107 -0.0039 -0.1168
14286W        W30360   6.405  13.852  10.727  0.0471  0.2582  0.1829
14287W        W30361   5.148   6.584   0.109  0.1534  0.0116  0.5753
14288W        W30362   2.147  11.071  13.145 -0.0978  0.1012 -0.0680
14289W        W30363  17.886   9.700   1.363 -0.0972  0.1049 -0.0153
14290W        W30364  14.629   2.395   0.719 -0.2684  0.0335 -0.1164
14291W        W30365   1.467  14.507   2.079 -0.0912 -0.0277 -0.1980
14292W        W30366  13.868   4.600  11.009 -0.3072 -0.4009 -0.1713
14293W        W30367   2.325  17.394  14.635  0.3392 -0.0021  0.0002
14294W        W30368   3.272   3.227   4.422  0.1956  0.5188  0.0601
14295W        W30369  10.866   6.660   1.067  0.1563  0.0436  0.2627
14296W        W30370   4.334  14.556  13.155 -0.0703  0.3918 -0.2088
14297W        W30371   6.201   6.205  12.864  0.0448  0.1437  0.1275
14298W        W30372  11.502   7.350   4.006 -0.0744  0.1494 -0.4009
14299W        W30373  12.763  13.611  12.175  0.0293  0.0809  0.1570
14300W        W30374   1.454   4.106  12.866  0.1632  0.0495 -0.3947
14301W        W30375   9.873   7.439  14.482  0.1959  0.1490 -0.0273
14302W        W30376   6.387  15.836  13.088  0.0564 -0.1287  0.2157
14303W        W30377   1.582   5.839  13.312 -0.0031  0.1204 -0.0118
14304W        W30378  16.462   6.781  11.254 -0.1281  0.3112 -0.2713
14305W        W30379   8.583  12.369   0.341  0.0631  0.0752 -0.0115
14306W        W30380   2.927   0.920   3.031 -0.1648  0.1663  0.0516
14307W        W30381  15.390  13.289  14.051  0.1183 -0.2612 -0.1479
14308W        W30382  11.637  12.622   5.672  0.0340 -0.0707  0.1390
14309W        W30383   6.451   9.584   1.662 -0.0334 -0.0739  0.0930
14310W        W30384   2.351  11.145  11.082 -0.1603  0.3192 -0.0719
14311W        W30385   5.869   5.057   3.583  0.0589  0.0509  0.0601
14312W        W30386  18.310  14.405  12.435 -0.0211 -0.1560 -0.0026
14313W        W30387  15.488  13.681  12.824 -0.1645 -0.5143 -0.0828
14314W        W30388   3.806   2.065   4.185 -0.2855 -0.3144  0.0669
14315W        W30389  13.246  13.433   5.423 -0.1298 -0.2417  0.4058
14316W        W30390  19.210  12.038   5.146 -0.2419 -0.1410  0.2843
14317W        W30391   0.497  11.631   1.774  0.0815 -0.1534  0.0045
14318W        W30392  18.873  10.700  12.925 -0.1084 -0.3282  0.0897
14319W        W30393  12.384   7.235  13.613  0.0427  0.0905  0.1592
14320W        W30394  12.140  15.757   1.813  0.0406  0.4124  0.0313
14321W        W30395   7.798   7.159  11.144 -0.1368 -0.0259  0.0992
14322W        W30396  11.673   4.459  11.137 -0.0229 -0.0786 -0.3606
14323W        W30397  18.509  15.121   1.303 -0.0816  0.1163  0.0524
14324W        W30398  18.030  13.612  14.264  0.1873  0.2400 -0.1976
14325W        W30399  10.441  10.063  11.262 -0.0086 -0.1832  0.1357
14326W        W30400  15.533   4.917  14.314  0.0115 -0.1801  0.1750
14327W        W30401   1.619   8.617   0.708 -0.0459  0.3628 -0.0446
14328W        W30402  10.531  17.135   2.875 -0.3837 -0.1334 -0.1187
14329W        W30403  18.133  18.519   1.941 -0.0652  0.4669  0.1365
14330W        W30404   9.541  15.594   2.350 -0.0077 -0.3208 -0.0867
14331W        W30405   1.873   3.821   4.427 -0.1382 -0.0310  0.2137
14332W        W30406  11.433   9.620   4.888 -0.1491 -0.2727  0.0891
14333W        W30407  12.286  16.269   1.769  0.1607 -0.1550  0.2792
14334W        W30408   3.893  12.936  12.604  0.1150 -0.2485 -0.0107
14335W        W30409  13.933  17.328  11.436 -0.2910  0.1246 -0.2571
14336W        W30410   2.443  17.773  13.253 -0.2689  0.0855 -0.0428
14337W        W30411   6.364  13.456  10.501 -0.3876  0.1135 -0.1016
14338W        W30412  11.781  12.071  10.470  0.1179  0.1589  0.0718
14339W        W30413  19.172   0.424  13.331 -0.0430 -0.2318 -0.1644
14340W        W30414  17.789   0.966  10.893  0.2387 -0.0017  0.1491
14341W        W30415   2.185   1.167   5.863 -0.3345 -0.0599 -0.0868
14342W        W30416  13.281   4.441   4.035  0.1924 -0.0030  0.1350
14343W        W30417   9.827  12.265   2.139 -0.0828  0.2891 -0.0382
14344W        W30418   0.305  18.728  11.244  0.2379 -0.0905 -0.1698
14345W        W30419   8.088  13.417   1.516  0.0925 -0.2422 -0.2650
14346W        W30420  15.742  19.196  10.752 -0.1807 -0.2817  0.1924
14347W        W30421   4.008  12.329  14.014 -0.2195  0.0494 -0.0824
14348W        W30422  13.203  11.372  13.036 -0.1641  0.2323 -0.0059
14349W        W30423  15.044   7.188   3.662  0.0622  0.2691  0.1861
14350W        W30424   9.645   6.270   4.254 -0.1212 -0.0316 -0.3502
14351W        W30425   1.367  17.178   0.549  0.0259  0.2298 -0.0922
14352W        W30426   1.306  14.516   2.638 -0.0384 -0.0372 -0.2527
14353W        W30427   5.879  10.874   2.705  0.1968  0.2554  0.3785
14354W        W30428   4.520  11.236  14.610 -0.1296  0.0059 -0.1036
14355W        W30429   9.548   9.165   5.415  0.1253  0.2491 -0.0730
14356W        W30430  18.122   2.078  10.775  0.1687  0.0202  0.0547
14357W        W30431   2.230  10.350  14.558  0.1173 -0.0575 -0.0378
14358W        W30432  14.138  17.445   4.839  0.3795 -0.1067 -0.2187
14359W        W30433   9.072   0.365  13.389  0.0832  0.0509 -0.0161
14360W        W30434  11.404  12.368  10.658  0.3433 -0.0835 -0.1209
14361W        W30435   5.523  17.867   0.990 -0.0873  0.1184 -0.0020
14362W        W30436   9.167  16.188  14.455  0.1027 -0.0818 -0.0987
14363W        W30437   3.096  10.156  14.164 -0.1718 -0.1739  0.4303
14364W        W30438   6.997   2.233   4.311  0.0760  0.1798 -0.3462
14365W        W30439   0.471   4.676   2.369 -0.0607 -0.0240  0.0179
14366W        W30440  17.282  11.527   0.762 -0.3847  0.0083  0.2306
14367W        W30441   6.561  10.546  14.674 -0.0549 -0.3733  0.1751
14368W        W30442   5.312  12.967   3.184 -0.1802 -0.6652  0.2757
14369W        W30443  10.755   1.120  12.747 -0.3106 -0.0654 -0.1144
14370W        W30444   0.750  12.816  12.985  0.0241  0.1792 -0.1970
14371W        W30445   4.739  11.677  14.923  0.2768 -0.0534 -0.0352
14372W        W30446   8.243  15.670  11.111 -0.0312 -0.0656 -0.0530
14373W        W30447  10.427  14.020  11.895  0.1146 -0.0811 -0.0647
14374W        W30448   5.596   1.431   0.218 -0.0659  0.1086  0.1589
14375W        W30449   0.830  13.626   1.181 -0.0975 -0.3708 -0.1531
14376W        W30450   4.507   1.781   0.443  0.1493  0.2797 -0.1028
14377W        W30451  13.976   1.059   1.798  0.0432  0.1903  0.0258
14378W        W30452  19.162   6.216   2.760  0.2306 -0.0718  0.0999
14379W        W30453   1.836  16.258   0.686  0.1071 -0.1236 -0.1240
14380W        W30454   0.908  11.373  12.983 -0.0164 -0.3843  0.0044
14381W        W30455  18.941   8.973  13.515 -0.0584  0.1484 -0.1449
14382W        W30456   5.329  17.986   0.445  0.1357 -0.0229  0.2865
14383W        W30457  12.985   4.782  14.413  0.0949  0.0503 -0.1253
14384W        W30458  12.964  17.607  12.562  0.1530 -0.2930 -0.1033
14385W        W30459  17.387   2.538  11.148 -0.0023 -0.0076  0.0402
14386W        W30460  10.402   6.811   3.407 -0.0127 -0.0785  0.0733
14387W        W30461   8.224   1.040   3.207  0.0666 -0.1529 -0.2903
14388W        W30462   3.486  13.630  13.780  0.1017 -0.4525  0.2480
14389W        W30463  10.408  14.083  10.482  0.1474 -0.0319 -0.2057
14390W        W30464   1.384  13.486   4.225 -0.0605  0.0486 -0.0032
14391W        W30465   3.918  12.033  13.003 -0.3897  0.0250  0.3146
14392W        W30466   0.256   0.374  11.086  0.1812 -0.0242  0.0227
14393W        W30467   0.162  16.435  14.233  0.0910 -0.1166 -0.0077
14394W        W30468  15.888  17.830   0.573 -0.1173  0.0262 -0.3471
14395W        W30469  15.919   2.667  10.160  0.1192  0.2004  0.0067
14396W        W30470   9.223   6.438   2.829 -0.0942  0.1154 -0.0791
14397W        W30471  13.641  10.544  13.237  0.4086  0.0656  0.2279
14398W        W30472   9.977   9.127  12.308  0.1841 -0.0974  0.1646
14399W        W30473   3.716  12.340   3.557  0.1244  0.0263  0.4365
14400W        W30474   3.341   8.436  13.866 -0.3874 -0.2955 -0.1623
14401W        W30475  11.977  18.627   3.813  0.2709  0.0646 -0.1593
14402W        W30476  13.305   8.844   0.008  0.0264 -0.5575  0.2504
14403W        W30477  11.023   7.884  10.897 -0.2841  0.0387  0.1652
14404W        W30478  13.457   2.624  12.415 -0.1709  0.2735 -0.1560
14405W        W30479  14.079  11.080  13.985 -0.0404 -0.0058 -0.0378
14406W        W30480   6.808  16.421  14.440  0.1545  0.2141  0.0388
14407W        W30481   5.147   6.310  12.214  0.1919  0.2869 -0.2027
14408W        W30482   2.614   6.785  13.113 -0.1618 -0.1698 -0.0308
14409W        W30483  10.926  17.528  12.280  0.0257  0.1016 -0.1668
14410W        W30484  18.339  11.597  11.188 -0.2879 -0.0056 -0.0133
14411W        W30485  16.969   3.488   1.528 -0.2156 -0.1251  0.5392
14412W        W30486   3.931   1.112   1.527  0.0525  0.0389  0.4217
14413W        W30487   7.389   1.981   5.429 -0.2178 -0.0005 -0.3586
14414W        W30488   4.693   4.904  13.123  0.0249 -0.1202  0.1133
14415W        W30489  11.979  11.450  14.493  0.1609 -0.1680 -0.0697
14416W        W30490   4.744  16.496  13.544 -0.0423 -0.0636  0.2486
14417W        W30491  13.040  18.481  14.612  0.0825  0.1105 -0.2083
14418W        W30492   8.593  13.200   3.092  0.0966 -0.0911 -0.0574
14419W        W30493   1.633  18.849   1.777 -0.1734 -0.3143  0.2398
14420W        W30494  13.081   2.795   1.016  0.0479  0.2870 -0.0482
14421W        W30495   8.685   7.143   0.978  0.2950  0.0169 -0.0117
14422W        W30496   6.279  18.295   4.052  0.0400  0.3110 -0.3595
14423W        W30497  15.422   3.484  12.633  0.1436 -0.0783  0.1443
14424W        W30498   6.057   4.769   0.385  0.1368  0.2150  0.1463
14425W        W30499   6.090  14.822   4.699 -0.0836  0.0053  0.0989
14426W        W30500  14.943   7.760   2.220 -0.0290 -0.0022 -0.2193
14427W        W30501   9.276   7.053   3.462 -0.3309  0.4822  0.2974
14428W        W30502   6.644  18.850  13.314  0.4179  0.0956  0.2122
14429W        W30503   9.451  14.863  11.819 -0.2423  0.0488 -0.1812
14430W        W30504   8.613   9.540  14.360  0.3605 -0.1431 -0.1420
14431W        W30505  12.653  12.977   2.416  0.0792  0.0384  0.0722
14432W        W30506  17.481  13.809   2.518 -0.4165  0.3744 -0.4367
14433W        W30507  11.767  10.885   1.594 -0.0611  0.0036  0.0846
14434W        W30508   8.773  12.746  13.160 -0.0904 -0.4971 -0.2377
14435W        W30509   2.642  17.758   0.356 -0.1065  0.0983 -0.2449
14436W        W30510   2.499  15.739   4.903  0.2135  0.0018  0.2134
14437W        W30511   6.769   7.775  10.159  0.1929 -0.1267  0.0118
14438W        W30512  12.025  15.152  11.778  0.0469  0.1943 -0.1401
14439W        W30513  10.092   7.824  11.865  0.0630  0.3385 -0.0212
14440W        W30514   9.388  15.599  13.371 -0.1220 -0.3556  0.3310
14441W        W30515  16.917   6.937   1.722 -0.0470 -0.0186 -0.2107
14442W        W30516   9.710   1.057   0.129 -0.1034 -0.1839 -0.0407
14443W        W30517  15.268  17.589   4.177  0.1928 -0.3549  0.0062
14444W        W30518  19.176  12.683   0.798  0.2526 -0.1028 -0.1740
14445W        W30519   3.886   9.552   3.307  0.0391 -0.0416 -0.0703
14446W        W30520  17.384  13.750  10.217 -0.2818 -0.0126 -0.3823
14447W        W30521  12.599   6.366  11.378 -0.1770 -0.1479  0.3071
14448W        W30522   2.543   2.912   3.452 -0.0386  0.2954  0.0886
14449W        W30523  11.783  11.360  13.955  0.0850 -0.1016  0.3603
14450W        W30524  14.597   1.881  15.024  0.0851 -0.4055 -0.0047
14451W        W30525  10.412  11.237   1.227 -0.0615 -0.1763  0.2025
14452W        W30526  18.243  10.475  13.884  0.3140  0.0268  0.0323
14453W        W30527   9.601   1.714  11.871 -0.3197 -0.2510  0.1339
14454W        W30528   6.986  17.346  14.198 -0.0629  0.0107 -0.2381
14455W        W30529  14.475  17.803  10.382  0.0541 -0.1502 -0.1842
14456W        W30530   4.771   6.897   1.585  0.0202 -0.0464 -0.0418
14457W        W30531  10.363  13.012   3.474  0.4352  0.2680 -0.1302
14458W        W30532  15.825   7.551  12.335  0.0043 -0.1009  0.0062
14459W        W30533  13.613   2.751  11.116  0.0342 -0.1977  0.2165
14460W        W30534   2.135   2.019   4.581  0.1020 -0.0435 -0.0320
14461W        W30535  16.313  16.335   5.748 -0.0183 -0.0374 -0.1139
14462W        W30536   1.243   2.466  12.897 -0.2069 -0.0083 -0.2987
14463W        W30537   8.099  11.072  11.666 -0.2364 -0.1071 -0.0827
14464W        W30538   8.174   7.517  14.711  0.3222 -0.1536 -0.2222
14465W        W30539  13.124  15.769  12.202  0.0211 -0.0249 -0.1777
14466W        W30540   5.276   8.441  10.959 -0.1615 -0.2133  0.1215
14467W        W30541   3.396  14.100  14.509 -0.3136  0.1409  0.0717
14468W        W30542   3.739  12.657   2.202 -0.0354  0.0265  0.0106
14469W        W30543  14.036  14.570  13.199 -0.3667  0.0827 -0.1161
14470W        W30544   2.652   0.136  12.963 -0.3832 -0.0156  0.0056
14471W        W30545   5.419   3.975   2.376  0.0493 -0.0029  0.0966
14472W        W30546   3.217  11.468   0.763  0.1551  0.1540 -0.2037
14473W        W30547  10.879   6.867   2.500 -0.0618  0.0479  0.0836
14474W        W30548  11.498   1.956   1.507 -0.1193  0.0113 -0.0878
14475W        W30549  19.274   2.776  12.991  0.1787 -0.1168  0.0947
14476W        W30550  19.022  15.949  13.129 -0.0975 -0.2749  0.0196
14477W        W30551  13.141   9.017   4.742  0.3724 -0.2017 -0.1262
14478W        W30552   3.574  15.662   1.396  0.1333  0.1246  0.3217
14479W        W30553   4.424   7.619  14.640 -0.0014 -0.3026  0.2372
14480W        W30554  10.020   7.211   0.908  0.0242 -0.0007 -0.0013
14481W        W30555   8.051   6.562  14.922 -0.2014  0.3038  0.0669
14482W        W30556   7.743   6.185   4.479  0.1307 -0.0303 -0.1310
14483W        W30557  17.592   5.877  11.151 -0.1654  0.3718  0.1710
14484W        W30558   4.571   8.280   0.587 -0.2296 -0.0559 -0.0529
14485W        W30559   0.622   7.895   4.776  0.2137  0.4585  0.1407
14486W        W30560   1.787  12.618   2.620 -0.0962 -0.0489  0.1328
14487W        W30561   6.493   6.947   5.421  0.1176 -0.1034  0.0635
14488W        W30562   3.265  10.497  13.018 -0.2621 -0.1781 -0.0734
14489W        W30563   8.477   5.983   1.196  0.1672 -0.1646 -0.0204
14490W        W30564  18.548   6.825  11.985 -0.0736 -0.2009 -0.3067
14491W        W30565  14.203   1.242   5.149 -0.1313 -0.2912 -0.1786
14492W        W30566  17.944  12.952  12.318 -0.0237 -0.1599  0.2049
14493W        W30567   7.436   5.067   0.606 -0.0279  0.2880 -0.1220
14494W        W30568   4.369   4.902   3.789 -0.0610  0.0086  0.0695
14495W        W30569   7.762   3.560   0.850  0.3580  0.0556 -0.1711
14496W        W30570   6.232   6.860   1.884  0.1132  0.1817 -0.1858
14497W        W30571  13.392   7.069  11.562  0.2707  0.0007 -0.3060
14498W        W30572  12.661   5.998   0.260  0.0180 -0.0434 -0.0449
14499W        W30573  12.088   6.390  13.951  0.3093  0.0027 -0.1647
14500W        W30574   3.119  14.385   1.836 -0.1973  0.2193  0.1850
14501W        W30575   9.925   0.007   2.962 -0.0134  0.3890 -0.0073
14502W        W30576  18.459  14.235   3.304  0.0619 -0.0553 -0.0520
14503W        W30577   9.583   7.691  12.365 -0.2792 -0.2468 -0.2230
14504W        W30578   1.663  12.718   2.116 -0.0019  0.0207 -0.1705
14505W        W30579  15.829   2.983   0.611 -0.1125 -0.0764 -0.0215
14506W        W30580   3.573   7.687  11.813  0.0097 -0.1244 -0.2625
14507W        W30581   7.426   7.122  11.954  0.0479 -0.3455  0.1853
14508W        W30582   1.935  15.862  11.062 -0.1166 -0.1720  0.4947
14509W        W30583  12.836   4.445   0.674  0.1387 -0.1714 -0.0798
14510W        W30584  18.559   4.110  11.172  0.3904  0.2416  0.2176
14511W        W30585  17.680   1.538   2.701  0.0697  0.0118  0.0760
14512W        W30586  12.296   1.082  14.737 -0.1082  0.3503  0.0032
14513W        W30587   0.810  18.478   1.484 -0.0847 -0.0437  0.1538
14514W        W30588   3.958   4.816   0.674 -0.1079  0.3088  0.2141
14515W        W30589  13.241   7.350   2.733  0.0822 -0.1900 -0.0498
14516W        W30590   2.679   1.384   2.985 -0.2820 -0.1324  0.2887
14517W        W30591  15.922  17.659   3.425  0.4386 -0.3599  0.2649
14518W        W30592  16.412   0.894   4.404 -0.0273  0.2003 -0.2168
14519W        W30593   7.574  13.500  12.785  0.2200 -0.0800  0.0793
14520W        W30594   7.189  10.580   3.042  0.2169 -0.0493  0.1279
14521W        W30595   4.540  16.063  12.014 -0.1117 -0.1344 -0.0621
14522W        W30596   5.456   7.002  13.133  0.0419  0.3617 -0.0047
14523W        W30597  14.887  15.358   0.092 -0.1006  0.1257 -0.1083
14524W        W30598   0.157   1.809  13.639  0.1778  0.0011  0.0158
14525W        W30599   2.260   4.968   1.869 -0.1672  0.0309  0.0447
14526W        W30600   4.426  17.252   2.637  0.1896 -0.1475  0.1282
14527W        W30601   7.585   8.631  14.623 -0.1979  0.1184 -0.1184
14528W        W30602   3.888  18.707   0.677 -0.2007  0.0467 -0.1930
14529W        W30603  15.084  17.339   3.002  0.3349 -0.1684 -0.2977
14530W        W30604   7.437   7.356   2.634  0.2891 -0.0252  0.2262
14531W        W30605   6.710   1.698   2.436  0.0464  0.0738  0.3338
14532W        W30606   5.727  10.414   2.624  0.1228 -0.1151 -0.1011
14533W        W30607   8.350  16.069   3.984 -0.1287 -0.2207 -0.0139
14534W        W30608   5.332  10.457   2.297 -0.0708 -0.1173  0.0368
14535W        W30609  17.479   2.032   3.439  0.1825 -0.3244 -0.0466
14536W        W30610   5.543   5.482  13.869 -0.1264 -0.1593  0.1862
14537W        W30611  12.377  14.846  14.588 -0.0655  0.1015  0.2547
14538W        W30612   9.409   5.959   0.862 -0.2270  0.0556 -0.0155
14539W        W30613   8.096  14.682  12.424 -0.0834  0.1435  0.0935
14540W        W30614  14.568  18.748  10.140 -0.2173  0.1344 -0.0019
14541W        W30615  13.214  17.805  11.454 -0.0592  0.1521 -0.1101
14542W        W30616  16.470   9.692   5.562 -0.2661 -0.1180 -0.3041
14543W        W30617   3.898   5.833   5.516  0.1588  0.0285  0.4515
14544W        W30618   7.126   7.885  12.759 -0.0723  0.1884  0.1281
14545W        W30619  13.680   6.489   2.567  0.1983  0.0650 -0.0642
14546W        W30620   7.874   8.610  11.994 -0.2786  0.0373  0.3893
14547W        W30621  17.642   3.987   3.248  0.0837 -0.2147 -0.0462
14548W        W30622   4.562   3.593  13.016  0.1780  0.1231  0.1535
14549W        W30623  10.854  14.796  10.155  0.2393 -0.0460  0.2082
14550W        W30624  14.510   7.749  13.912  0.0468 -0.2737 -0.3490
14551W        W30625   8.379   9.423   4.283 -0.0886  0.1880  0.1456
14552W        W30626  13.016   4.317  14.137 -0.0018  0.2416 -0.2571
14553W        W30627  11.425   9.208   0.462  0.0361  0.0854 -0.1359
14554W        W30628  14.301   2.554   3.283  0.0539 -0.0587 -0.1203
14555W        W30629  11.256  18.650  10.823 -0.2290 -0.2494  0.1634
14556W        W30630   5.682  14.309  13.042  0.0362 -0.6211  0.3117
14557W        W30631  17.856  14.322   0.156 -0.0516  0.2282 -0.1190
14558W        W30632  11.802  18.963  14.302 -0.0050  0.1766 -0.0853
14559W        W30633  13.461  12.169  10.815 -0.1960 -0.0819  0.0094
14560W        W30634  15.653  19.130  11.619 -0.1220  0.2487  0.0263
14561W        W30635  17.152   0.657   0.011  0.2854 -0.0183  0.2707
14562W        W30636   9.917   2.833   5.287 -0.2111 -0.0870 -0.3505
14563W        W30637  16.027   5.801  14.419  0.0463  0.0069  0.1069
14564W        W30638  11.536   4.870   5.774  0.2357 -0.2195  0.1189
14565W        W30639   6.220   4.284  14.326 -0.0119 -0.3026  0.1867
14566W        W30640   6.345   9.028  14.535 -0.0084 -0.0685  0.2611
14567W        W30641   7.363  13.595   1.067 -0.1019  0.2986 -0.0664
14568W        W30642  18.748   8.455   5.043 -0.1784  0.0774 -0.2590
14569W        W30643  12.598   5.291   1.011 -0.0337  0.3082  0.0307
14570W        W30644   2.987   0.850   3.934 -0.0116  0.1735  0.3619
14571W        W30645   9.746  13.730   3.153  0.1253 -0.2727 -0.2092
14572W        W30646   3.213   6.475   5.968 -0.2468  0.1874 -0.0713
14573W        W30647  14.777  14.480  10.215  0.2721 -0.0009 -0.1255
14574W        W30648  16.769  16.300  11.698  0.1203  0.4569 -0.2698
14575W        W30649  18.092  15.442  12.678  0.1213 -0.1496 -0.0865
14576W        W30650  16.657  10.496  13.803 -0.1184  0.0844 -0.0725
14577W        W30651  18.804   6.053   4.771 -0.1515 -0.2770  0.2798
14578W        W30652  11.100  17.804   2.533 -0.3034  0.1063  0.3988
14579W        W30653   8.178  11.722  12.206  0.1840 -0.0829 -0.1921
14580W        W30654   6.231  12.464   4.328  0.0434 -0.0903 -0.1716
14581W        W30655   7.773  11.031   1.716  0.4539 -0.0156 -0.2958
14582W        W30656   4.324   7.269  12.696  0.0920  0.0920  0.1732
14583W        W30657  12.257  14.368   3.058 -0.3699  0.0760 -0.1537
14584W        W30658   4.682  16.809  11.175  0.2305  0.2028 -0.0671
14585W        W30659   7.185  10.631  12.982  0.1450  0.4288  0.2323
14586W        W30660  13.741  13.322   5.361 -0.2129  0.1832 -0.0293
14587W        W30661   6.911  11.664   2.048 -0.1712 -0.2246  0.1332
14588W        W30662  12.805   7.435   2.438 -0.4247 -0.0815 -0.1194
14589W        W30663   4.234  13.183   3.065 -0.1562  0.0882 -0.0239
14590W        W30664  16.766   3.186   4.044  0.2873 -0.1152 -0.2989
14591W        W30665   6.787  11.071  12.144 -0.2162  0.2035 -0.1813
14592W        W30666  12.142   0.703  11.560 -0.2446  0.1582  0.0734
14593W        W30667  13.435   0.889  11.900  0.1232 -0.4661 -0.1527
14594W        W30668  14.211   4.525  12.431 -0.0521  0.2709  0.2156
14595W        W30669  11.890   0.746  14.041  0.0338  0.3158  0.0837
14596W        W30670   7.268   2.791   1.047  0.0972 -0.0397 -0.2315
14597W        W30671   9.757  10.790   2.115 -0.3385  0.1944  0.2032
14598W        W30672  16.443  12.199   4.463 -0.0883  0.3028 -0.1001
14599W        W30673  14.583   5.828   3.991 -0.0019 -0.3037  0.0218
14600W        W30674   7.847  12.238  13.437 -0.1400  0.0270 -0.1574
14601W        W30675  11.586   1.151  14.839 -0.2185  0.0016  0.1895
14602W        W30676   4.534  16.594   5.057  0.0785  0.0932  0.3563
14603W        W30677  13.354  14.099   2.287  0.0113 -0.4071 -0.0634
14604W        W30678   7.600   7.626  13.516 -0.2706  0.2724  0.6348
14605W        W30679   1.548   6.522  14.912  0.1319 -0.0051 -0.1193
14606W        W30680   4.080   8.738   4.334 -0.1660  0.0439 -0.2612
14607W        W30681  18.830   6.278  11.808  0.2290 -0.0946  0.4102
14608W        W30682  10.210   3.492   4.573 -0.0386  0.2030  0.1583
14609W        W30683   6.877   3.591   4.931 -0.0248 -0.0989  0.1579
14610W        W30684   5.233   9.825  10.521 -0.1029  0.1921 -0.0716
14611W        W30685  17.728   8.430  12.464  0.2695  0.2896  0.4471
14612W        W30686   3.873  10.762  11.961  0.3589  0.2046  0.2363
14613W        W30687  15.800   7.314   0.438  0.1466  0.0890  0.0629
14614W        W30688  14.123  12.006   4.639 -0.0629 -0.2202 -0.0846
14615W        W30689  13.527  11.088   1.325 -0.1250  0.3576 -0.5357
14616W        W30690  16.137   3.039  14.166 -0.1138 -0.1297  0.0056
14617W        W30691   2.001  10.196   2.627  0.0096 -0.0951 -0.0363
14618W        W30692   6.525   6.553   0.109 -0.2094 -0.1008  0.2234
14619W        W30693   7.550  17.035  12.094 -0.3288  0.0484 -0.0706
14620W        W30694  16.755  10.958  13.025 -0.3166 -0.2572  0.1994
14621W        W30695  17.308  18.201  13.223  0.2033  0.2686  0.2477
14622W        W30696  11.453   5.488   2.381  0.0687  0.3977 -0.0003
14623W        W30697  14.575   4.453  11.617 -0.2275  0.1004  0.0062
14624W        W30698   8.421  10.999  13.929  0.2679  0.2604  0.2093
14625W        W30699   8.005   0.465   4.859  0.2065 -0.1260  0.0919
14626W        W30700  19.104  19.211   2.496  0.2171  0.3425 -0.2703
14627W        W30701  12.196  13.109  15.000 -0.0929  0.0346  0.1025
14628W        W30702  16.816  12.243   2.914 -0.1948  0.4638  0.3529
14629W        W30703   4.685  18.237  14.871 -0.0267 -0.0671  0.1654
14630W        W30704  14.403  12.371   5.516  0.0124  0.2180 -0.0630
14631W        W30705   6.685  18.476   0.241 -0.1112 -0.0086  0.0964
14632W        W30706   0.443  17.840   2.310  0.0267  0.4381  0.1242
14633W        W30707   1.147   7.626   0.582  0.0811  0.1322  0.4459
14634W        W30708   3.952  12.449  13.293 -0.1814 -0.3092 -0.1067
14635W        W30709  15.792   6.127   4.232 -0.2048 -0.2283 -0.1942
14636W        W30710  18.567   0.943   0.611  0.0146 -0.0042  0.1940
14637W        W30711   1.637   5.481   2.289 -0.0086  0.2573 -0.1989
14638W        W30712   4.766  10.677   0.801 -0.0050 -0.1409  0.1624
14639W        W30713  16.563   2.041  10.076 -0.0060  0.3400 -0.3722
14640W        W30714   5.545  11.177   3.455 -0.0627 -0.4250  0.0171
14641W        W30715  12.006  14.928  10.862 -0.0618 -0.4110  0.1149
14642W        W30716   5.621   7.883   0.298 -0.0958 -0.0968  0.2435
14643W        W30717  19.185   2.279   3.152 -0.1816 -0.0373  0.1609
14644W        W30718   5.004  15.614   0.280 -0.1189 -0.1896 -0.1512
14645W        W30719  15.066   6.435  12.279 -0.1044  0.2522 -0.0237
14646W        W30720  11.901  11.431  11.695 -0.0050  0.0052  0.2631
14647W        W30721  14.759   2.678   1.966 -0.3638 -0.0092 -0.0891
14648W        W30722   6.520  15.611   4.079 -0.2284  0.1189  0.3140
14649W        W30723  11.209   9.753   3.932 -0.3315  0.4652 -0.0996
14650W        W30724   7.416   3.037   1.597 -0.0011  0.1563 -0.0260
14651W        W30725  11.277   0.860   3.849  0.1010  0.2346 -0.0008
14652W        W30726  16.644   0.920  13.857 -0.0266 -0.2891 -0.0125
14653W        W30727  15.517  17.287   9.889 -0.2115  0.1054  0.2353
14654W        W30728   9.333   9.606   2.912 -0.0587  0.2017 -0.0333
14655W        W30729   5.446  14.507   4.113 -0.1036 -0.0435  0.0116
14656W        W30730   9.596  13.873  11.314  0.1589 -0.0787  0.0077
14657W        W30731  11.326  19.296  11.888 -0.0815 -0.3346  0.1684
14658W        W30732   9.240  15.146   2.934 -0.0392  0.0318  0.0527
14659W        W30733  13.791  12.683   0.251  0.1267 -0.1120 -0.0912
14660W        W30734   8.796   2.500  10.528  0.0738 -0.1291  0.0841
14661W        W30735  12.960   4.083   1.748  0.1527  0.0871  0.2431
14662W        W30736   9.674   5.270  12.156 -0.0489 -0.0340 -0.0433
14663W        W30737   6.731  12.303   2.080 -0.2640  0.0820 -0.2691
14664W        W30738   0.361   5.531   3.546  0.1885  0.0908 -0.2322
14665W        W30739   3.742   5.341   0.023 -0.2930 -0.1391 -0.1172
14666W        W30740  17.798   1.709   9.983  0.0003  0.0808 -0.0140
14667W        W30741  15.753   2.852  13.384  0.0452 -0.1856 -0.3481
14668W        W30742   7.779  10.683   3.951 -0.0637 -0.3671 -0.1011
14669W        W30743   3.137   0.878  14.608  0.0625 -0.1130 -0.2169
14670W        W30744   7.719  11.312   4.452  0.0694  0.0676 -0.1676
14671W        W30745   0.709   8.282   4.379 -0.0952 -0.3984 -0.0759
14672W        W30746   1.168   2.219   4.110  0.2871 -0.1945 -0.1825
14673W        W30747  18.019  11.182  10.502 -0.2476 -0.0351  0.0244
14674W        W30748   6.893  10.949   5.963  0.1512  0.3011 -0.2466
14675W        W30749   3.123  10.007   2.089  0.2839 -0.3001 -0.4527
14676W        W30750  18.016  16.267  12.199 -0.1128  0.1917 -0.1581
14677W        W30751   3.452   6.995   0.575  0.2216 -0.2028  0.2398
14678W        W30752   5.222  13.774   5.125  0.0357  0.0368  0.0862
14679W        W30753  17.090  15.066   1.308  0.1677 -0.0900  0.1822
14680W        W30754  13.319   0.646  13.013 -0.0551 -0.2917 -0.0387
14681W        W30755  11.845  14.571   5.583  0.2572 -0.0692 -0.2705
14682W        W30756   2.687  11.370  11.864 -0.0889  0.2508 -0.2382
14683W        W30757   0.697  16.868   5.274 -0.0399  0.2612  0.0570
14684W        W30758   6.267  13.775   5.334  0.6206 -0.0463 -0.3150
14685W        W30759  11.823   0.420  13.032 -0.2990 -0.2510  0.0935
14686W        W30760  17.231  18.015  10.475 -0.1514  0.1451 -0.2546
14687W        W30761  18.637   0.485   0.911  0.2862  0.0771 -0.2524
14688W        W30762   8.914  15.677   1.181 -0.2716  0.2097  0.2480
14689W        W30763  16.591   5.221   0.568  0.3668  0.0711 -0.0745
14690W        W30764  15.028   8.317  12.795 -0.1288  0.0817 -0.2621
14691W        W30765  13.743   2.973  13.143  0.0455 -0.3224  0.0929
14692W        W30766  10.959   5.810   0.583  0.0516 -0.2511 -0.1079
14693W        W30767   3.094  16.789  14.660 -0.1684  0.1474 -0.0861
14694W        W30768  17.107  11.325   2.882  0.3800  0.0197 -0.2407
14695W        W30769  17.675   0.712   3.502 -0.0402 -0.0559  0.0657
14696W        W30770   9.859   1.588   3.469  0.2078  0.3227  0.3156
14697W        W30771  13.916  18.056   0.043  0.1356 -0.0777 -0.1544
14698W        W30772  15.415   3.939  11.776 -0.0710 -0.0160 -0.0345
14699W        W30773   8.054   9.885   4.610 -0.1884 -0.2584 -0.1005
14700W        W30774   7.328   4.751   5.413 -0.0083 -0.1010 -0.3904
14701W        W30775  10.084   8.938   2.296  0.0774  0.1870 -0.0399
14702W        W30776  14.494   0.119  13.843  0.0088 -0.0631  0.1268
14703W        W30777   3.595   6.898  13.370 -0.0609  0.2270  0.1343
14704W        W30778  10.850  15.697   1.050  0.0480 -0.0703  0.1171
14705W        W30779   3.422  17.040   2.989 -0.1198 -0.2594 -0.0483
14706W        W30780   9.514  14.234  13.209  0.1486  0.1666 -0.0112
14707W        W30781   1.486  15.932   0.962 -0.2261  0.0581 -0.0184
14708W        W30782   7.354   9.512   2.095 -0.2734  0.1895 -0.3781
14709W        W30783  14.351  15.907  10.392 -0.1177  0.0219 -0.0624
14710W        W30784   8.447   7.920   0.281 -0.3230  0.0353  0.0336
14711W        W30785   1.157   3.999   4.741  0.0536 -0.0961  0.4075
14712W        W30786   9.295  13.808  13.322  0.0823  0.1325  0.1324
14713W        W30787   1.347   7.348   5.047 -0.0475 -0.1822 -0.0334
14714W        W30788   3.199  13.517   4.165  0.0794  0.0640 -0.1922
14715W        W30789  18.657  14.147   0.464 -0.0843 -0.6389  0.1382
14716W        W30790   5.672   4.534   5.984 -0.2262 -0.2484  0.2480
14717W        W30791  13.414   2.229  14.318 -0.2600 -0.1342  0.2455
14718W        W30792   1.493   8.193  11.805  0.4388 -0.2523  0.1806
14719W        W30793   1.549  14.837  10.906 -0.2047 -0.3306 -0.1273
14720W        W30794   7.183  14.418  12.730 -0.0268 -0.3653 -0.4648
14721W        W30795   3.470   5.831  14.317 -0.0273 -0.2202 -0.1310
14722W        W30796  16.020   8.520  11.105 -0.2977 -0.0036 -0.0476
14723W        W30797   8.955   9.870   4.866  0.2732  0.2899  0.0689
14724W        W30798   4.168  11.394  14.322  0.0254 -0.3170 -0.0335
14725W        W30799  15.305   9.878  13.892  0.4910 -0.2473 -0.0929
14726W        W30800   2.908   6.596   2.308 -0.1101  0.1528  0.0034
14727W        W30801   1.858  11.055   2.520  0.4780  0.6335  0.2510
14728W        W30802   7.753   2.473   0.556  0.0873 -0.0328 -0.1203
14729W        W30803  13.109   2.933   2.435 -0.0591  0.2216  0.0711
14730W        W30804   5.344   4.890   0.472  0.2280  0.2492 -0.0410
14731W        W30805   3.577   2.206   0.604  0.2694 -0.0816 -0.0807
14732W        W30806   4.953   4.641  11.271 -0.1681  0.2743 -0.3090
14733W        W30807   1.216  16.506   0.826  0.0692 -0.0691  0.3375
14734W        W30808  12.899  14.346   0.581  0.0792 -0.0989 -0.0534
14735W        W30809   1.820   3.192   2.156  0.3232  0.2441 -0.1484
14736W        W30810  18.686  14.984   0.112 -0.0451 -0.1219  0.1365
14737W        W30811   9.283  18.857  14.656  0.2240 -0.1798  0.1509
14738W        W30812   2.786  17.937  10.950  0.1555 -0.2290 -0.0165
14739W        W30813  11.388  11.377   3.115 -0.0089 -0.2486 -0.0393
14740W        W30814  13.249   2.545  13.231 -0.1427 -0.1044  0.0563
14741W        W30815   9.082   7.795  12.341  0.2108 -0.0427  0.2604
14742W        W30816  10.240   6.422   1.731 -0.4423  0.0130  0.0480
14743W        W30817  12.663   5.685  14.935 -0.2383  0.0327  0.0866
14744W        W30818   5.486  18.326   3.169  0.0029 -0.0487 -0.1733
14745W        W30819   4.225  19.162  12.755 -0.0364  0.0358 -0.0862
14746W        W30820   0.175  16.784   1.100 -0.2036 -0.0452 -0.2363
14747W        W30821   5.346  14.919  11.243 -0.0915 -0.2891 -0.2112
14748W        W30822  13.559  17.984  10.264 -0.0763 -0.2896  0.0541
14749W        W30823  18.374   8.554   2.518 -0.0714 -0.1643  0.1270
14750W        W30824  13.942  17.918  13.992  0.0465  0.0591  0.0029
14751W        W30825   5.905  12.529   3.974 -0.0729 -0.1578  0.1176
14752W        W30826  16.879   2.251   1.274 -0.3769 -0.1240  0.1835
14753W        W30827  12.761   7.883   0.794  0.1133 -0.0595 -0.2468
14754W        W30828  13.301  18.286  14.224  0.3623 -0.2831  0.2057
14755W        W30829   9.062   7.683   3.262 -0.0741 -0.1185  0.4029
14756W        W30830   3.976  14.743  10.606  0.3923 -0.1023  0.0063
14757W        W30831  10.660  11.450  10.424 -0.2028 -0.2785  0.0014
14758W        W30832   3.730  18.513  14.280  0.1668 -0.0462  0.0656
14759W        W30833   6.900   4.215  14.416 -0.1450 -0.2043 -0.1134
14760W        W30834  18.383   6.062  14.404  0.1858 -0.0872  0.0580
14761W        W30835  12.686  15.232  11.281  0.2118 -0.2037 -0.0175
14762W        W30836  13.983   4.837   1.240  0.3790  0.0317  0.0922
14763W        W30837  13.066  18.233  11.381  0.1881  0.0759 -0.2065
14764W        W30838   8.746   2.698   3.419  0.0945 -0.2094 -0.2578
14765W        W30839   8.740  12.251  13.202  0.0442  0.1710  0.1976
14766W        W30840   8.887  10.441  14.266 -0.0115  0.4773  0.0255
14767W        W30841  15.012  17.808   2.932  0.2386 -0.1843  0.0118
14768W        W30842  11.074  12.158   4.098  0.2064  0.2167  0.0349
14769W        W30843  15.295  11.974   0.366  0.2406  0.2121  0.3602
14770W        W30844   1.021   9.226   2.666 -0.0671 -0.0229  0.1012
14771W        W30845  18.166   9.465  14.737 -0.0345 -0.1203 -0.1635
14772W        W30846  14.724   2.210   1.227 -0.2743 -0.1219  0.1711
14773W        W30847  14.986   4.572   5.161  0.2802 -0.2810  0.0875
14774W        W30848   6.061  12.274  10.432  0.2427 -0.0037  0.1201
14775W        W30849   6.174  12.078  12.537  0.0042 -0.4163 -0.3443
14776W        W30850   0.597   8.446   5.383 -0.1374 -0.2254  0.0339
14777W        W30851  15.736  11.696   3.341 -0.0419 -0.3344  0.2314
14778W        W30852  13.917  18.173  13.452 -0.1067  0.2009 -0.2563
14779W        W30853   9.044   3.137   1.007 -0.0372  0.3020  0.0419
14780W        W30854   1.348   6.162   3.361 -0.0334  0.2777 -0.0100
14781W        W30855   8.866   7.994  13.083 -0.0193  0.1148 -0.1137
14782W        W30856   6.372   0.852   0.457  0.0676 -0.1184 -0.0633
14783W        W30857   0.418  19.223   4.981  0.1064 -0.2004 -0.1152
14784W        W30858   5.661  16.027   3.072  0.0227  0.3382 -0.0855
14785W        W30859   9.543   3.022   2.034 -0.0377 -0.0969 -0.0971
14786W        W30860  15.076   3.070   4.452 -0.0314 -0.0381  0.1532
14787W        W30861  13.171  17.506  14.613  0.3220  0.0261 -0.0106
14788W        W30862  11.966  18.855   1.282  0.1036  0.3764 -0.1173
14789W        W30863   5.961   8.159   2.356 -0.0410 -0.1988  0.1236
14790W        W30864  12.820  17.145   1.907 -0.0663  0.1622 -0.1618
14791W        W30865  17.831   7.149   4.729  0.1193 -0.2383 -0.0956
14792W        W30866   9.364   2.914  11.645 -0.1311  0.1193 -0.0367
14793W        W30867  14.338   9.828   0.837  0.0174 -0.3559 -0.3935
14794W        W30868  10.288   4.843  11.729  0.1258 -0.0803  0.2774
14795W        W30869  13.306   6.013  12.938 -0.3822  0.4947  0.2096
14796W        W30870   8.155  16.296  14.883 -0.0584  0.1102  0.1309
14797W        W30871  17.574  11.332  14.844 -0.0643  0.1841 -0.1258
14798W        W30872   4.876  14.761  14.960  0.0718 -0.0154  0.1644
14799W        W30873  14.695   1.222  10.520  0.2301  0.0380  0.1819
14800W        W30874  15.488   4.806   5.129  0.3015 -0.1026 -0.2275
14801W        W30875   8.174  16.315   3.053  0.1383 -0.0196 -0.0032
14802W        W30876  10.605   6.285  12.559  0.2273 -0.3179  0.0709
14803W        W30877   1.559  12.816   4.698  0.0730 -0.0691 -0.1657
14804W        W30878   9.170  17.827  11.902  0.1953  0.1780 -0.1147
14805W        W30879   5.758  15.183  12.997  0.2295 -0.0887 -0.0104
14806W        W30880   7.228  17.804   1.952  0.2042 -0.0772  0.1277
14807W        W30881  17.707  18.385   0.032  0.1294 -0.1983 -0.1032
14808W        W30882   5.244  15.980  10.191 -0.0154 -0.0239 -0.0693
14809W        W30883   7.677   9.822  13.284  0.0412  0.0666  0.0723
14810W        W30884  11.583   2.245  14.475 -0.2546  0.0557 -0.3765
14811W        W30885  12.829   7.780  12.455 -0.0521  0.0681  0.0692
14812W        W30886   4.399  10.200   2.747 -0.1230  0.2577  0.2008
14813W        W30887  11.908   5.821   2.034  0.3318  0.2093 -0.1235
14814W        W30888  13.682  13.066   1.314 -0.1321  0.0093 -0.0548
14815W        W30889  13.639  15.403   2.491  0.1331 -0.1153 -0.3057
14816W        W30890  13.100   5.843  14.274 -0.0979 -0.1173 -0.3349
14817W        W30891  15.332   0.209   0.593 -0.0574  0.4215 -0.0636
14818W        W30892   9.627  17.175   3.181  0.1678 -0.1338 -0.1629
14819W        W30893   4.481   1.157   2.696  0.4316 -0.0779 -0.0289
14820W        W30894   4.856  10.123   5.177  0.2053 -0.3770 -0.1419
14821W        W30895   6.932   5.943   3.018  0.0686 -0.2693  0.0655
14822W        W30896  11.781  16.574  12.474 -0.3827  0.0660 -0.2140
14823W        W30897  17.583   5.594   1.482 -0.0118 -0.0262  0.1381
14824W        W30898   1.528  12.199  14.462 -0.0948  0.3081  0.0082
14825W        W30899  13.244  16.906  14.110 -0.0724  0.0620 -0.0043
14826W        W30900  18.037  16.100  11.649  0.3361 -0.0447  0.1777
14827W        W30901  14.258  15.937   3.855  0.0056  0.0878 -0.1926
14828W        W30902   5.026   7.017  13.517 -0.2111  0.1978  0.1905
14829W        W30903   2.222  19.115  13.669 -0.1517  0.1681  0.1821
14830W        W30904  10.426  12.381  11.410  0.2321  0.1396 -0.1216
14831W        W30905   8.048   8.263  11.721 -0.3126 -0.1407 -0.0991
14832W        W30906  13.163  11.775   1.305 -0.1721  0.1002  0.0679
14833W        W30907  10.961   3.699  10.326  0.3513 -0.0238 -0.2149
14834W        W30908   2.942  12.968   0.233  0.0787 -0.1387  0.1302
14835W        W30909   5.262   4.605   5.319 -0.1698 -0.0546  0.3435
14836W        W30910   9.791   8.239   2.278  0.2518  0.1466 -0.2464
14837W        W30911  15.604   6.406   6.085 -0.2247 -0.0461  0.0402
14838W        W30912   7.829   1.143   3.506  0.2700 -0.1180 -0.0523
14839W        W30913   8.403  13.624  10.869  0.1966  0.0338 -0.1870
14840W        W30914   3.410   6.206   3.205  0.0555  0.1836  0.1885
14841W        W30915  11.711   1.061  10.880  0.0650 -0.1977 -0.0245
14842W        W30916   7.710  15.777   0.518 -0.2617 -0.1699  0.3033
14843W        W30917  14.318  15.431   3.663 -0.2350  0.1188  0.1980
14844W        W30918   9.488  12.066  13.520 -0.4773 -0.2798 -0.0098
14845W        W30919  15.892   8.393   5.684  0.0130 -0.0505  0.1695
14846W        W30920  10.433  11.799   1.323  0.1073  0.0861 -0.3596
14847W        W30921  18.176  14.631  13.078 -0.0205 -0.1412  0.3079
14848W        W30922  15.232   8.758   0.094 -0.2550 -0.2209 -0.2199
14849W        W30923  13.556   6.804   2.154  0.1601  0.4976  0.1593
14850W        W30924  10.035  11.042   2.474 -0.3293 -0.0700 -0.1408
14851W        W30925   4.272  15.382   2.804 -0.1820 -0.0775  0.1700
14852W        W30926   9.035   7.942  10.856 -0.2114  0.0284  0.2673
14853W        W30927   8.809  10.108   1.697  0.2141  0.1420 -0.1713
14854W        W30928  10.543   4.088  14.661  0.0958 -0.0971 -0.1335
14855W        W30929   1.995  15.578  11.961  0.0578  0.1319  0.0568
14856W        W30930  17.557   9.206  14.195 -0.1406  0.4161  0.1452
14857W        W30931   6.241  15.487  11.356 -0.0128 -0.2643  0.0932
14858W        W30932   0.440   9.547  11.672 -0.0551 -0.0581 -0.1107
14859W        W30933  13.043  16.983   0.189 -0.0539 -0.3700  0.0901
14860W        W30934  12.697   0.055   4.812 -0.1697 -0.3165  0.1946
14861W        W30935  11.196  17.484   1.052  0.0492 -0.1914  0.0791
14862W        W30936   8.336   1.879  12.494 -0.2747 -0.0420 -0.2988
14863W        W30937  13.379  17.715   0.484  0.1473 -0.1589  0.1222
14864W        W30938  12.645  16.974   0.698  0.0533 -0.0688 -0.1118
14865W        W30939   7.278   1.268   1.642  0.1197  0.1541  0.2121
14866W        W30940   7.097   6.921  12.371  0.0767  0.1524  0.1872
14867W        W30941   6.308  15.170   3.437  0.0172  0.2366 -0.0005
14868W        W30942  17.172  14.015   2.079 -0.2276 -0.0956 -0.0334
14869W        W30943  12.382   2.216   1.423  0.4053 -0.1584 -0.0690
14870W        W30944   4.741  11.738   2.942  0.1508 -0.3925  0.3494
14871W        W30945  14.059   2.660  13.297  0.0694 -0.0828 -0.3030
14872W        W30946  17.215  16.478  12.585 -0.0191  0.3486  0.0541
14873W        W30947  11.772  13.085   3.766 -0.2513 -0.1937  0.4406
14874W        W30948   1.964  15.450   1.481  0.0412  0.1062  0.2499
14875W        W30949  12.435  13.644   5.539 -0.4669  0.3064 -0.1436
14876W        W30950   6.555  11.894   5.550 -0.1282 -0.2007  0.0248
14877W        W30951   7.205   6.276   6.265 -0.1168  0.1234  0.0846
14878W        W30952  10.814   0.934   1.289  0.1393  0.3179 -0.2075
14879W        W30953   2.266   5.343  12.466 -0.0917 -0.1282  0.0687
14880W        W30954   0.134  10.055  14.269  0.1027  0.1644  0.1975
14881W        W30955   2.117  12.936   4.054  0.0387 -0.0354 -0.0209
14882W        W30956  10.843  12.122   1.093 -0.0504 -0.3149  0.1257
14883W        W30957   3.033   8.646   2.306 -0.0547  0.1537  0.1562
14884W        W30958   1.470   8.915  10.758  0.0145 -0.2030  0.2298
14885W        W30959  13.861   4.755  12.690  0.1498  0.2462  0.0892
14886W        W30960   4.616  18.441   1.741 -0.3253  0.1363  0.1379
14887W        W30961   7.882   0.788  11.264  0.2078 -0.2961  0.1492
14888W        W30962  13.836  17.717  12.798  0.0694  0.0741 -0.0483
14889W        W30963  17.486  10.755   2.748 -0.0112 -0.1083 -0.1079
14890W        W30964   3.736  10.216   1.596 -0.0024 -0.1533  0.1705
14891W        W30965  16.868  14.679   0.215 -0.0801  0.0583  0.0193
14892W        W30966  17.143   6.448  14.835 -0.0320 -0.1516  0.0878
14893W        W30967  18.424   0.465  13.772  0.1700 -0.0651  0.1293
14894W        W30968   1.444  18.693  12.988 -0.2732  0.0574 -0.0155
14895W        W30969  16.774   0.807   1.805  0.1088  0.2378  0.2236
14896W        W30970  18.615   9.571   9.672  0.3823  0.0019 -0.0546
14897W        W30971   2.037  16.383   2.090 -0.2103 -0.2648  0.0885
14898W        W30972   8.773   9.106  14.929 -0.2430 -0.1795 -0.2183
14899W        W30973  13.003   4.144   2.618  0.0715  0.2179  0.1103
14900W        W30974   3.980   7.109   1.240  0.1592 -0.1815  0.0923
14901W        W30975  12.737  14.533  14.306  0.0887  0.3074  0.1481
14902W        W30976   4.730  18.901  13.189 -0.0835 -0.0920  0.1326
14903W        W30977  13.537  12.099   1.162 -0.0909 -0.4752 -0.1190
14904W        W30978  13.627  14.027  12.555  0.0550  0.0819 -0.1351
14905W        W30979  16.088   5.848  12.028  0.2629 -0.0101 -0.3226
14906W        W30980   5.904  18.586  10.979 -0.1291 -0.1874 -0.3855
14907W        W30981   8.811   2.611   5.321  0.2117 -0.2265 -0.0578
14908W        W30982   2.788   9.722   4.123  0.0549  0.2564 -0.1316
14909W        W30983  13.075  16.347  11.994 -0.1336 -0.0772 -0.1251
14910W        W30984  12.488  17.979   0.426 -0.3272  0.0389  0.0955
14911W        W30985   5.177   5.945   2.395 -0.2261  0.1102 -0.1872
14912W        W30986   8.313   5.002   1.089  0.0610  0.0603  0.2036
14913W        W30987   9.894   4.448  11.733  0.0919 -0.0941 -0.2861
14914W        W30988   9.156   0.259   2.879 -0.1672  0.1247 -0.1015
14915W        W30989   0.020  13.450   0.767  0.1287 -0.1162 -0.1814
14916W        W30990   5.743   3.195  15.002  0.2667 -0.0579 -0.0722
14917W        W30991   7.844   0.159   1.328 -0.1663 -0.0181  0.1221
14918W        W30992  12.161  10.321  14.110 -0.0295 -0.1077 -0.1124
14919W        W30993  18.437  17.367  13.666  0.1246  0.0961 -0.2714
14920W        W30994  18.684  10.429   4.174  0.0487 -0.1965 -0.0971
14921W        W30995   0.925   4.408  13.659 -0.1726 -0.2707 -0.1925
14922W        W30996   4.678  16.768  13.959  0.1270  0.1918  0.0338
14923W        W30997   0.195  15.073   1.629  0.0019 -0.2114 -0.4296
14924W        W30998  13.221  14.595   0.314  0.2451  0.0123  0.1083
14925W        W30999   9.527  12.676  10.938 -0.0897 -0.0366  0.0695
14926W        W31000  13.977   1.290  14.789  0.2054  0.0107 -0.1905
14927W        W31001  17.487  18.648  14.195  0.1046 -0.2845  0.0867
14928W        W31002   6.285   6.432  13.303 -0.0735 -0.0804 -0.0198
14929W        W31003   8.447   3.581  11.668 -0.1396 -0.1684 -0.3014
14930W        W31004  14.283  11.786  14.593  0.0094 -0.3462 -0.2226
14931W        W31005  19.010   1.017  12.292  0.1620  0.1186  0.2284
14932W        W31006  18.161  16.399  14.956  0.2827 -0.0597 -0.0539
14933W        W31007   0.756  13.253  13.693 -0.0701  0.0204 -0.1437
14934W        W31008  12.544   7.238  12.989 -0.3233  0.2633 -0.0205
14935W        W31009   9.623  11.861   0.487  0.0587  0.6371 -0.0238
14936W        W31010   9.478  16.181  11.398  0.0977  0.1124 -0.3626
14937W        W31011  14.849   2.567  12.382  0.0460  0.4399  0.0137
14938W        W31012   8.579  14.000  13.614 -0.0248 -0.0192  0.0204
14939W        W31013  18.935  12.672   9.359 -0.1810 -0.1565  0.2356
14940W        W31014   4.499   3.505  12.507 -0.2232 -0.2181  0.0381
14941W        W31015   3.823   3.317   0.955  0.0255 -0.1644  0.0225
14942W        W31016  16.508  14.208  10.702  0.1132  0.1380  0.0961
14943W        W31017  10.692   3.553  10.811  0.2914  0.1401 -0.0495
14944W        W31018  12.186  15.828   9.677  0.1130 -0.0295  0.1734
14945W        W31019   4.880  16.265   5.759 -0.0321  0.4503  0.1025
14946W        W31020  14.926   3.982   3.446 -0.1325 -0.0599  0.0183
14947W        W31021   2.798   4.371   0.235 -0.0227 -0.0678 -0.2035
14948W        W31022   7.118  16.856  14.135  0.0985 -0.0153  0.0708
14949W        W31023  16.616  18.742  12.624 -0.1280 -0.1728  0.1682
14950W        W31024  13.844   2.252  12.385  0.0289  0.0216  0.6387
14951W        W31025   9.244   7.205   5.004  0.1459 -0.0067 -0.1612
14952W        W31026  10.224  10.104   2.285 -0.1830 -0.2991 -0.0265
14953W        W31027  12.823   8.213  12.827  0.5185 -0.3238 -0.1440
14954W        W31028   2.614   5.343   0.067  0.4488 -0.3652 -0.0912
14955W        W31029   5.495  17.801   3.771  0.0835  0.1529 -0.2445
14956W        W31030   9.122   1.592   4.344 -0.0441  0.1099 -0.2094
14957W        W31031   7.063  10.214   1.460  0.1235 -0.1922  0.1809
14958W        W31032   3.192   2.370   3.825 -0.2798  0.0279  0.0084
14959W        W31033  14.511   7.538   0.380 -0.0114 -0.0369 -0.2892
14960W        W31034  10.481  17.375  14.005 -0.3134 -0.2587  0.0595
14961W        W31035  13.335   2.871   0.530 -0.1235  0.1905  0.1602
14962W        W31036  15.449   6.822   5.004  0.1659 -0.0538 -0.2903
14963W        W31037   1.972  13.014   5.007  0.0963  0.2800 -0.2975
14964W        W31038  12.630  15.343   1.090 -0.3421  0.3357 -0.1090
14965W        W31039   7.963   8.512   2.174 -0.0881 -0.0712  0.0478
14966W        W31040  12.984   6.927  11.257  0.0106 -0.3245  0.1949
14967W        W31041  18.104   0.112  14.041 -0.0210 -0.0139 -0.0815
14968W        W31042   2.191  17.657  11.658  0.0499 -0.0701 -0.1445
14969W        W31043   6.314  12.867   1.791  0.0312  0.1015 -0.0060
14970W        W31044   3.069  19.147   5.057  0.0072  0.3162 -0.1026
14971W        W31045  17.083   9.590   3.466 -0.1986  0.1179 -0.3220
14972W        W31046  17.760  13.621  12.464  0.0277  0.2217  0.2514
14973W        W31047   3.695  18.486   1.632 -0.3942  0.4230  0.5270
14974W        W31048   9.016   6.334  13.933 -0.1132 -0.3045 -0.0978
14975W        W31049   0.559   2.780  10.636  0.3693  0.0681  0.1238
14976W        W31050   7.960  12.786   4.033  0.0500  0.1725 -0.0089
14977W        W31051   1.159   5.208   2.935  0.0806 -0.2005 -0.1607
14978W        W31052  18.840   3.193  11.006 -0.0776 -0.0375 -0.0490
14979W        W31053   5.686  12.350  11.018  0.0063  0.3958  0.0549
14980W        W31054   0.959  16.596  14.611 -0.1905 -0.2604 -0.0255
14981W        W31055  12.172   2.882   1.918 -0.1106  0.1259  0.0567
14982W        W31056   9.906  18.877  12.844 -0.1254 -0.2667  0.0322
14983W        W31057  18.044   3.158  12.974 -0.2839 -0.2790  0.1391
14984W        W31058  13.874   9.376   0.929 -0.0877  0.1610 -0.0350
14985W        W31059  19.063   2.002   3.502  0.0011  0.2532  0.0803
14986W        W31060  11.557  15.168  11.551 -0.2256  0.0371  0.2774
14987W        W31061   9.021  13.515   0.575 -0.1287 -0.1019 -0.1621
14988W        W31062  13.859  14.044  13.038 -0.1506  0.4588  0.1784
14989W        W31063  14.889  13.434  13.418 -0.2150 -0.0119 -0.0328
14990W        W31064   9.672  13.894  12.399  0.1117 -0.1697  0.0566
14991W        W31065   7.823   6.101   3.893  0.2636  0.1234 -0.0647
14992W        W31066  17.665  10.674   1.238 -0.1640  0.1082 -0.0178
14993W        W31067  11.982   5.011   0.670 -0.0303 -0.2091  0.1062
14994W        W31068  17.154   9.646  13.727  0.4516  0.1873  0.0048
14995W        W31069  15.293   6.524  13.384  0.1949  0.2422  0.0393
14996W        W31070  14.058  14.647  14.404  0.3196  0.1589  0.1149
14997W        W31071  12.345   8.191  12.645 -0.0530  0.1797  0.0062
14998W        W31072  13.218  18.471  10.950  0.2420 -0.0254  0.2976
14999W        W31073   8.756   3.622  14.396  0.0187  0.1171  0.0413
15000W        W31074   9.064   0.753   2.969  0.1322 -0.1339  0.0671
15001W        W31075  13.420  12.207  12.139  0.2828  0.2232  0.2611
15002W        W31076  17.966   4.766  10.953  0.0220 -0.1243  0.0296
15003W        W31077  15.098  10.500  10.974 -0.0974 -0.0415 -0.2582
15004W        W31078   7.060  16.374   0.387 -0.1987 -0.0750 -0.0848
15005W        W31079   6.253  14.558   0.009  0.2532  0.2741  0.0043
15006W        W31080  18.581  13.904  14.251  0.0189 -0.0015 -0.0705
15007W        W31081  18.602  11.441   4.550 -0.1025 -0.0175 -0.0993
15008W        W31082  13.523   8.140   4.892 -0.1420  0.1468  0.0063
15009W        W31083  13.922   5.529  10.761  0.0756  0.1343  0.1143
15010W        W31084  15.971   4.673   1.946  0.4269 -0.0161  0.0331
15011W        W31085   9.830  17.915  13.316  0.0540 -0.0001  0.0875
15012W        W31086   7.462   7.658   2.179 -0.0648  0.0306 -0.3143
15013W        W31087   0.261  15.325  10.614 -0.1549 -0.1541  0.1463
15014W        W31088  13.416  15.598   3.747  0.0409 -0.1908  0.2316
15015W        W31089   7.423  16.619   3.984  0.3949 -0.0018 -0.0442
15016W        W31090   8.146   6.085  12.136  0.1714 -0.0250  0.1026
15017W        W31091   5.284   1.557  12.232  0.1130 -0.3054 -0.2531
15018W        W31092  13.662   6.246  14.883 -0.0204  0.0852  0.0234
15019W        W31093   7.849   6.214  14.363 -0.3821  0.0276  0.1497
15020W        W31094   2.378  14.433  13.104 -0.0143 -0.0667 -0.0911
15021W        W31095  16.725   6.890   5.157 -0.0429 -0.3445  0.4092
15022W        W31096   0.426   0.333  14.765  0.0645  0.0213 -0.1299
15023W        W31097  15.439  16.943  10.421 -0.0378  0.1977 -0.0631
15024W        W31098   8.760  18.165   4.077 -0.0501 -0.0405  0.0175
15025W        W31099   8.094   5.877  14.696  0.1272 -0.0904  0.2081
15026W        W31100   9.827   4.290   0.123  0.0459 -0.0865 -0.1409
15027W        W31101   9.517  17.407   9.516  0.1547  0.2336 -0.1127
15028W        W31102   7.145   7.910  11.164  0.3469  0.0523  0.3743
15029W        W31103  16.575  12.583   1.433  0.0424 -0.0371 -0.0956
15030W        W31104   0.014  14.160   3.779 -0.1415  0.3997  0.3902
15031W        W31105  13.540  11.979   5.156  0.2602  0.4343  0.0558
15032W        W31106  11.211  18.430   2.010  0.0422  0.2201  0.4731
15033W        W31107  11.015   4.592  13.137 -0.1142 -0.0050  0.0019
15034W        W31108  13.483  14.013   1.398 -0.0367  0.2329 -0.0014
15035W        W31109   9.610  10.729   3.370 -0.0865  0.0388  0.0968
15036W        W31110   0.627   4.351   5.149 -0.1308  0.2671 -0.2191
15037W        W31111   7.774   3.451   5.459  0.1168 -0.3877  0.2962
15038W        W31112  13.569   5.594  14.181  0.0909 -0.1960  0.0698
15039W        W31113   2.481   6.662  11.562  0.1315 -0.0764  0.0949
15040W        W31114  11.032  15.837  10.854 -0.3140  0.4173 -0.0748
15041W        W31115   2.870   1.266   1.473  0.2978  0.3803  0.2806
15042W        W31116  17.190   2.741   9.730 -0.3296 -0.3050 -0.1424
15043W        W31117  18.419  11.556  14.870  0.2381  0.1848 -0.0280
15044W        W31118   8.113   4.459  12.284  0.3054  0.1188 -0.0569
15045W        W31119  13.023   9.540   2.919  0.0855 -0.4107 -0.0437
15046W        W31120  15.441  11.457  11.128  0.1555 -0.0276 -0.1599
15047W        W31121  17.184   6.294   2.738 -0.0199 -0.0743  0.2291
15048W        W31122   2.367   1.868   3.407  0.0859 -0.1207 -0.0128
15049W        W31123   2.732   2.679   0.270  0.2123  0.0622 -0.0610
15050W        W31124   4.209   7.364   0.892 -0.0551  0.1542 -0.1106
15051W        W31125  15.378  14.573   3.404  0.0208 -0.0391 -0.0560
15052W        W31126  15.973   6.915   0.698 -0.0790  0.0608 -0.0604
15053W        W31127   7.433   2.151  11.240 -0.2821  0.1054  0.2313
15054W        W31128   4.507   9.702   2.400  0.0947 -0.0516 -0.1600
15055W        W31129   5.565  12.270  14.806  0.0346 -0.6307 -0.0849
15056W        W31130   1.066   0.791  13.590  0.0488 -0.0112  0.2526
15057W        W31131  19.262  11.134   4.028  0.3818 -0.1882 -0.1233
15058W        W31132  16.373  12.883  10.632  0.2119  0.0385  0.0134
15059W        W31133   5.182   8.075   5.550  0.1196 -0.3165 -0.1633
15060W        W31134   8.141  15.408   2.638  0.1017  0.2143 -0.1375
15061W        W31135   5.741  16.405   0.859  0.3318 -0.0520  0.0455
15062W        W31136   5.369   8.016   2.585  0.3033  0.1444 -0.4220
15063W        W31137   3.886   4.103   3.894  0.1526  0.0393  0.5273
15064W        W31138   7.315   0.444  10.053 -0.1512  0.3322 -0.0944
15065W        W31139  19.261  12.414   2.012  0.1450  0.1186  0.0702
15066W        W31140  17.031   6.876  10.625 -0.5686 -0.3025  0.2400
15067W        W31141   6.576  13.949  12.442 -0.1241 -0.0158 -0.1075
15068W        W31142  19.259   4.822  12.701  0.2068  0.1744  0.0813
15069W        W31143   5.195  10.558   2.784 -0.2889 -0.2924  0.2162
15070W        W31144   8.884   8.634  14.763 -0.2303 -0.0852  0.0923
15071W        W31145  13.103  10.773  14.348  0.0479 -0.0492  0.1971
15072W        W31146   0.131   7.625  12.981 -0.2175 -0.0327  0.0044
15073W        W31147   4.971   9.344   2.558 -0.0569 -0.0307 -0.3479
15074W        W31148   2.285  12.409   1.943 -0.2022 -0.0382  0.3985
15075W        W31149  13.176   2.475   3.257  0.2919  0.1885 -0.0154
15076W        W31150  17.348   1.681  10.313  0.0896 -0.3226  0.1146
15077W        W31151   6.306   4.467  12.500 -0.1018  0.2795  0.1412
15078W        W31152   5.911   3.044   1.692  0.0920 -0.0452  0.0658
15079W        W31153  18.624   1.636   0.663  0.2213 -0.2862 -0.1378
15080W        W31154   5.257  14.239   4.959  0.0551 -0.2442 -0.0809
15081W        W31155   1.540   7.744   2.849 -0.1400 -0.2356 -0.2552
15082W        W31156  16.381   0.595  13.591 -0.2642 -0.0111 -0.0835
15083W        W31157   5.820  13.964  14.018 -0.0420  0.2327 -0.0503
15084W        W31158  16.842  18.588  11.706  0.0226  0.2102 -0.2648
15085W        W31159   6.558   3.428   1.211  0.0336 -0.2251 -0.0684
15086W        W31160   0.254   8.262   4.080 -0.0901 -0.3265 -0.0652
15087W        W31161   6.438  14.839   5.185 -0.3163  0.4124  0.1951
15088W        W31162  12.143   0.216  10.721 -0.1537 -0.0182  0.0584
15089W        W31163  13.377   2.795  11.621  0.1749 -0.2484  0.0939
15090W        W31164   7.120  12.285  13.312  0.4233 -0.3089 -0.1193
15091W        W31165  12.879   8.520  11.306  0.3271  0.0219 -0.0007
15092W        W31166   9.571  13.910   3.679 -0.0880 -0.0615  0.1994
15093W        W31167  13.638  15.393   1.995  0.0828 -0.1039 -0.0917
15094W        W31168   6.269  16.644   1.636  0.0245 -0.0994  0.1271
15095W        W31169   5.269   9.561   3.035 -0.2244 -0.2675  0.0364
15096W        W31170  11.592  14.064   2.928 -0.2908  0.1652  0.0075
15097W        W31171   4.843   2.334  11.471  0.0981 -0.0037  0.0149
15098W        W31172   2.014  17.486   1.202  0.2422 -0.1119  0.1656
15099W        W31173   6.042  11.332  14.148 -0.0728 -0.2293  0.2743
15100W        W31174  14.681  17.266  12.927 -0.0918  0.3623 -0.0915
15101W        W31175  16.561   3.735   1.981  0.1204  0.2261  0.4154
15102W        W31176   2.892   4.646  12.716 -0.1006  0.1121 -0.0978
15103W        W31177   8.249   3.962  13.258 -0.0092  0.1610 -0.2956
15104W        W31178   1.115   1.547  14.113 -0.0138  0.0915 -0.0699
15105W        W31179   6.366  13.511  14.114 -0.1426 -0.0001  0.0166
15106W        W31180  11.463   5.686  13.364 -0.1653  0.3799 -0.2404
15107W        W31181  18.100   0.035  10.873 -0.2913 -0.0148 -0.0078
15108W        W31182   0.119  10.648   3.072  0.0567  0.1878 -0.1535
15109W        W31183   3.550  14.329   3.763 -0.0105  0.2146  0.1411
15110W        W31184   0.136  13.035   2.847 -0.0692  0.2337  0.1053
15111W        W31185   3.291  10.691   2.797 -0.0616  0.1606 -0.1329
15112W        W31186  15.534   1.545   5.075 -0.0575  0.1351  0.2829
15113W        W31187  12.820  14.388  10.721 -0.1156  0.0345 -0.3156
15114W        W31188  11.991   7.164   4.208 -0.1467 -0.0083 -0.2240
15115W        W31189   9.037  16.431  13.536 -0.2475 -0.2070 -0.1082
15116W        W31190  15.030   7.377   1.232 -0.0102  0.0619 -0.1431
15117W        W31191  15.263   2.618  13.342  0.1079  0.1752 -0.1106
15118W        W31192  11.291  15.814  12.201 -0.4279 -0.0036  0.2071
15119W        W31193  15.307   7.458  11.934 -0.0010 -0.0015  0.1147
15120W        W31194   0.640  15.490   3.689  0.0458 -0.2102 -0.1119
15121W        W31195   8.731  17.601   4.453  0.0653 -0.0436 -0.0580
15122W        W31196  17.787  14.841   3.958  0.1223 -0.1246 -0.2636
15123W        W31197  14.963  14.786   3.550  0.0633  0.4258 -0.2997
15124W        W31198   9.623  16.093  10.875  0.1183  0.0516 -0.4316
15125W        W31199   0.354  11.880   0.014 -0.3548 -0.0009  0.0556
15126W        W31200   7.428   0.518   0.330  0.1320  0.2003 -0.3149
15127W        W31201  12.711  10.842   3.814  0.0148  0.0371  0.0484
15128W        W31202  10.536   5.896  14.381  0.0925 -0.1515  0.1812
15129W        W31203   0.478   0.381  13.357  0.0492 -0.1867  0.2672
15130W        W31204   2.545   1.039  12.032 -0.0069  0.0898 -0.0810
15131W        W31205  11.333   3.813  12.706 -0.1916  0.1868  0.1243
15132W        W31206   3.530   8.133  10.040  0.0653  0.4114  0.0287
15133W        W31207   8.815  16.917  14.864 -0.2504 -0.0944  0.1668
15134W        W31208   4.905   1.300   6.119 -0.2490 -0.1162 -0.2066
15135W        W31209   1.851   5.588   2.854  0.0532 -0.1006 -0.0540
15136W        W31210   4.332  16.942   0.187  0.2289 -0.0928  0.1850
15137W        W31211   9.896   2.117  15.039 -0.2001  0.1865  0.3107
15138W        W31212   3.729  10.725   1.849  0.3100 -0.0287 -0.6706
15139W        W31213  11.517   3.069  13.797 -0.0739 -0.1100 -0.3094
15140W        W31214   2.123   8.023   3.560 -0.2745  0.3755  0.0796
15141W        W31215  12.308   4.633  13.194  0.1073  0.0803  0.0899
15142W        W31216  18.500   3.428  13.465 -0.1368  0.1542  0.0037
15143W        W31217   7.581  14.052  12.656  0.2261  0.0948  0.1898
15144W        W31218   6.832   0.600   4.002  0.1751 -0.2367 -0.2628
15145W        W31219  15.975   6.737  12.766 -0.0980  0.0307 -0.1723
15146W        W31220   1.120   1.303   3.856  0.0977  0.0517  0.1115
15147W        W31221   4.873  17.796   4.421 -0.1734 -0.1809 -0.1059
15148W        W31222  12.932   4.850   6.059  0.1719  0.0623 -0.0276
15149W        W31223   3.846   6.905   2.727 -0.0009 -0.2843  0.3521
15150W        W31224   3.340   7.395  13.284  0.0303 -0.0289  0.0189
15151W        W31225  12.388   1.272   0.604 -0.1795 -0.0730 -0.0458
15152W        W31226   2.345  18.616  14.461 -0.0455  0.3121  0.1168
15153W        W31227   4.653  17.756   1.735 -0.0308  0.1072  0.0836
15154W        W31228   3.685   1.253   1.967  0.1786  0.0304  0.2864
15155W        W31229  15.351   3.864   0.504 -0.3714 -0.2912 -0.1864
15156W        W31230   8.086   8.807   5.202  0.1594  0.2410 -0.2425
15157W        W31231  10.672   9.102  12.733  0.2668  0.0213 -0.0232
15158W        W31232  14.014  12.011  12.041  0.1430 -0.0611  0.1513
15159W        W31233  11.084   9.766   1.360  0.3118  0.4130  0.0541
15160W        W31234   6.684  11.539   4.772  0.3518  0.1806  0.0144
15161W        W31235   2.013   0.192   4.381  0.1673 -0.2242 -0.2424
15162W        W31236   5.269  19.262  11.197  0.1520  0.0519  0.0784
15163W        W31237   5.536  14.827  13.831  0.0047 -0.0251 -0.0321
15164W        W31238   8.598   2.300   5.680 -0.0334 -0.1764  0.3886
15165W        W31239   8.072   6.446   2.095  0.1687  0.2427  0.3035
15166W        W31240   8.062  12.308  13.914  0.1184 -0.2059 -0.3819
15167W        W31241  17.558  14.233  10.544  0.1174  0.0634  0.2185
15168W        W31242  11.951   5.140   3.942 -0.0209 -0.0810  0.0583
15169W        W31243  11.291  11.275   4.074  0.0150  0.0958 -0.0262
15170W        W31244   5.800  18.852  13.625 -0.1270  0.4322 -0.0368
15171W        W31245   2.339   8.395  11.268  0.0208  0.4053  0.1000
15172W        W31246  15.663  12.874   0.243  0.0559  0.0102 -0.2439
15173W        W31247  10.477   1.275  13.212  0.2286 -0.1864  0.0639
15174W        W31248   4.976   5.569   2.722 -0.2766 -0.0206 -0.2847
15175W        W31249  17.458   6.677  13.024  0.3741  0.1658 -0.0714
15176W        W31250   9.633  12.995   4.863  0.0815 -0.3437 -0.2084
15177W        W31251  10.604  19.145   2.385 -0.2093 -0.1555 -0.0084
15178W        W31252   4.791   7.879   2.817  0.0796  0.0660  0.3246
15179W        W31253  13.609   4.568   1.724 -0.1077 -0.2964 -0.2361
15180W        W31254   8.016   6.918   2.269 -0.1279  0.1218  0.2043
15181W        W31255  10.483   7.008   1.028 -0.1561  0.1568 -0.2869
15182W        W31256   4.211  12.077  11.671  0.1652 -0.1229  0.0529
15183W        W31257   6.397  12.560   3.737  0.1912  0.0013  0.0218
15184W        W31258   6.397   5.779  14.488  0.0777  0.1887  0.1306
15185W        W31259   5.367  14.655   2.271  0.0799  0.1280  0.0088
15186W        W31260  17.345  14.803  12.899 -0.1313  0.2868  0.0605
15187W        W31261  14.856  17.994  15.044 -0.4154 -0.0909 -0.1380
15188W        W31262  16.715   6.909  13.386 -0.2471  0.0593  0.1189
15189W        W31263  12.370   9.637   4.640  0.0823 -0.3739 -0.2647
15190W        W31264   4.599   2.439  11.033 -0.1729 -0.1169 -0.5481
15191W        W31265   0.107  12.187  12.878 -0.1314  0.1065  0.1199
15192W        W31266  13.560  12.331   4.348  0.5324 -0.0772 -0.3135
15193W        W31267  10.350  13.228  11.971  0.0906 -0.2138  0.3045
15194W        W31268  17.991  18.872  14.052  0.1723 -0.2580 -0.1121
15195W        W31269  18.264   8.728  12.181 -0.1303 -0.1604 -0.3022
15196W        W31270  19.302  14.863   0.264  0.3668 -0.1004  0.2411
15197W        W31271  18.985  11.240  14.621  0.3588  0.0313 -0.0222
15198W        W31272  10.176   9.053  14.492  0.4835 -0.1136  0.0025
15199W        W31273  18.999  19.049  11.436  0.1168 -0.0403  0.3107
15200W        W31274   4.551  12.685   4.991  0.1187 -0.3798 -0.1359
15201W        W31275  12.268  14.644  11.405 -0.0658  0.0001  0.1954
15202W        W31276   8.379   5.734   1.757 -0.0360 -0.0608  0.0689
15203W        W31277   9.699  13.796  13.690 -0.0373  0.1062  0.2106
15204W        W31278   8.391   5.394  10.834 -0.1527  0.0704  0.3768
15205W        W31279  14.146   5.152   5.193  0.3055 -0.0806  0.1290
15206W        W31280   7.689  13.402   4.616 -0.0483  0.1119  0.4238
15207W        W31281   9.054  14.193  10.622  0.1617  0.1473  0.2701
15208W        W31282   2.596   4.657   3.556  0.0356  0.3296  0.0680
15209W        W31283   0.864  17.020   2.777 -0.1961  0.1416  0.2050
15210W        W31284   2.114   6.209  12.306 -0.1577  0.0835 -0.0197
15211W        W31285  15.725   8.591  15.059  0.0246 -0.1022 -0.0271
15212W        W31286  15.228  12.837   3.787  0.1081 -0.0802  0.0642
15213W        W31287   8.541  11.724   4.929 -0.0661  0.1296  0.3420
15214W        W31288  14.706  19.083  14.226 -0.0780  0.0629  0.0756
15215W        W31289  18.052  12.981  13.301 -0.5026 -0.1657  0.1511
15216W        W31290   8.226  11.311   2.897 -0.2410  0.0263  0.0621
15217W        W31291  16.054  15.873   3.664 -0.0644  0.0339  0.0042
15218W        W31292  14.539  12.395  13.819 -0.0318 -0.2995  0.0959
15219W        W31293  18.434  12.379  13.082  0.0275  0.1004 -0.2320
15220W        W31294   9.174   9.630   1.958 -0.2794 -0.0170 -0.0157
15221W        W31295   8.004  17.213  14.820  0.0265 -0.2118 -0.3539
15222W        W31296   1.523  17.557  14.360 -0.1379 -0.0551 -0.0631
15223W        W31297   5.649   0.853   2.072 -0.2102  0.1015  0.2513
15224W        W31298  11.289   5.488   0.809 -0.0346 -0.1692 -0.1666
15225W        W31299   4.083   0.077  12.269  0.3858  0.1506 -0.2037
15226W        W31300   5.418  19.056  12.082  0.0447  0.0600 -0.0896
15227W        W31301  14.846  10.916  12.850  0.1215  0.0537  0.2347
15228W        W31302  15.727   2.173   5.583 -0.1259 -0.0326 -0.0143
15229W        W31303   5.305  14.554   3.261 -0.2043 -0.0632  0.3224
15230W        W31304   5.855  16.004   3.576  0.2453  0.1160  0.1836
15231W        W31305  15.027  15.005  12.661  0.2089 -0.1247  0.0789
15232W        W31306  11.108  15.700  13.707 -0.3098 -0.2171 -0.1778
15233W        W31307  18.610   4.542   4.750  0.1182  0.1810  0.0654
15234W        W31308   6.331   6.495   2.939  0.0468  0.1222 -0.1469
15235W        W31309  11.641  15.800   3.530  0.0821 -0.2286 -0.0747
15236W        W31310  18.419  12.795   4.519 -0.0315  0.3840  0.0775
15237W        W31311  16.376  18.301   3.144  0.1512  0.0700 -0.0334
15238W        W31312   5.915   6.283   3.304 -0.1567 -0.1909  0.0302
15239W        W31313  17.480   2.733   3.660 -0.0600  0.0277  0.4782
15240W        W31314  17.542   7.558  12.184 -0.0158 -0.1880  0.0245
15241W        W31315  14.164  14.457   2.630  0.0133  0.5294 -0.0766
15242W        W31316   4.817  15.650  11.471 -0.1656  0.0468  0.1425
15243W        W31317  13.896   0.260  10.556  0.0820 -0.2304  0.0153
15244W        W31318   4.346   2.268   1.178  0.0400  0.0281 -0.0863
15245W        W31319  16.363   2.411  14.630 -0.2416 -0.2017 -0.1485
15246W        W31320  16.768   5.098   1.543  0.2211 -0.2867 -0.0989
15247W        W31321  13.139  17.666   4.677  0.0184 -0.1137 -0.1447
15248W        W31322  13.240  14.591   2.371 -0.1864 -0.1055  0.3404
15249W        W31323   2.937   4.359  13.327 -0.0214  0.0651  0.0204
15250W        W31324   5.395   1.732  13.063  0.1126  0.2508 -0.2312
15251W        W31325   4.624  15.376   1.637  0.1696  0.1510  0.0679
15252W        W31326   8.483   4.970  11.748 -0.0406 -0.0539  0.0098
15253W        W31327  13.193   1.647  14.900  0.0066  0.1088 -0.0662
15254W        W31328   2.555  16.501   2.313  0.0734 -0.0591 -0.0272
15255W        W31329  18.573  16.941  12.361 -0.1641  0.1395 -0.2399
15256W        W31330   7.313  19.135   3.240  0.1604  0.1390  0.0360
15257W        W31331   5.299   8.303  12.791  0.1008 -0.0465 -0.0232
15258W        W31332  12.512   2.145  13.805  0.1415 -0.0718 -0.3484
15259W        W31333  11.459   3.246   4.868  0.0642  0.0822 -0.0503
15260W        W31334  15.664   6.733   3.679 -0.0075 -0.1263 -0.2901
15261W        W31335  12.188   6.417   1.900 -0.1246 -0.1064 -0.1653
15262W        W31336  18.530  11.515   0.665 -0.1204 -0.0950  0.0229
15263W        W31337   7.494  17.528  11.889  0.0329 -0.0841  0.1328
15264W        W31338   2.587  14.836  11.619  0.1274 -0.1110  0.1505
15265W        W31339   2.886   5.306   0.482  0.2282 -0.1271 -0.1117
15266W        W31340   6.750   2.614  14.341  0.2732  0.1679 -0.0088
15267W        W31341  15.095   1.709   5.045 -0.1663  0.0235 -0.3557
15268W        W31342  18.830  18.389   1.260 -0.3780 -0.0203 -0.4561
15269W        W31343   0.496  18.416  12.996 -0.1558 -0.3125 -0.1499
15270W        W31344  17.082   8.067  12.940 -0.0926 -0.0859  0.2279
15271W        W31345  16.320   4.280  14.654  0.3163 -0.2099  0.0158
15272W        W31346   4.817   9.008   2.095 -0.1993 -0.3176 -0.2211
15273W        W31347  16.236   8.099  13.500  0.4622 -0.0247  0.0486
15274W        W31348   4.523   3.008  14.205  0.0205 -0.1504 -0.3534
15275W        W31349  13.046   9.537  10.412  0.1786  0.0816 -0.0624
15276W        W31350   6.805  17.440  11.375 -0.2975  0.2801 -0.0532
15277W        W31351   3.088  11.603   3.405  0.1416 -0.1215  0.0389
15278W        W31352  14.060  15.560   9.157  0.2803 -0.0406  0.1181
15279W        W31353  17.796   0.579   2.059  0.0985 -0.1498 -0.1639
15280W        W31354  17.289  12.782  12.223  0.0342 -0.1940  0.1209
15281W        W31355   8.578  18.955   2.304 -0.0586 -0.2274  0.0124
15282W        W31356  17.055   8.121   4.282  0.0896  0.0923  0.1242
15283W        W31357  18.636   9.752   2.651 -0.2449 -0.1071  0.0475
15284W        W31358   8.627  13.630   1.798 -0.0260  0.1579  0.0576
15285W        W31359  15.331   7.821  12.289  0.2049  0.2094  0.2770
15286W        W31360  13.998   9.213   0.481  0.3107 -0.2132  0.3363
15287W        W31361  12.971   8.656   1.734  0.0839 -0.0599 -0.0548
15288W        W31362  10.735   5.085  12.548  0.1982  0.2331  0.0836
15289W        W31363   6.275  18.060   1.766  0.2167 -0.1697  0.1596
15290W        W31364   8.302   9.364   1.594 -0.0212 -0.0748  0.3208
15291W        W31365   3.469  14.932   5.050 -0.3705  0.1773  0.1699
15292W        W31366   6.550  17.354  13.805 -0.0775 -0.0873 -0.1399
15293W        W31367  16.656   4.959   5.530  0.0173  0.2309 -0.1949
15294W        W31368  13.368  12.849   1.633  0.1412  0.1267 -0.1768
15295W        W31369   6.814   6.459  12.341 -0.2260 -0.1881 -0.3306
15296W        W31370  12.546   3.977   0.703 -0.0936 -0.0382 -0.3140
15297W        W31371  17.747   7.067  14.300  0.2698 -0.1123 -0.2575
15298W        W31372   2.202  16.053  12.312 -0.1194 -0.1733 -0.2136
15299W        W31373   2.638  16.909   0.907  0.2220 -0.0271 -0.0399
15300W        W31374  17.557   0.274   2.986  0.0872  0.0582 -0.1696
15301W        W31375  17.955   6.193   4.758 -0.0852  0.2529 -0.0809
15302W        W31376   1.594   2.385   3.175  0.0542 -0.1342  0.4126
15303W        W31377  17.700  11.195  11.852  0.1930 -0.2865  0.0068
15304W        W31378   5.795  13.939  10.113 -0.1261 -0.4717 -0.1979
15305W        W31379  18.192   2.574   5.456  0.0098  0.1203 -0.2050
15306W        W31380   6.692   2.833   3.544  0.2388 -0.2392 -0.2075
15307W        W31381   7.596   9.271  14.452 -0.1581 -0.0319  0.0365
15308W        W31382   7.107  15.960   1.138  0.0963 -0.6911  0.2184
15309W        W31383  12.761  14.908  12.341 -0.2332 -0.1373  0.1011
15310W        W31384   3.106   8.958   4.404 -0.2570  0.1631  0.1819
15311W        W31385   0.116   1.139  12.558 -0.0681  0.2692 -0.0654
15312W        W31386  13.041  15.646  13.664  0.1158 -0.0814  0.1673
15313W        W31387   2.580  18.396  13.667 -0.0598 -0.2425 -0.1196
15314W        W31388  18.344  17.814  13.509 -0.0157  0.2657  0.1823
15315W        W31389  10.056   4.762  13.419 -0.1307 -0.0253  0.0128
15316W        W31390  13.930  18.136  12.515 -0.1049 -0.2028 -0.1759
15317W        W31391   5.113   7.427  13.126  0.3252  0.0670 -0.1576
15318W        W31392   1.954  15.757  14.275  0.0718  0.0736 -0.3115
15319W        W31393  16.746  14.062  10.214  0.3006 -0.3769 -0.1844
15320W        W31394  18.996   9.722  12.332 -0.0785 -0.1283 -0.1594
15321W        W31395  10.553   2.239   3.274 -0.0037  0.1490  0.0856
15322W        W31396  15.572  18.221   2.586  0.2029  0.1777 -0.1188
15323W        W31397   0.390  15.625  13.787 -0.0031 -0.1057  0.1340
15324W        W31398  13.814   5.326  12.592  0.0164 -0.1056  0.1334
15325W        W31399   5.423   7.349   4.795 -0.1463  0.0675 -0.1031
15326W        W31400   8.722   2.624   0.945  0.1280 -0.0887 -0.1015
15327W        W31401  17.047  15.488   3.856  0.0484 -0.1458  0.0234
15328W        W31402   8.607   1.775  10.739  0.1306 -0.2916  0.2938
15329W        W31403   3.005  15.881   4.725 -0.0594 -0.2224 -0.1230
15330W        W31404  17.471   8.904   2.238  0.2087 -0.2324 -0.0273
15331W        W31405  12.811  12.153   0.097 -0.3309  0.2471 -0.1091
15332W        W31406  12.135   5.476  14.674  0.2830 -0.0214 -0.1363
15333W        W31407  17.935   0.931   9.489 -0.3504 -0.0475  0.1642
15334W        W31408   1.998  17.028   1.986  0.2028 -0.4644  0.1031
15335W        W31409   7.951  10.756  14.355  0.1615  0.2648  0.0101
15336W        W31410  12.750   1.853  14.858 -0.0279 -0.1681 -0.1401
15337W        W31411   5.621   8.944   2.105  0.1065  0.2403  0.0386
15338W        W31412  10.182  15.399   0.355  0.0320 -0.2260  0.0777
15339W        W31413  11.440  12.442  11.749  0.1414 -0.0463  0.0585
15340W        W31414   6.442   4.681   0.696 -0.3548  0.1549  0.0764
15341W        W31415   0.728   2.219   5.452  0.1407 -0.0319 -0.2203
15342W        W31416  10.382  16.774   5.106  0.1219 -0.0823  0.0298
15343W        W31417  10.066   4.858   3.119 -0.1042 -0.1121 -0.1748
15344W        W31418   9.005   4.768  11.684 -0.0014 -0.1248  0.1748
15345W        W31419   2.236   8.253  12.389  0.0533 -0.3225  0.1111
15346W        W31420   1.849   2.133   3.663 -0.2733  0.0596  0.2054
15347W        W31421  11.005   5.450  13.452 -0.1571 -0.0266 -0.2176
15348W        W31422  16.558   7.249  14.603  0.0988  0.0284 -0.0640
15349W        W31423   5.804   8.205   2.822 -0.0656 -0.2487  0.1555
15350W        W31424  13.654  14.274  14.417 -0.0243 -0.1947 -0.1913
15351W        W31425   6.840   3.436  11.128 -0.0797 -0.1563  0.0387
15352W        W31426   1.859  18.469   0.954 -0.0198 -0.0502  0.1040
15353W        W31427  15.856   6.394   1.145  0.1343 -0.2701  0.2188
15354W        W31428  10.964   4.676   3.154  0.1290  0.1025 -0.0375
15355W        W31429   4.355  17.799  11.743  0.2844  0.0495  0.1592
15356W        W31430   2.595  17.819   3.514 -0.1478  0.2105  0.0432
15357W        W31431  18.761  10.266   2.522 -0.1550  0.2713  0.0796
15358W        W31432   7.879  16.372   1.077  0.0763 -0.2875 -0.0228
15359W        W31433   1.369  18.543   0.448  0.4571 -0.2258 -0.2096
15360W        W31434  14.886   9.799   2.016 -0.0166  0.2362  0.2064
15361W        W31435   7.720   9.790   3.305  0.0541  0.0922  0.0374
15362W        W31436   3.411  15.833  13.431 -0.0379 -0.0998 -0.1887
15363W        W31437   0.918  15.720  11.476  0.3109  0.2938  0.1155
15364W        W31438   4.505  16.938  10.650  0.0732 -0.2816 -0.2886
15365W        W31439   0.755   9.236  12.452  0.0457  0.1139 -0.0453
15366W        W31440   3.579  15.783   5.254  0.0748 -0.4220 -0.2432
15367W        W31441  10.520   8.100   3.485 -0.3738  0.1069  0.0845
15368W        W31442   5.467  15.993  13.521 -0.2066  0.0507  0.1348
15369W        W31443   1.828  13.509   4.004  0.1999 -0.1160  0.1371
15370W        W31444   1.643   9.566  11.901 -0.4272 -0.0050  0.1022
15371W        W31445   0.481   1.459   0.106 -0.3831  0.1201  0.1016
15372W        W31446   8.616   2.137   2.618  0.0266 -0.1270  0.1048
15373W        W31447   0.073   1.754   3.777 -0.0954 -0.1485 -0.2128
15374W        W31448  13.838   1.223   3.713  0.3274 -0.4275 -0.2168
15375W        W31449   5.697   8.179  13.055 -0.0052 -0.0859 -0.3459
15376W        W31450   0.672  12.222  12.825 -0.0251  0.2454  0.0936
15377W        W31451  17.395  17.186  12.563 -0.0070 -0.1069 -0.0700
15378W        W31452  11.944   3.120  11.127  0.1969 -0.2176 -0.0739
15379W        W31453  18.034   1.547   4.576  0.0109  0.0757  0.2950
15380W        W31454   2.690  13.737  10.978  0.0569 -0.2538 -0.2579
15381W        W31455  19.262   0.116   4.981  0.4726  0.2650 -0.4203
15382W        W31456   1.050   6.256  12.184  0.1479 -0.0831  0.0297
15383W        W31457   4.276   6.983   9.883 -0.2288  0.2383  0.0248
15384W        W31458  13.349  14.314   4.482 -0.0617 -0.0442  0.4106
15385W        W31459   4.658  16.709   1.042  0.1581 -0.0649 -0.1663
15386W        W31460  19.296   0.872  10.292 -0.1503  0.0156  0.1093
15387W        W31461   9.925  11.874  13.233  0.2096 -0.0453  0.0547
15388W        W31462   6.103   7.168   5.597  0.1237  0.0108  0.0889
15389W        W31463  16.205   7.715   1.878 -0.2488  0.2932  0.1680
15390W        W31464   4.612   4.864   4.227  0.0177  0.2527  0.0740
15391W        W31465   7.290  10.995   1.489 -0.4738  0.0046 -0.1528
15392W        W31466  14.705   3.717  10.878 -0.0363  0.3282 -0.0696
15393W        W31467   1.399   6.378  13.822 -0.3542 -0.0599  0.0687
15394W        W31468   5.994  12.391  12.954 -0.2206 -0.0076 -0.0820
15395W        W31469  15.430  15.047   4.399 -0.2987 -0.0602  0.1193
15396W        W31470   4.010   5.430   3.939  0.0258 -0.0176 -0.0875
15397W        W31471   0.878   4.309   4.334  0.3284  0.2940  0.4114
15398W        W31472   6.270  16.815  10.482  0.0694  0.2935 -0.1302
15399W        W31473  16.591  18.740   1.266 -0.1917  0.0842  0.0859
15400W        W31474  11.219  15.897  12.729 -0.1253 -0.0820  0.1919
15401W        W31475  17.488  10.788   1.716  0.0633  0.2535 -0.2704
15402W        W31476  14.099   9.680  10.959  0.0423 -0.2483 -0.0213
15403W        W31477   1.996  13.412   1.480  0.0470 -0.0945  0.3118
15404W        W31478   0.432  14.495   3.714  0.2423 -0.2660  0.0091
15405W        W31479   1.798   8.957   4.083  0.1088  0.1286 -0.1906
15406W        W31480   9.066   0.351   2.407 -0.0583  0.0563 -0.0988
15407W        W31481  12.226  16.186  11.024 -0.0278 -0.0849  0.1085
15408W        W31482  12.684  12.111   0.639  0.1212  0.1318 -0.5139
15409W        W31483  17.513   9.643   2.643 -0.2824 -0.1569  0.1552
15410W        W31484   5.656  15.102  12.525  0.0218  0.0661  0.1683
15411W        W31485  10.960  15.096  11.345 -0.2053 -0.3102  0.4873
15412W        W31486   9.210   8.109   0.924 -0.2485  0.0615 -0.0832
15413W        W31487  17.363  16.811  12.927  0.3353  0.0431  0.1361
15414W        W31488   2.923  10.337  14.749  0.3128  0.3164 -0.1851
15415W        W31489  11.424  18.106  14.006  0.3889 -0.0939 -0.2239
15416W        W31490  19.264   4.761   3.211 -0.0573 -0.1887 -0.2389
15417W        W31491  10.757   3.248   1.580 -0.0632 -0.0527  0.1865
15418W        W31492  12.686  12.660   4.399 -0.0517  0.0623 -0.0131
15419W        W31493  15.365  15.841   1.340  0.1447 -0.1200  0.1814
15420W        W31494  10.206  12.975   4.820  0.0876  0.1545 -0.0710
15421W        W31495   2.260  12.575   3.693 -0.0025  0.1216 -0.0759
15422W        W31496  18.996   4.576  10.679 -0.2268  0.0655 -0.1345
15423W        W31497  15.164   4.782   1.514  0.1653  0.2883  0.0116
15424W        W31498   6.493   1.257  14.045  0.1659 -0.0871 -0.0337
15425W        W31499   4.027   6.345   1.972  0.1779 -0.1590 -0.1011
15426W        W31500   0.748  17.526  11.066  0.0367  0.1648 -0.2142
15427W        W31501   4.333  13.954   3.985 -0.1250  0.1027  0.1690
15428W        W31502  18.880  14.362  10.799  0.0587  0.0085  0.0971
15429W        W31503   5.226  11.850  11.761  0.1944 -0.1336  0.2564
15430W        W31504  17.982   2.742   3.736  0.1225 -0.1032 -0.1859
15431W        W31505   2.296  16.924   4.532 -0.2468 -0.0692 -0.0595
15432W        W31506   5.978  10.934   3.356  0.2147 -0.0794  0.2404
15433W        W31507   8.039  13.915   3.671  0.0283  0.3387  0.2777
15434W        W31508  12.525   0.892  11.357  0.0982 -0.0729  0.0978
15435W        W31509   2.150  13.374  11.118 -0.2217  0.0234  0.0733
15436W        W31510   7.139  16.593  11.800 -0.1304 -0.1987 -0.2045
15437W        W31511  10.293  10.536  11.632 -0.1534  0.1358  0.3840
15438W        W31512  17.541  15.001  10.984 -0.1218  0.1445 -0.0603
15439W        W31513   0.318   7.712   1.675  0.4254  0.0132 -0.2526
15440W        W31514   1.056   2.521   3.031  0.0098 -0.2099 -0.2439
15441W        W31515   7.725   6.293   2.802  0.2006 -0.2418  0.3132
15442W        W31516   6.795  18.349   1.849  0.2017 -0.0649 -0.0505
15443W        W31517  19.188  14.564   4.566  0.0871  0.1238  0.1946
15444W        W31518  18.554  10.366   2.995  0.2562  0.3598  0.1333
15445W        W31519   6.928  12.554  10.280 -0.0629 -0.2778  0.1857
15446W        W31520   6.197  11.090  11.631 -0.1524  0.0325  0.2572
15447W        W31521   4.194  13.581  14.146  0.0647 -0.2425 -0.0108
15448W        W31522  14.111   3.998   3.470  0.2217 -0.0980 -0.0058
15449W        W31523   3.259  17.062  14.279 -0.0186 -0.1851 -0.1339
15450W        W31524   9.248   8.277   4.924  0.0551  0.0219 -0.1525
15451W        W31525  18.384   5.790   4.871 -0.2441  0.0186  0.0770
15452W        W31526  14.887  15.745   1.493 -0.1467 -0.1975 -0.0773
15453W        W31527  19.027   2.608   1.448 -0.3511 -0.0929 -0.0203
15454W        W31528  16.564   8.360  13.223 -0.0328  0.1330  0.2807
15455W        W31529  18.613   3.395   0.388  0.0090  0.2201 -0.0564
15456W        W31530  10.025  14.755  14.270  0.1929  0.1652  0.3470
15457W        W31531  18.065   0.449   0.783  0.0453  0.2090  0.1577
15458W        W31532  11.808   8.971   0.263  0.4124  0.0042 -0.0370
15459W        W31533   8.398   6.854  12.823 -0.0004 -0.0159  0.3719
15460W        W31534  12.828  10.194   4.431  0.0246  0.0648 -0.1622
15461W        W31535   4.882  17.055   6.011  0.5118  0.0371  0.0477
15462W        W31536   7.976  14.552   3.502 -0.2639 -0.1062  0.2932
15463W        W31537  12.240   6.899   2.139 -0.0181  0.0572  0.1679
15464W        W31538   9.649   7.832  13.307  0.2098 -0.0954 -0.1184
15465W        W31539   2.256  13.321   3.671  0.0163  0.0497 -0.1118
15466W        W31540   5.504   9.739  14.203  0.1691  0.0616  0.0537
15467W        W31541  17.389  18.649   0.288 -0.1548 -0.0391  0.2272
15468W        W31542   3.365   2.148   4.439  0.1788  0.1369 -0.2919
15469W        W31543   0.546   0.507   3.628 -0.0518  0.0400  0.2139
15470W        W31544   9.100  11.092  11.454  0.1341 -0.0883 -0.1077
15471W        W31545  14.586  18.548  13.743 -0.0887  0.1090  0.0191
15472W        W31546  10.008  18.859   4.770  0.2483 -0.0746  0.1459
15473W        W31547  18.561  15.014   3.347 -0.0343 -0.2043 -0.2451
15474W        W31548  18.397  14.481   9.667  0.0490 -0.3806  0.1229
15475W        W31549   5.144   5.715   4.900 -0.2075 -0.1916  0.5020
15476W        W31550   8.427  13.233  11.941 -0.2818  0.1255 -0.0429
15477W        W31551  16.308  13.755  13.476 -0.1225  0.1105  0.0435
15478W        W31552  13.175   1.504   2.532 -0.2747  0.1718  0.1375
15479W        W31553  17.661  10.574  13.757 -0.0331  0.0554  0.0922
15480W        W31554   0.563   7.824  11.800  0.1520  0.1933 -0.0300
15481W        W31555  10.037   5.474   4.296 -0.1376 -0.1896 -0.0628
15482W        W31556  13.251   7.054   1.253  0.2563  0.0921 -0.1652
15483W        W31557   3.542  18.183  10.753 -0.0239 -0.2108  0.1379
15484W        W31558  10.120   4.790  11.243  0.0591 -0.1466 -0.1243
15485W        W31559   7.632   1.647   2.168  0.3131  0.0178  0.2190
15486W        W31560   4.163   3.609   2.913  0.0136  0.1847 -0.1032
15487W        W31561  11.762  18.507  12.912  0.0616 -0.1514  0.0492
15488W        W31562   3.553  11.259   2.498  0.1400 -0.0880 -0.1877
15489W        W31563  18.124  16.300   2.611 -0.0239  0.1738 -0.0751
15490W        W31564  15.059  13.255  12.143  0.1660 -0.0279  0.2786
15491W        W31565   5.140   8.684   1.258 -0.1066 -0.2019 -0.1905
15492W        W31566  11.878  10.593  15.045 -0.1801  0.0605 -0.0293
15493W        W31567  10.217   2.246  14.004  0.1083 -0.0452  0.0521
15494W        W31568   7.979  11.737  13.426  0.3970 -0.1258  0.1884
15495W        W31569   1.707  18.462  14.055  0.1775  0.2659 -0.2842
15496W        W31570  11.230   1.577  12.844 -0.0895 -0.0062  0.1778
15497W        W31571  10.862   0.561   2.982  0.3274 -0.1699  0.0447
15498W        W31572  14.546   0.279   1.034  0.1235  0.0512 -0.2034
15499W        W31573  15.154  18.857  10.815 -0.2232  0.1226 -0.0941
15500W        W31574   3.385  10.593   0.161  0.0981  0.0921 -0.2940
15501W        W31575  17.068   2.842  11.462 -0.1803 -0.0740  0.3002
15502W        W31576   8.316   5.106   1.582  0.2113 -0.2955 -0.0108
15503W        W31577   7.836   8.632  13.234 -0.0495  0.1349  0.0879
15504W        W31578  11.665  12.287   0.568  0.1443  0.2684 -0.2560
15505W        W31579  11.151  15.388  11.876 -0.3618  0.1727 -0.0490
15506W        W31580  14.002   0.171  13.823 -0.3225  0.2490 -0.2907
15507W        W31581  11.673  16.094  11.875 -0.0587  0.3495  0.0022
15508W        W31582   9.231  15.245   1.646  0.3666  0.0911  0.0064
15509W        W31583   2.789  13.403   0.392  0.0011  0.2470 -0.3406
15510W        W31584   8.098  11.910  10.497 -0.0485 -0.2404 -0.1626
15511W        W31585   9.648   8.360  13.516 -0.0553 -0.2133  0.3593
15512W        W31586  10.227   1.806  14.881 -0.2682 -0.1480  0.2049
15513W        W31587  18.218  17.399   1.466  0.0911  0.4741 -0.0567
15514W        W31588   1.810   9.495   1.366  0.0268  0.2839 -0.1291
15515W        W31589   8.607  16.074   3.484  0.1110 -0.2491  0.0265
15516W        W31590  12.091  15.779   0.332  0.0557  0.0744  0.0342
15517W        W31591   1.770  14.533  13.341  0.0141 -0.1011 -0.0721
15518W        W31592   2.402   8.317  11.924 -0.2705  0.0116 -0.0924
15519W        W31593   2.864  12.921   1.100 -0.0081  0.2442 -0.2643
15520W        W31594   1.237   6.228   1.715 -0.2367  0.0664 -0.1163
15521W        W31595  15.467  14.110  11.205  0.1824  0.2452  0.1259
15522W        W31596  14.126  14.666   1.923  0.0804  0.4079  0.2033
15523W        W31597   9.197  17.595  10.478  0.2267 -0.1870  0.0893
15524W        W31598  18.643   4.948  14.402 -0.2724 -0.0122 -0.2096
15525W        W31599  10.655   6.799  12.123  0.0311 -0.4045 -0.0062
15526W        W31600   6.538   7.725  12.495  0.1960 -0.2560 -0.1567
15527W        W31601   9.773  11.712  14.697  0.1357  0.0636  0.0499
15528W        W31602   1.160  18.777  14.039 -0.1084  0.2879 -0.2923
15529W        W31603  11.994  13.102   1.780  0.0795 -0.0443  0.0151
15530W        W31604  13.270   3.277  11.895  0.0974 -0.0801  0.0757
15531W        W31605   6.521  15.670   2.577  0.1504 -0.0051 -0.1094
15532W        W31606  10.766  13.382  10.782  0.0008 -0.2145  0.0421
15533W        W31607   5.132   7.066   5.165  0.3415  0.0207 -0.1467
15534W        W31608   5.190  10.706  13.119  0.0533 -0.1559 -0.0627
15535W        W31609   9.968  13.059  12.872  0.1096 -0.3015 -0.1821
15536W        W31610   6.240  17.039   0.258 -0.0786 -0.0752  0.1034
15537W        W31611  12.510   3.939   1.509  0.3720 -0.1427 -0.2226
15538W        W31612   3.767   6.141   2.358 -0.0223  0.1737 -0.0037
15539W        W31613  11.388   9.335   5.304  0.1617  0.1416  0.0337
15540W        W31614  17.872  16.002   3.552  0.0393 -0.3011  0.0328
15541W        W31615   0.757   8.373  10.402 -0.1092  0.0572 -0.1165
15542W        W31616   2.772  15.359   0.928 -0.2055  0.0756 -0.0430
15543W        W31617  13.439  13.521  12.475 -0.3616 -0.3465 -0.0127
15544W        W31618   3.479  15.096  15.007  0.4005  0.1489  0.4130
15545W        W31619   6.227  15.374   1.960  0.0932  0.1832  0.1790
15546W        W31620  14.747  12.952   3.180  0.1839  0.2756  0.0099
15547W        W31621   1.933  14.973   3.504 -0.0829 -0.0814 -0.0034
15548W        W31622  18.358  17.639  14.495  0.0531 -0.4183 -0.0319
15549W        W31623   1.862  19.272  10.813 -0.0202  0.2809  0.1502
15550W        W31624   3.834  13.146  13.312 -0.0359 -0.0382  0.1151
15551W        W31625  19.180  17.271   3.700 -0.0429 -0.2196 -0.1048
15552W        W31626   8.637  12.585   3.893 -0.2128 -0.0754 -0.4269
15553W        W31627   9.477   5.522   0.065  0.1712 -0.0288  0.2085
15554W        W31628   1.822   6.524   4.902  0.4270 -0.0027 -0.1799
15555W        W31629   8.602   7.095  14.934 -0.1251  0.0405 -0.2449
15556W        W31630   1.447  13.043  11.788 -0.0261  0.0936 -0.1233
15557W        W31631   4.562  16.510   3.131  0.2935 -0.3027 -0.1306
15558W        W31632  12.942   6.400   0.470 -0.1923  0.2000 -0.4600
15559W        W31633   1.848  12.079   4.679  0.2593 -0.3543 -0.0686
15560W        W31634  12.161  15.573   1.208 -0.0607  0.0286 -0.3930
15561W        W31635  18.489   9.101   1.135  0.0989 -0.0618 -0.0908
15562W        W31636   6.314  17.053  11.957  0.0438  0.2267 -0.0445
15563W        W31637  13.600  17.792  13.231  0.1249  0.0178 -0.3457
15564W        W31638   7.335   5.875   4.964  0.0984 -0.1674  0.0388
15565W        W31639   9.265  11.545  13.645  0.1550  0.1499 -0.1080
15566W        W31640   2.296   7.834  11.865 -0.1420 -0.1004  0.0970
15567W        W31641  19.268   2.589   2.359  0.3273 -0.0001 -0.1012
15568W        W31642  17.035  17.502   8.844 -0.1370 -0.1324  0.0549
15569W        W31643  18.198   2.623  10.657 -0.2442 -0.3294 -0.0542
15570W        W31644  18.518  12.717  10.382 -0.0209  0.3125  0.0009
15571W        W31645  11.388  13.736  14.432 -0.2375  0.1239 -0.1716
15572W        W31646  16.408   4.687   0.013  0.2905  0.1049  0.0953
15573W        W31647  10.893   4.904  14.776  0.0991  0.0351  0.3437
15574W        W31648  18.588  11.485   1.651  0.1850 -0.2300  0.2435
15575W        W31649  12.315   0.351   4.828 -0.3139 -0.1503 -0.2711
15576W        W31650  12.715  17.389  10.722 -0.0309 -0.1018  0.3329
15577W        W31651   5.501  10.764  12.743 -0.0733 -0.4919  0.2214
15578W        W31652   7.478   2.740  11.137  0.1149  0.0367 -0.2421
15579W        W31653  14.265   7.244  14.142 -0.0079 -0.0302  0.0580
15580W        W31654  12.717  15.743  14.187 -0.1493  0.0857 -0.1804
15581W        W31655  10.045  11.462  11.463  0.0204 -0.1352 -0.1992
15582W        W31656   5.215  17.204  12.392  0.0127  0.0242 -0.0565
15583W        W31657  16.142  15.102  13.595  0.1820 -0.3408  0.1413
15584W        W31658   9.614  14.381   0.749 -0.0365 -0.1673  0.0063
15585W        W31659   2.929  15.717   3.560  0.1801 -0.0224 -0.0863
15586W        W31660   4.410  10.553   3.936 -0.1410 -0.1039 -0.1600
15587W        W31661   1.356  16.794  14.907 -0.1379 -0.1236  0.1500
15588W        W31662  14.089  13.497  12.865  0.2181 -0.1232  0.3659
15589W        W31663  10.942  17.570   3.614 -0.0086 -0.0367 -0.0065
15590W        W31664   4.924   8.110   2.409  0.0049  0.1111 -0.2363
15591W        W31665   9.357   7.803   2.366  0.0528  0.1006  0.2023
15592W        W31666   7.425  15.805  11.397 -0.0860  0.0676 -0.1963
15593W        W31667   8.520  14.914  10.279 -0.2063  0.0114 -0.0818
15594W        W31668  17.435  15.992   3.277 -0.0764  0.1935 -0.2318
15595W        W31669   6.051  12.102   5.495  0.0385 -0.1798 -0.2275
15596W        W31670  19.109  17.984   2.550  0.1378  0.1564  0.1887
15597W        W31671   6.004   8.901  11.995 -0.3264 -0.1165 -0.0947
15598W        W31672  11.376   5.935   2.079  0.1534 -0.0579  0.1716
15599W        W31673   4.118  14.668  14.078 -0.2020  0.0451  0.0262
15600W        W31674  19.238  15.546  14.062 -0.2326  0.2739 -0.1609
15601W        W31675  18.643   6.067  14.854 -0.0731  0.0768 -0.2058
15602W        W31676   7.696   2.886   3.928  0.1735 -0.1730 -0.0199
15603W        W31677   9.753  11.767   2.189 -0.1222  0.1491  0.3240
15604W        W31678  19.162  11.160  12.847  0.1743  0.0869 -0.0495
15605W        W31679   3.937   6.055  12.037 -0.3312  0.2174 -0.3080
15606W        W31680  14.685  10.836  14.731  0.2475  0.1768 -0.2546
15607W        W31681   2.727   3.165   0.481 -0.3623  0.1218 -0.0858
15608W        W31682  19.265  12.509  13.725 -0.0843  0.3147 -0.2227
15609W        W31683   3.013   1.707  13.603 -0.2221 -0.1806 -0.1036
15610W        W31684   4.126  12.605   4.218  0.0933 -0.1658  0.0888
15611W        W31685  13.098  13.224   0.149 -0.0073  0.0539  0.1722
15612W        W31686  16.229   5.979  12.502  0.0278 -0.0254 -0.0753
15613W        W31687  17.941   8.554   2.210 -0.1049 -0.3196  0.0056
15614W        W31688  18.118   0.284   0.320  0.1566  0.0453  0.3334
15615W        W31689  15.603  10.999   0.162 -0.3562  0.3294 -0.1178
15616W        W31690   0.631   8.441   0.572 -0.0022  0.1362 -0.0747
15617W        W31691   2.345  18.563   0.748  0.2974 -0.2245  0.0896
15618W        W31692  17.451  18.199  13.803  0.1085  0.0928  0.0216
15619W        W31693   4.902  12.326   2.171  0.0878 -0.1845 -0.0568
15620W        W31694   5.411   6.144  10.051  0.2556 -0.0986 -0.1793
15621W        W31695  13.661   5.274   5.037  0.0886 -0.1718  0.0617
15622W        W31696   8.844  11.163  12.392 -0.1320 -0.3642 -0.1373
15623W        W31697  13.355   0.807   4.758 -0.0516 -0.0203  0.0874
15624W        W31698  18.230  15.050  14.847 -0.3397 -0.0199 -0.1394
15625W        W31699   9.968  15.620  13.281  0.2119  0.0258 -0.0323
15626W        W31700  18.912  13.825  10.010  0.0675 -0.1489 -0.2356
15627W        W31701   9.524  11.059   4.728 -0.0639  0.1036 -0.4177
15628W        W31702  10.667  15.023  13.104 -0.4083  0.2792  0.3746
15629W        W31703  17.395   0.460  12.011  0.0534  0.2699 -0.3235
15630W        W31704   1.055  16.968  10.431 -0.1117  0.4159 -0.1654
15631W        W31705  15.384  10.088   1.886 -0.3661  0.1249  0.0672
15632W        W31706   2.657  15.129  12.542  0.0444 -0.4001  0.0626
15633W        W31707  16.449   2.663   2.669 -0.2939  0.2854  0.2235
15634W        W31708   7.101  10.257  11.553  0.2220  0.0376 -0.3264
15635W        W31709  15.633   8.054   4.033 -0.0585  0.0909  0.0110
15636W        W31710   9.826   6.227  13.177  0.1756  0.0767 -0.1551
15637W        W31711  10.917  12.627  12.445  0.0392 -0.0318  0.0503
15638W        W31712   2.214   9.706  11.987 -0.2338  0.3957 -0.0531
15639W        W31713   1.527  10.295   5.069  0.2726 -0.0628 -0.0329
15640W        W31714  11.144   2.016  14.417  0.2303  0.1134  0.1685
15641W        W31715   9.984  11.398   0.859 -0.2579 -0.0756  0.1370
15642W        W31716   1.790  12.182  14.956  0.0647  0.0755  0.0852
15643W        W31717   1.369   5.145  14.241 -0.0020 -0.2248  0.1372
15644W        W31718  14.971   6.428  13.749  0.2452 -0.0513 -0.0028
15645W        W31719   7.223   9.746   5.468  0.0940  0.3490 -0.1717
15646W        W31720   5.790   2.629  12.222  0.3167 -0.3044  0.1584
15647W        W31721   3.235  14.309   5.009  0.2092 -0.1775  0.1624
15648W        W31722  17.049  17.802   1.606 -0.2819  0.0703  0.1506
15649W        W31723   9.821   7.247  12.658 -0.3120  0.0622 -0.0599
15650W        W31724   4.633  13.032  13.846 -0.0650  0.1080  0.0073
15651W        W31725  10.106   9.772   4.921 -0.3049  0.1274  0.3639
15652W        W31726   5.415   5.549   4.273 -0.1602  0.0880  0.2310
15653W        W31727  14.467   0.435  10.219 -0.0338  0.0038  0.0671
15654W        W31728  13.854  11.060  13.493 -0.1277  0.0462  0.2775
15655W        W31729   4.729   9.014  14.406  0.2243 -0.1114 -0.1368
15656W        W31730  14.487   3.376   0.676  0.0888  0.2929  0.1059
15657W        W31731   5.926  15.572   3.322 -0.1883  0.1330  0.1366
15658W        W31732   6.057   3.708   3.944  0.1466 -0.1782 -0.1184
15659W        W31733  12.387  15.266  12.140  0.0290  0.0113 -0.1377
15660W        W31734   7.684  13.559  11.049 -0.0967 -0.0511  0.0945
15661W        W31735   7.002   9.878   2.241  0.1783 -0.0774 -0.2741
15662W        W31736   7.354  17.539  11.426 -0.4741  0.0106 -0.1631
15663W        W31737   7.651   9.993  12.272  0.0464  0.1479  0.1140
15664W        W31738  11.523  14.458  13.868 -0.0966 -0.2038  0.0485
15665W        W31739   3.423  11.524   4.915 -0.0261 -0.0259 -0.2387
15666W        W31740   4.735  18.620   5.004  0.1198  0.2863  0.1414
15667W        W31741  12.603   7.231   4.834  0.0483 -0.1326 -0.0125
15668W        W31742  16.129  12.773   3.441 -0.0399 -0.1180 -0.1599
15669W        W31743  13.288  10.790   0.978 -0.0387 -0.0787 -0.0639
15670W        W31744   1.764  15.097  14.840 -0.0739  0.2857 -0.0034
15671W        W31745   5.094  19.233   4.780  0.1458 -0.0937 -0.1886
15672W        W31746  13.859  17.035  14.539  0.0962 -0.4365 -0.0348
15673W        W31747  17.768  11.478   1.050  0.1475 -0.0690  0.1772
15674W        W31748   4.894  10.801  10.775 -0.4039 -0.4105 -0.2285
15675W        W31749  13.176   9.124  12.812 -0.3044 -0.0210  0.0163
15676W        W31750  12.889  13.185   0.720  0.0199 -0.4877 -0.2025
15677W        W31751  16.639   5.671  11.057 -0.0007  0.4401 -0.1085
15678W        W31752  18.504   1.553  10.590  0.3456  0.1915 -0.0429
15679W        W31753   3.894  19.251   3.765 -0.0328 -0.0462  0.1198
15680W        W31754   9.590   4.688   0.394 -0.1184  0.1293 -0.0398
15681W        W31755  14.509  14.081   0.672  0.1935 -0.2025  0.1112
15682W        W31756  15.420   7.036  14.667  0.1536 -0.2401 -0.0680
15683W        W31757   1.357  10.066  11.886  0.3945 -0.1603  0.1800
15684W        W31758  13.673   7.459   0.187 -0.4529  0.1221 -0.0883
15685W        W31759   8.615   7.868  12.478  0.2155  0.2494 -0.0978
15686W        W31760  16.577  14.714  12.363 -0.2370 -0.0185 -0.1730
15687W        W31761   6.879   1.972  13.718  0.0389 -0.1372  0.2481
15688W        W31762  18.832  11.999   4.749  0.0532  0.2686 -0.1380
15689W        W31763  11.982   4.557  14.199 -0.3500  0.0445  0.4422
15690W        W31764   3.593  16.948  14.689  0.1040  0.1126  0.0018
15691W        W31765  11.525  19.093  12.269 -0.1745 -0.1247 -0.0615
15692W        W31766   2.687   5.493   4.667  0.1171  0.1325  0.0732
15693W        W31767   3.274  13.867   2.280 -0.0383 -0.0954  0.2942
15694W        W31768   1.715  17.798   3.068  0.1933 -0.1631 -0.1141
15695W        W31769  17.439   8.423   2.203  0.2182 -0.0597  0.1328
15696W        W31770  18.527  14.433   1.017  0.1180  0.0132 -0.0730
15697W        W31771  18.799  17.272   3.227  0.1808  0.3220 -0.1584
15698W        W31772  16.685  11.008   0.022  0.0491  0.2456 -0.0586
15699W        W31773  10.209   5.347  12.047  0.1706 -0.1263  0.1223
15700W        W31774  13.472  13.616   0.110  0.1772 -0.4166  0.1209
15701W        W31775   7.855   8.936  11.588 -0.1819  0.1671 -0.1071
15702W        W31776  15.603  11.317   3.652 -0.3125 -0.0147  0.1659
15703W        W31777  14.889  14.923  10.468 -0.1409 -0.1609  0.0275
15704W        W31778  13.683   9.286  13.745 -0.0533  0.2498 -0.3012
15705W        W31779  12.128  11.707  10.619  0.1129  0.3113 -0.1082
15706W        W31780  16.213  14.199  14.993 -0.0789  0.1521  0.0147
15707W        W31781   6.192   5.234   0.274  0.2168  0.0158  0.1258
15708W        W31782   6.495   3.491   3.724 -0.4148 -0.0070  0.0854
15709W        W31783  14.096  15.431  11.064  0.2025  0.4204  0.2855
15710W        W31784  11.334  13.117   5.137  0.0759 -0.0481  0.0882
15711W        W31785  18.363  16.602  10.835 -0.0693 -0.1307 -0.3027
15712W        W31786  18.619   2.811  14.691 -0.1321 -0.0660  0.0148
15713W        W31787  14.532   8.948  10.635 -0.1013 -0.1264 -0.1042
15714W        W31788  17.509   8.453   2.745  0.0271  0.1153  0.2491
15715W        W31789  19.038   3.657  12.019 -0.1495  0.0345  0.0145
15716W        W31790  18.551   9.318  12.794  0.1390 -0.0929  0.0824
15717W        W31791   3.297  18.892  12.901 -0.2170  0.4948 -0.3395
15718W        W31792   5.743   5.243   1.868  0.0426  0.3083 -0.2832
15719W        W31793  16.320   7.364   0.509 -0.1289  0.3526  0.0282
15720W        W31794   7.403  10.947  14.965  0.2858 -0.0345  0.0751
15721W        W31795  13.613  18.623   5.706 -0.3368  0.2013  0.0300
15722W        W31796   4.052  13.054   0.261 -0.1696  0.0825  0.1924
15723W        W31797   9.778   1.258   4.855 -0.2159 -0.1172 -0.1508
15724W        W31798  11.805   2.784   4.792  0.1281  0.3296 -0.1419
15725W        W31799  12.677  11.855   1.106 -0.1115  0.0665  0.0194
15726W        W31800  12.586  17.666  14.565 -0.1797  0.5551 -0.0748
15727W        W31801  12.853  18.840  12.081  0.2299  0.0018  0.2539
15728W        W31802   1.916   7.111   0.901 -0.0852  0.1328 -0.1605
15729W        W31803   9.184   8.380   1.947  0.0548  0.0010 -0.3535
15730W        W31804   5.949   6.735   4.167 -0.0927  0.5838  0.1531
15731W        W31805   2.798   4.855   2.617 -0.0286 -0.1039  0.1392
15732W        W31806   7.761   6.551  13.851  0.5414 -0.0516 -0.4572
15733W        W31807  15.863   3.663   4.633  0.1070 -0.0851 -0.0897
15734W        W31808  11.480   6.237   2.525  0.2274 -0.0688 -0.2133
15735W        W31809   5.733   1.872  13.434  0.0199  0.0687  0.0912
15736W        W31810  15.018   3.054  13.020 -0.2076  0.1474  0.0233
15737W        W31811  16.093   0.227   1.837  0.2048 -0.2980 -0.0677
15738W        W31812  16.575   1.216  12.040  0.1884 -0.0255 -0.0665
15739W        W31813  12.555  10.442   4.049 -0.0059  0.0449 -0.0266
15740W        W31814  16.130   3.479  14.439 -0.0469  0.0910 -0.1932
15741W        W31815  13.570   2.342   1.668 -0.0099 -0.0508  0.1235
15742W        W31816   1.119  13.882  10.653 -0.1549 -0.1945  0.2423
15743W        W31817   3.603   3.307   0.232  0.1012  0.0690  0.1626
15744W        W31818   4.534  11.322   0.078 -0.0061  0.0246  0.1919
15745W        W31819   5.782  13.884   2.169 -0.1612 -0.3457  0.0672
15746W        W31820  18.092   3.097  10.488  0.1030  0.1486 -0.0616
15747W        W31821  18.352  10.047  10.627 -0.3685  0.3975  0.0384
15748W        W31822   1.307  14.811  12.075 -0.0942  0.0461 -0.1054
15749W        W31823   9.448  14.793   4.296 -0.4056  0.0523 -0.2915
15750W        W31824   2.617   4.104  11.354 -0.1809 -0.1633  0.2752
15751W        W31825  16.136  19.203  11.352 -0.2731 -0.3880 -0.0424
15752W        W31826  10.812   2.665   2.426 -0.2149 -0.1498  0.0283
15753W        W31827   4.845   3.049   1.729 -0.1293  0.1240  0.0682
15754W        W31828   5.627  14.831   0.573 -0.0729  0.1324 -0.3569
15755W        W31829  14.556   2.398  13.240  0.1115  0.2708  0.4037
15756W        W31830   8.245   3.089  14.872  0.0948  0.1311 -0.1088
15757W        W31831   8.936   4.048  14.130  0.1719  0.2773 -0.2107
15758W        W31832  10.621   4.956  12.112  0.2715 -0.3881 -0.2079
15759W        W31833   5.860   4.635  11.628  0.3981  0.0867  0.1251
15760W        W31834  11.550  13.465   5.429 -0.2933  0.0472 -0.2796
15761W        W31835  13.635   3.290   0.399  0.3424 -0.0842 -0.1160
15762W        W31836  13.331  16.496  11.265  0.2497 -0.0269  0.0193
15763W        W31837   5.046  12.029  14.686  0.0570  0.0855  0.1015
15764W        W31838   5.812  11.418  14.978  0.0950 -0.2145 -0.0227
15765W        W31839   3.826   7.802  12.840 -0.5394  0.0423  0.1903
15766W        W31840   5.064  14.854   2.648 -0.0290 -0.0308  0.1831
15767W        W31841  12.445  12.467   2.247 -0.0144  0.0725 -0.0815
15768W        W31842   0.302   3.665   2.984 -0.0029  0.5583  0.4128
15769W        W31843   7.955   9.364  12.909 -0.0330 -0.2443 -0.0521
15770W        W31844   1.055  14.071  14.882  0.0107  0.0837  0.0186
15771W        W31845   5.468  11.384  14.190 -0.2602 -0.1817 -0.1410
15772W        W31846  14.670   4.819  10.820 -0.0884  0.0852  0.2445
15773W        W31847   9.294  10.806  13.128  0.2034 -0.4003 -0.1891
15774W        W31848  10.744   0.064  12.289  0.3665 -0.2680 -0.0978
15775W        W31849   0.606   9.222  14.943 -0.1520  0.1159  0.1774
15776W        W31850  11.082  17.181   3.346 -0.0823 -0.0497 -0.1641
15777W        W31851  14.178   8.358  11.733  0.1482  0.4713 -0.4330
15778W        W31852  16.130   5.097  10.660  0.1636 -0.3166 -0.5060
15779W        W31853   9.261   5.056   0.262  0.0567  0.2444  0.1265
15780W        W31854  18.318  16.756   3.944 -0.2673 -0.2598 -0.1354
15781W        W31855   8.400   9.655  13.071 -0.1168 -0.2866 -0.2626
15782W        W31856  19.009   0.691   0.712  0.0019 -0.1156 -0.0127
15783W        W31857   7.664   6.994  14.104 -0.0991  0.0960 -0.1104
15784W        W31858  10.999   6.372   3.840 -0.0309 -0.0061 -0.3872
15785W        W31859  19.222   3.776  11.114 -0.1961 -0.2187 -0.1940
15786W        W31860   6.919  13.157   3.184  0.3164 -0.2867 -0.1446
15787W        W31861  16.369   6.262   3.441 -0.1104  0.2219  0.0886
15788W        W31862   4.488   0.690   4.854  0.1425 -0.2301 -0.0983
15789W        W31863   5.034  11.432   4.441  0.2142  0.4328  0.3530
15790W        W31864   1.694  18.040   1.119  0.2015 -0.0203 -0.2013
15791W        W31865  13.761   3.190   5.611 -0.1222 -0.0507 -0.1395
15792W        W31866   8.392   4.448  14.557 -0.0323 -0.0696  0.0175
15793W        W31867   0.084   2.446   1.828  0.1379 -0.1081  0.1946
15794W        W31868  11.763  17.237   5.385  0.1285 -0.3893  0.0305
15795W        W31869  15.989   0.702   1.167 -0.0940  0.4487 -0.2331
15796W        W31870   4.582   0.165   1.743  0.0517  0.0623  0.0750
15797W        W31871  11.710  16.515   3.859 -0.2668  0.4868 -0.1591
15798W        W31872   2.574  11.162   0.053 -0.3863  0.0691 -0.1509
15799W        W31873  10.015  14.675   4.199 -0.0661  0.0421  0.2393
15800W        W31874  10.529  11.457  11.500 -0.0383  0.2909  0.5869
15801W        W31875   0.568   3.334  14.240  0.1462  0.1634  0.0951
15802W        W31876   5.298   7.405  10.762 -0.0324  0.2404 -0.0482
15803W        W31877   8.068   8.453   0.873 -0.0573  0.1030 -0.0523
15804W        W31878  12.178  14.128   0.015  0.2754 -0.1351  0.2830
15805W        W31879  19.115   8.656  11.867  0.0849 -0.2047 -0.0196
15806W        W31880  14.516  15.985  12.520  0.0841  0.0535 -0.0165
15807W        W31881   9.651   1.905   4.381 -0.3545  0.2438  0.2226
15808W        W31882   8.423   4.064  11.854  0.2385 -0.2436 -0.4634
15809W        W31883   5.310  18.809   4.917 -0.0741  0.1916 -0.2965
15810W        W31884   6.786  11.914  13.544  0.0494  0.3512 -0.0991
15811W        W31885   8.289   4.597  14.056  0.3312 -0.1671  0.3205
15812W        W31886  17.027  18.214   9.642 -0.1419  0.1685 -0.0926
15813W        W31887  15.408  12.768  11.939 -0.2943 -0.3694 -0.1480
15814W        W31888  16.213   8.977  13.439 -0.0716 -0.1921  0.1647
15815W        W31889   0.211   8.193  13.579  0.0810 -0.1945  0.0575
15816W        W31890   2.919  16.981   0.457 -0.1289 -0.3238  0.1746
15817W        W31891  13.226   3.630  11.500  0.1052 -0.0084  0.0000
15818W        W31892   3.265   9.615  11.965  0.1002 -0.2342  0.1736
15819W        W31893   1.835   4.793  13.861 -0.2999 -0.0525 -0.0457
15820W        W31894   4.590  13.385   3.867  0.2877  0.1281 -0.0279
15821W        W31895   9.383   4.674   2.779  0.3936  0.1849 -0.0424
15822W        W31896   1.732  16.559   5.763  0.3760  0.2341  0.4119
15823W        W31897   7.649   2.097  11.758 -0.1750  0.1207 -0.2217
15824W        W31898  11.208   1.871  13.758 -0.2706  0.4293 -0.0809
15825W        W31899   1.196  11.065  13.304  0.0850 -0.4929 -0.1162
15826W        W31900   9.077  13.840  11.097 -0.0471  0.0126 -0.0836
15827W        W31901  17.646  10.094   1.711 -0.0451 -0.0192 -0.1288
15828W        W31902  11.072   0.864  14.438 -0.1934 -0.3303  0.0495
15829W        W31903  16.462   9.801   2.955 -0.1303 -0.1614  0.1980
15830W        W31904   1.192  10.995   4.524 -0.0443 -0.0513 -0.1118
15831W        W31905   3.624  12.382  14.767 -0.1590 -0.3157 -0.0822
15832W        W31906   2.808   3.463  10.291 -0.1761 -0.1517  0.2174
15833W        W31907  10.119   7.195   3.566 -0.0291 -0.0625 -0.2615
15834W        W31908   2.294  13.560   0.233 -0.1988 -0.1710 -0.1904
15835W        W31909   6.509  11.808   3.532 -0.0067 -0.4539  0.1849
15836W        W31910   3.522   5.792   0.217 -0.4439 -0.1336 -0.0439
15837W        W31911   0.588  17.092   4.075  0.4252 -0.0261 -0.0927
15838W        W31912  16.442   3.131  10.470  0.0965 -0.5175  0.1756
15839W        W31913  15.457  10.918   2.960  0.0748  0.1866 -0.5082
15840W        W31914   8.145  15.179   1.182  0.2678  0.3203 -0.1725
15841W        W31915  11.142  18.941   4.445  0.0041  0.0000 -0.0016
15842W        W31916  18.815  18.842  10.400  0.1841  0.1198 -0.0533
15843W        W31917   4.661   7.245  13.838  0.1815 -0.0463 -0.0840
15844W        W31918  17.937  14.299   3.303 -0.0576 -0.1204 -0.3624
15845W        W31919   8.114  18.075   0.229 -0.2881  0.2186 -0.2731
15846W        W31920   9.179   8.483  14.323  0.0305 -0.3710  0.2049
15847W        W31921   6.365  14.258  11.028  0.1699 -0.1283 -0.1213
15848W        W31922  17.443   2.627  11.792 -0.0828 -0.3794  0.2605
15849W        W31923   8.433   9.842   2.740  0.2024  0.0646 -0.1258
15850W        W31924  15.743   7.682  11.859 -0.2473  0.2873 -0.1426
15851W        W31925   1.924  14.117   3.813 -0.0859  0.0801  0.2963
15852W        W31926   3.596   3.492  12.806 -0.0998  0.1063 -0.2647
15853W        W31927   5.049  10.840  11.308  0.0114 -0.0024  0.0269
15854W        W31928   3.648   0.341  14.748 -0.2656  0.2812  0.2314
15855W        W31929  18.134   2.162   3.010  0.1686  0.1024 -0.2977
15856W        W31930   8.014  17.782   3.162 -0.0355 -0.3932  0.0605
15857W        W31931  11.905   8.194  14.030  0.1945  0.0046  0.0414
15858W        W31932   0.131  13.980   0.805 -0.0516  0.3536 -0.0112
15859W        W31933  10.109  12.269   9.981  0.2397  0.0989 -0.0391
15860W        W31934  17.760   5.375  14.136  0.1332  0.1766 -0.1184
15861W        W31935   4.160   0.328  12.710 -0.0465 -0.1659 -0.0478
15862W        W31936   2.744  16.265  13.870 -0.1123  0.1073 -0.0546
15863W        W31937   8.074  11.850   3.190 -0.0925 -0.0818 -0.3349
15864W        W31938   4.605   2.620   3.767  0.0882 -0.0745  0.2840
15865W        W31939   9.429  18.839  13.038  0.1565 -0.0045  0.1002
15866W        W31940   9.496   1.191  11.858 -0.1194 -0.2232  0.1060
15867W        W31941  11.478  18.150  10.821 -0.2286 -0.2660  0.1852
15868W        W31942   9.036  14.897  12.775 -0.0533 -0.2021 -0.2812
15869W        W31943  17.170  13.883  10.920 -0.0777  0.0861  0.2917
15870W        W31944   2.940   0.592   4.506 -0.0289  0.2830 -0.1044
15871W        W31945  18.138   7.019  14.818  0.2225  0.1045 -0.1117
15872W        W31946   0.988  12.088   4.133 -0.0281  0.1914 -0.1974
15873W        W31947   1.188  12.145   3.269  0.0433 -0.0334 -0.1607
15874W        W31948   1.773   0.164  13.014  0.4116 -0.1488 -0.1665
15875W        W31949  10.449   4.562   3.224 -0.1422  0.1476 -0.1052
15876W        W31950   3.169  18.489  11.566  0.2228  0.1205  0.1304
15877W        W31951   9.921  10.029  13.546 -0.1490 -0.1312 -0.1558
15878W        W31952  17.059   2.966  13.737 -0.2520 -0.1397 -0.1118
15879W        W31953   3.242  10.327   1.634  0.3446 -0.0326 -0.1450
15880W        W31954   9.393   6.028   3.903  0.1874 -0.0166 -0.1008
15881W        W31955  15.352   7.491   0.873  0.0010 -0.0201  0.3679
15882W        W31956   9.301  17.349   0.975 -0.2191  0.3126 -0.0257
15883W        W31957  11.493  17.638  13.160 -0.1464  0.1017  0.2252
15884W        W31958  13.395  14.202  10.074  0.2444  0.1222  0.1555
15885W        W31959   7.544  12.277  14.235 -0.1424 -0.2388  0.0945
15886W        W31960  16.562   5.917  14.572  0.0487 -0.0471  0.0280
15887W        W31961  10.944  18.924  12.454  0.3028 -0.0485  0.0290
15888W        W31962   9.744  10.249   1.417 -0.0826 -0.4152  0.0044
15889W        W31963  10.537  10.977   2.609 -0.1291 -0.0759 -0.2732
15890W        W31964   2.501   5.964   0.971 -0.0954  0.1247  0.2362
15891W        W31965   2.723  18.282   5.051 -0.2328  0.0995  0.0671
15892W        W31966   9.070  16.602  11.915  0.0268  0.3094  0.1219
15893W        W31967   6.225   7.851   3.693  0.0988  0.0109 -0.3055
15894W        W31968  10.189  11.570   3.442  0.0114 -0.0439 -0.0406
15895W        W31969   3.697  18.074   1.920 -0.2077  0.1758  0.0409
15896W        W31970  13.517   2.245   3.005 -0.1233  0.2200 -0.0158
15897W        W31971   6.614  13.034   5.108  0.0976  0.0756 -0.0185
15898W        W31972  13.018   9.481   0.649 -0.1642  0.4736  0.2608
15899W        W31973  13.506   2.193   4.748 -0.0049 -0.1097 -0.1039
15900W        W31974   1.401   6.887   3.147  0.1239  0.0744 -0.2701
15901W        W31975   1.796  11.624  10.479  0.1102  0.0359  0.0345
15902W        W31976   7.146   3.757   0.113  0.3015 -0.1527  0.0764
15903W        W31977   8.655  18.087  12.917  0.1069  0.0515  0.1421
15904W        W31978   5.687   3.573  11.974 -0.2830  0.0940 -0.1479
15905W        W31979  11.784  11.105   3.998 -0.1987 -0.0134  0.1086
15906W        W31980   9.020  14.645  11.393 -0.4799  0.2807 -0.0459
15907W        W31981   2.749  11.160   3.363  0.0455  0.0826  0.1162
15908W        W31982   1.401   2.003  14.211 -0.3106  0.2647 -0.1203
15909W        W31983  15.312   3.530   3.428 -0.1740 -0.0571 -0.1936
15910W        W31984   2.169   2.318   0.634 -0.1322  0.0224  0.5390
15911W        W31985   2.602  16.855   2.696 -0.1072 -0.0484 -0.1383
15912W        W31986  10.388  13.454   2.036 -0.0723  0.0018  0.2711
15913W        W31987  10.341   8.502   3.279 -0.0738  0.1123  0.1322
15914W        W31988   1.781  15.985  12.553  0.0479  0.1976 -0.0538
15915W        W31989   3.193   8.785  12.620 -0.0623 -0.1059 -0.2744
15916W        W31990   6.030  16.175  13.249 -0.1034 -0.1003 -0.0068
15917W        W31991   4.894  19.255  15.018  0.2266  0.1175 -0.1874
15918W        W31992   8.745  10.888   5.032  0.0380  0.1591  0.5210
15919W        W31993   0.264   6.231   4.305 -0.2647 -0.4538  0.2942
15920W        W31994  14.560  19.067  11.967 -0.0123  0.0051  0.0312
15921W        W31995  18.472  12.597  10.875  0.0482  0.0584  0.1360
15922W        W31996  15.364   3.283  12.158  0.0461 -0.0070  0.2500
15923W        W31997   8.011   1.946   3.641  0.0992  0.1369 -0.1213
15924W        W31998  11.519   8.686  11.139  0.0601 -0.2497  0.0141
15925W        W31999  16.078  11.446   3.660  0.2719 -0.0392  0.2464
15926W        W32000  11.826  11.901   1.172 -0.4715 -0.5413  0.1684
15927W        W32001   3.257  12.231   0.057  0.1677  0.3765  0.0308
15928W        W32002   1.473   0.900  11.902  0.0513 -0.1766  0.0441
15929W        W32003  16.564   3.261  11.944  0.0451 -0.3394 -0.3461
15930W        W32004   9.061  18.205   1.287  0.1938 -0.0974 -0.0336
15931W        W32005  10.463   1.429  11.566  0.0420  0.1819  0.1089
15932W        W32006  18.635  18.176  11.809 -0.3140 -0.1743 -0.0128
15933W        W32007   0.041   1.706   0.301 -0.2020  0.1367 -0.1567
15934W        W32008  19.182  18.016   2.061 -0.1573 -0.2287 -0.0909
15935W        W32009  18.010   4.326   3.289  0.0085 -0.2160 -0.1013
15936W        W32010  18.766   0.624  12.340 -0.1851  0.0682 -0.2533
15937W        W32011   8.876   3.475  10.761  0.0473 -0.0828  0.0801
15938W        W32012  14.031  13.825  10.908 -0.0247  0.3537  0.0019
15939W        W32013  14.594  12.148  12.345 -0.1832 -0.0353  0.2448
15940W        W32014  13.792  16.021   0.857  0.1370 -0.0696  0.2527
15941W        W32015  13.041   1.305   0.968 -0.1281 -0.2293  0.0079
15942W        W32016   9.238   3.598   1.367  0.0426  0.2342 -0.1358
15943W        W32017   4.700  14.571  12.243  0.2330 -0.1730 -0.3461
15944W        W32018   0.861   8.792  11.578  0.0572  0.0218  0.1313
15945W        W32019  17.384   8.544  12.053  0.1416  0.0099  0.2286
15946W        W32020   9.219   2.607  14.796 -0.0560  0.0729 -0.0049
15947W        W32021  18.818  11.655  12.823  0.1476 -0.0750 -0.0946
15948W        W32022   5.772  15.104   3.475  0.0949 -0.3597 -0.1050
15949W        W32023  10.201   8.234  12.149 -0.0397 -0.0347 -0.0007
15950W        W32024   5.218  14.289  11.216  0.1349 -0.0226 -0.0087
15951W        W32025  12.244   2.979   0.674  0.2070 -0.0744  0.1640
15952W        W32026   3.737  16.025  14.371  0.3924 -0.1071 -0.0786
15953W        W32027  10.360   9.533  13.882  0.1139  0.0467 -0.1442
15954W        W32028  12.456   9.689  12.680 -0.0093 -0.3604 -0.0426
15955W        W32029  17.420   2.112   1.320  0.2146 -0.0002  0.0036
15956W        W32030   1.528   0.606   2.682  0.1119 -0.1223 -0.1197
15957W        W32031  14.825   6.471   1.255 -0.3723 -0.1187  0.3155
15958W        W32032  17.402   6.418  11.954  0.0373 -0.1587 -0.0718
15959W        W32033  11.278   9.805   2.539  0.3846  0.4191 -0.0468
15960W        W32034   4.786   6.056   4.375 -0.1994  0.4177 -0.0761
15961W        W32035   5.361  14.678   0.008  0.1303 -0.0415 -0.0622
15962W        W32036   8.287   5.376   0.641 -0.1060 -0.0949  0.0902
15963W        W32037   8.370   7.870  13.020  0.0261 -0.2918 -0.0274
15964W        W32038   0.306   8.590  11.369  0.0582  0.1259 -0.1490
15965W        W32039  17.326  11.182   0.275  0.3929 -0.0149  0.0319
15966W        W32040   1.429  15.467  12.640  0.0018 -0.0418  0.2456
15967W        W32041   9.310  17.527  14.171  0.0782  0.2928  0.0731
15968W        W32042   1.070  12.890   2.825 -0.2450 -0.0265  0.1025
15969W        W32043   0.766   0.053  13.127 -0.4378  0.0953  0.1073
15970W        W32044  12.736  12.681  14.436 -0.2839  0.1365  0.2313
15971W        W32045   6.644   2.504   4.515  0.1669  0.3044  0.0530
15972W        W32046  16.315   5.500  14.766 -0.2925  0.0186 -0.1554
15973W        W32047  11.666   7.485   3.512  0.0333  0.2184 -0.0006
15974W        W32048   7.352   6.671  14.422  0.0338 -0.1921  0.1271
15975W        W32049  11.798   9.758  13.914 -0.1266 -0.0887  0.1357
15976W        W32050   5.251  14.357   0.901  0.0747  0.0742  0.3492
15977W        W32051  15.743   1.177   3.921  0.2982 -0.2076  0.1476
15978W        W32052   5.479   2.810   0.857  0.0655  0.0998  0.2762
15979W        W32053  11.853  18.707   1.766  0.2542 -0.0863 -0.3104
15980W        W32054   2.368   3.932   4.225  0.1577  0.2727  0.3852
15981W        W32055  19.073   5.614  14.024  0.0081 -0.0714 -0.1122
15982W        W32056   9.582   3.594   9.149  0.0565 -0.0568  0.0571
15983W        W32057   6.594   6.827  11.013 -0.0864 -0.0938  0.2302
15984W        W32058   1.032  13.235   5.386  0.1138 -0.0334 -0.0811
15985W        W32059  11.216   5.749   1.264 -0.1540  0.1359 -0.0469
15986W        W32060   9.769  10.827  11.000  0.1558 -0.0521 -0.2337
15987W        W32061  19.242   5.162   1.053 -0.0499 -0.1728  0.1036
15988W        W32062  14.467  16.909   2.971 -0.0541  0.0234 -0.1642
15989W        W32063  15.812  13.065   3.108 -0.0282  0.1224  0.1389
15990W        W32064  10.511  19.304   0.827  0.0480 -0.2172 -0.0217
15991W        W32065   3.547   2.056   0.063  0.0074  0.3594 -0.0827
15992W        W32066   1.210  18.394  12.107 -0.0208  0.2989  0.2141
15993W        W32067   7.154  10.311   2.470 -0.0617  0.1459 -0.1789
15994W        W32068   9.591   7.749  13.821 -0.0320 -0.1669  0.2187
15995W        W32069   5.560  17.982  14.598  0.2505  0.2542  0.0789
15996W        W32070   6.670   4.963   4.133  0.2081  0.3047  0.1737
15997W        W32071  13.983   4.431   2.049  0.0329 -0.2867  0.3052
15998W        W32072   5.323  11.181   1.148  0.0685  0.2690  0.2914
15999W        W32073  14.590  11.994  10.655  0.2302  0.1981 -0.4015
16000W        W32074   0.279   7.544  14.391 -0.0323  0.1743 -0.0480
16001W        W32075  15.490  19.112   4.550 -0.2762 -0.0219 -0.1220
16002W        W32076  10.616  12.088   2.628  0.2418  0.3060  0.0131
16003W        W32077  10.298  14.712   2.190 -0.5142 -0.1270  0.1027
16004W        W32078   1.127  10.471   3.782 -0.3090  0.2417 -0.0227
16005W        W32079   5.053  18.882   2.341  0.2899 -0.0526 -0.0254
16006W        W32080  10.937   6.927  13.230 -0.0153 -0.1897 -0.0160
16007W        W32081   1.546   8.669   3.346 -0.0364 -0.1798 -0.1320
16008W        W32082  17.939  13.825   0.410 -0.1330  0.0774  0.1640
16009W        W32083   7.599  13.081  14.506 -0.0142 -0.1966  0.0420
16010W        W32084  10.916  15.000  14.001  0.0263 -0.0126  0.1174
16011W        W32085   0.809  11.122   4.166  0.0763  0.0038  0.0569
16012W        W32086   4.954   3.537   0.347 -0.2713 -0.2691 -0.1996
16013W        W32087  11.593   0.533   5.598 -0.0907 -0.4226  0.1401
16014W        W32088   9.231  12.335  13.189  0.2038 -0.0357  0.3925
16015W        W32089   3.345   6.931   5.121  0.0680 -0.4130 -0.1630
16016W        W32090   9.547  15.199   3.931 -0.2710 -0.2699  0.0240
16017W        W32091   7.838  17.785   4.736 -0.0502 -0.1229 -0.3343
16018W        W32092  17.959  13.497   2.523  0.1559  0.0607  0.0222
16019W        W32093  18.730  11.884  11.026 -0.2251 -0.1110 -0.0192
16020W        W32094  12.264   4.106   3.313  0.3100 -0.0704  0.0954
16021W        W32095  16.463   8.229  12.757  0.1657 -0.2094 -0.1031
16022W        W32096   9.677   2.861  13.253  0.0123 -0.0931 -0.1090
16023W        W32097   0.909  10.894  11.671 -0.2773  0.0793  0.0389
16024W        W32098  16.666   4.968  13.946  0.1866  0.3177 -0.1936
16025W        W32099   8.478  13.565   4.935  0.3861 -0.1208  0.1133
16026W        W32100  16.232   3.780  14.832  0.0824 -0.2160  0.0448
16027W        W32101   0.995   0.489   0.454  0.2478  0.0837 -0.2128
16028W        W32102   1.601  18.777  10.630  0.0638 -0.0876  0.3316
16029W        W32103   5.489  14.062   0.184 -0.0380 -0.0029 -0.1136
16030W        W32104   4.977  17.384   2.509 -0.4287 -0.0116 -0.2469
16031W        W32105  11.791  17.376   1.856  0.1378 -0.3126 -0.1118
16032W        W32106   3.018  18.579   4.792 -0.0029  0.1705  0.1484
16033W        W32107  15.074   9.913  11.826  0.1739 -0.1862 -0.0744
16034W        W32108   8.182   6.395   1.038 -0.4558 -0.0697  0.0750
16035W        W32109  19.036   3.871  12.574 -0.0047 -0.2507  0.1619
16036W        W32110  12.385   9.815   2.772  0.1067 -0.1221 -0.1824
16037W        W32111   3.348  18.727  14.555 -0.3045  0.0836  0.3543
16038W        W32112  13.603   0.566   2.530 -0.2473  0.1132 -0.2031
16039W        W32113  18.087   4.528   0.516  0.0321  0.2052 -0.1128
16040W        W32114   4.618   4.091   5.452 -0.1152  0.0104 -0.0036
16041W        W32115  11.864   2.368  12.183 -0.2764  0.0574  0.4413
16042W        W32116  15.835   0.086  10.320 -0.0442  0.1704 -0.0397
16043W        W32117   6.131   8.177  11.085 -0.0116 -0.2141  0.3514
16044W        W32118  14.449  14.719  11.814 -0.1687 -0.2668 -0.2188
16045W        W32119   7.290   2.481   0.678 -0.0738 -0.2939  0.1591
16046W        W32120   6.814   7.188   4.769 -0.0970  0.2132 -0.4955
16047W        W32121   9.300   9.474   2.419 -0.1686 -0.0780  0.3309
16048W        W32122   0.732  12.632   1.087 -0.1995  0.0456 -0.3724
16049W        W32123  16.844   9.022  12.223 -0.5567  0.0455 -0.0292
16050W        W32124   4.578   1.018   5.271  0.2766 -0.3629 -0.2072
16051W        W32125   9.955  14.744  12.192 -0.1488  0.2471 -0.0844
16052W        W32126   5.799  18.876   1.882  0.0472  0.0490  0.3158
16053W        W32127  14.008   5.804  14.741 -0.0827  0.1057 -0.2012
16054W        W32128   6.248   8.854   0.436  0.0780  0.0412 -0.2745
16055W        W32129  15.000   0.606  12.935  0.2753  0.1244  0.1214
16056W        W32130  15.959   9.987  13.684  0.0567 -0.1123 -0.3162
16057W        W32131   2.276   6.736   5.785  0.1061  0.0649 -0.0188
16058W        W32132  17.428   4.202  12.496 -0.0825 -0.1954  0.0735
16059W        W32133   7.910   2.427   4.668 -0.1453  0.0692 -0.1624
16060W        W32134  10.199   0.496  11.614  0.3012 -0.0481 -0.0739
16061W        W32135  14.566  13.741  14.396 -0.0457  0.1535  0.6245
16062W        W32136   1.680   6.799   2.770  0.1839 -0.1559  0.0366
16063W        W32137   4.412   3.482  13.947  0.0397 -0.1890 -0.0854
16064W        W32138   1.702  16.228   4.735  0.1262 -0.0827  0.0544
16065W        W32139   5.293   4.347   1.668  0.0948 -0.0878  0.1666
16066W        W32140  17.009  13.196  12.801 -0.1982 -0.3332 -0.3171
16067W        W32141   6.947  11.898   3.795  0.2439 -0.2102  0.1211
16068W        W32142   7.095  14.996   0.074  0.1520  0.0953  0.0350
16069W        W32143  18.297   3.670  12.181 -0.0678 -0.2088 -0.0171
16070W        W32144  12.442  19.232   1.985  0.3996 -0.2657 -0.1072
16071W        W32145  15.889  18.345   4.217 -0.0892  0.2078  0.1106
16072W        W32146  13.281  14.100   0.325  0.2882  0.1332 -0.0627
16073W        W32147   4.680   0.574   1.074 -0.1743  0.1458  0.2352
16074W        W32148   8.652   7.236   4.175  0.1646  0.4495  0.1027
16075W        W32149  10.527   2.386   3.808  0.1060 -0.1710 -0.1430
16076W        W32150   1.999   6.420  13.769 -0.2678  0.2848  0.0167
16077W        W32151  14.483  10.494   2.673 -0.0823 -0.2698 -0.1911
16078W        W32152   8.764  17.682   2.212  0.0545  0.0757 -0.0937
16079W        W32153  15.708   0.838   0.720 -0.0489 -0.0864 -0.0824
16080W        W32154   0.767   9.415   0.347  0.0410 -0.0978  0.3280
16081W        W32155  15.604  16.677  10.992  0.2427  0.3025 -0.0660
16082W        W32156  17.750  16.224  14.640 -0.1715  0.0524  0.0925
16083W        W32157   1.038   1.248  10.869  0.3307  0.2312  0.2776
16084W        W32158   5.829   2.154   2.066  0.0571  0.2431  0.1325
16085W        W32159  18.635  15.254  10.664  0.1523  0.0944 -0.0372
16086W        W32160   8.233  17.239   3.892  0.1816 -0.1710 -0.0416
16087W        W32161  15.665  12.485   1.286  0.0915 -0.1412 -0.2131
16088W        W32162  10.035   3.330   3.360  0.0470 -0.0465 -0.2536
16089W        W32163  11.744   8.408   4.075 -0.2220  0.0677 -0.1247
16090W        W32164   8.833   7.342   3.526  0.3543 -0.2978 -0.0228
16091W        W32165   9.117  10.550  10.190  0.0312 -0.2938 -0.0836
16092W        W32166   6.502   9.253  12.830  0.0547  0.0277 -0.0105
16093W        W32167   2.315   1.220  11.206  0.0257  0.1007 -0.0933
16094W        W32168  15.449   3.422   0.130  0.1250  0.0040 -0.3589
16095W        W32169   4.628   6.482   4.687 -0.4939  0.1746 -0.0130
16096W        W32170  18.267   1.092  13.677  0.0934  0.0569 -0.0673
16097W        W32171   3.850  11.476  12.700 -0.0867 -0.3704  0.1410
16098W        W32172  14.847   3.580   4.347 -0.1113  0.1122  0.0110
16099W        W32173  10.964  14.012  13.801 -0.4465  0.1357 -0.0911
16100W        W32174   8.153   4.585   0.256 -0.1354 -0.3884 -0.1422
16101W        W32175  16.686   5.345   4.106 -0.2851  0.0564  0.2955
16102W        W32176   4.531   6.177   3.363  0.2101  0.1899  0.1923
16103W        W32177   4.233   0.865  12.818 -0.1763  0.1382 -0.2020
16104W        W32178   9.528  12.028  11.910  0.2443 -0.1540  0.3138
16105W        W32179  12.881  14.819  11.138 -0.0166 -0.1196 -0.1753
16106W        W32180  10.438  13.308  11.486 -0.0213  0.2148 -0.2799
16107W        W32181   5.431   5.213   4.635 -0.4041  0.2569  0.2497
16108W        W32182  16.539  18.321  14.700 -0.0877 -0.2026  0.1403
16109W        W32183   0.443   0.929  10.520 -0.0380 -0.1225 -0.2987
16110W        W32184   9.561  13.787  11.854  0.1261 -0.1293 -0.0019
16111W        W32185   4.721   3.687  11.673  0.2127  0.0989  0.0784
16112W        W32186   1.268   8.016  13.438  0.0794 -0.1866  0.1328
16113W        W32187   2.629   2.590   4.955  0.2393 -0.2252 -0.0866
16114W        W32188  14.917  18.474   4.108 -0.0144 -0.1272  0.0341
16115W        W32189   7.554   2.057   4.966 -0.0993  0.1690  0.1079
16116W        W32190  14.698  15.073   2.063 -0.0649 -0.2893 -0.3901
16117W        W32191  14.794  14.905  11.174  0.0106 -0.0535  0.0657
16118W        W32192  10.517   7.536   1.305 -0.3491  0.1766 -0.3203
16119W        W32193   9.196   2.492  11.376 -0.1029  0.0640 -0.2635
16120W        W32194   2.176  15.990   4.567 -0.0441  0.0990 -0.0407
16121W        W32195   1.528  11.883  12.383 -0.0265  0.3023  0.0491
16122W        W32196  15.659   9.546   4.815  0.1381 -0.1695  0.1119
16123W        W32197  11.860   6.674   3.427  0.0981  0.3657  0.1602
16124W        W32198  18.520   2.917   2.199  0.1401 -0.0940  0.0581
16125W        W32199   8.435  12.575  13.562 -0.0911 -0.0055 -0.2058
16126W        W32200   5.718   2.730   5.200  0.0644  0.1430  0.3061
16127W        W32201   3.839  15.922   2.051 -0.2677  0.0995  0.0935
16128W        W32202  11.049   7.791   2.178  0.3453  0.0368  0.4364
16129W        W32203   6.966  17.006  13.704 -0.3708  0.2199  0.1602
16130W        W32204   4.147   4.995   1.342 -0.2276 -0.3078  0.2732
16131W        W32205   8.527  10.692   0.344 -0.0230  0.1523  0.1214
16132W        W32206   9.999   9.049   4.066 -0.1036 -0.3229 -0.2023
16133W        W32207   8.731   7.199  11.643 -0.1407  0.1216 -0.0094
16134W        W32208  11.860   8.887   4.433  0.2900 -0.1567 -0.1130
16135W        W32209  12.377   8.938  11.597  0.1889  0.4412  0.3249
16136W        W32210   9.026  18.397  13.283 -0.2878  0.5288  0.0719
16137W        W32211   7.345  11.688  12.773  0.0747  0.0820  0.0525
16138W        W32212  11.810   3.427  13.571 -0.1327  0.2676 -0.1085
16139W        W32213  19.251  10.068   3.286 -0.0948  0.0636 -0.0550
16140W        W32214   9.608  17.358   4.154  0.0311 -0.1832 -0.0544
16141W        W32215   9.525  14.142   0.249  0.0458 -0.1076 -0.1077
16142W        W32216  16.388   7.088  11.664 -0.0879 -0.0719 -0.2269
16143W        W32217  13.738   4.252   4.869  0.2486 -0.0389  0.0120
16144W        W32218   1.022   3.937   1.311  0.1123  0.1550 -0.1770
16145W        W32219  15.891  13.831  11.366  0.1425 -0.1193  0.1772
16146W        W32220  17.716  14.130   4.671 -0.1077  0.1173 -0.2098
16147W        W32221  16.588   0.974   9.119  0.1010 -0.1591  0.1462
16148W        W32222  11.634  10.298   2.674  0.1091  0.2446 -0.3182
16149W        W32223   4.799  10.766  13.456  0.0867  0.3997 -0.2502
16150W        W32224   5.747   7.570  10.439  0.0647  0.3175 -0.2093
16151W        W32225  14.847   1.175  13.390  0.1506  0.1245  0.2646
16152W        W32226  11.271   0.085   1.564  0.0449  0.0168  0.0265
16153W        W32227  10.988  13.433   1.010  0.1763 -0.0151  0.2245
16154W        W32228   8.895   2.184  10.999 -0.0165 -0.1966 -0.1795
16155W        W32229  17.615  15.347   1.534  0.0531  0.0904  0.2475
16156W        W32230   3.634  16.684  12.362 -0.1281 -0.0818  0.0676
16157W        W32231   7.714   5.023   5.766 -0.0883 -0.1859  0.0640
16158W        W32232   9.967   9.368  14.884  0.0054 -0.1673 -0.1413
16159W        W32233  15.518  15.899   3.740  0.2036 -0.3277 -0.2392
16160W        W32234  16.041   9.947   1.131  0.1484 -0.0584  0.5455
16161W        W32235   1.937   3.378   5.842 -0.1630 -0.0929 -0.2005
16162W        W32236   4.396   7.068   5.523 -0.0058 -0.1544  0.0509
16163W        W32237  13.766   9.472  12.333  0.0387 -0.0611 -0.1342
16164W        W32238  15.289   8.992  11.109  0.2816 -0.0388  0.3434
16165W        W32239   2.486  10.913  12.605  0.0917 -0.0949  0.1224
16166W        W32240  13.384  15.936  11.803  0.3934 -0.0630 -0.0334
16167W        W32241   0.238  17.946   0.798 -0.0321  0.1552  0.2319
16168W        W32242  19.263   8.013   2.477 -0.3193 -0.0426 -0.0253
16169W        W32243   5.592   9.276  14.338 -0.2469  0.0542 -0.0607
16170W        W32244   9.479   5.181   2.107 -0.3376 -0.1344 -0.4182
16171W        W32245   0.749   6.996   3.430  0.0358  0.0560 -0.0637
16172W        W32246   8.837   8.886  13.561 -0.1270 -0.0427 -0.0255
16173W        W32247   2.334   7.763   1.292  0.0907  0.0117  0.2891
16174W        W32248   6.749  10.018   3.786  0.1698 -0.1485  0.0973
16175W        W32249   9.272  17.575   3.144  0.4461  0.1302  0.1183
16176W        W32250   6.616  14.925  10.828 -0.1196 -0.0639 -0.3692
16177W        W32251   2.471   8.801   2.313  0.0655  0.1024  0.0947
16178W        W32252  10.170   2.650  11.162  0.1820 -0.0634  0.3483
16179W        W32253  13.296   9.735   5.466  0.3515 -0.0567 -0.3258
16180W        W32254  17.538  16.632   9.446 -0.0388 -0.1642 -0.0568
16181W        W32255  18.052  11.726   0.651  0.0903 -0.3086 -0.2160
16182W        W32256  18.176   6.904  12.516 -0.2342  0.4338  0.1155
16183W        W32257   3.225   0.744   1.051  0.2247 -0.0876 -0.2429
16184W        W32258  10.201  11.876   1.959  0.2830  0.2657 -0.0221
16185W        W32259  12.631   7.911   1.311  0.1274  0.1352  0.1990
16186W        W32260  18.854   9.829  10.427 -0.2907 -0.1394 -0.2664
16187W        W32261  16.963  19.170   2.228 -0.3183 -0.1654 -0.3206
16188W        W32262  18.754   9.359  10.432 -0.1261  0.1073  0.1597
16189W        W32263  15.108  18.103   2.259  0.3106 -0.0880  0.0633
16190W        W32264  11.816  13.466  14.892  0.0890 -0.1305  0.0509
16191W        W32265   8.345   7.085   5.083  0.1879  0.0838  0.3760
16192W        W32266   7.633   1.241  12.207 -0.1018  0.1914 -0.1047
16193W        W32267   9.931   6.188  13.774 -0.0371 -0.1050  0.0678
16194W        W32268   0.402   1.907   9.081 -0.1376 -0.3585 -0.0550
16195W        W32269  16.447  13.110   0.252 -0.3108  0.0819  0.0569
16196W        W32270  15.998   6.250  14.103  0.0899  0.1051 -0.2333
16197W        W32271   4.825   5.727  14.819 -0.1726 -0.5139 -0.0223
16198W        W32272  14.986  11.769  10.682  0.1055  0.0032  0.2407
16199W        W32273  14.918  18.963   3.812  0.1629 -0.3651 -0.0116
16200W        W32274   1.688   2.744  12.560  0.2102 -0.1905 -0.0192
16201W        W32275  13.241   3.333   3.682  0.0529 -0.0464  0.0646
16202W        W32276   9.856  13.808   1.079  0.1097 -0.0813 -0.1032
16203W        W32277   5.091  16.031  14.314 -0.1809 -0.0204 -0.1492
16204W        W32278   3.976  15.975   1.550  0.1313  0.0647 -0.0380
16205W        W32279  14.234  16.239   0.875 -0.0333  0.1072 -0.1789
16206W        W32280  10.606  10.512  11.137 -0.4248 -0.2235 -0.2000
16207W        W32281  11.052   6.461  11.893  0.0609  0.0594  0.0077
16208W        W32282   7.913   8.251   1.659 -0.4449  0.0521 -0.4617
16209W        W32283  13.557   9.703  11.041  0.0449  0.2983 -0.0423
16210W        W32284   3.252   2.684   4.374  0.2513  0.3851 -0.1053
16211W        W32285  15.761  10.897   1.836 -0.2345 -0.1318  0.3597
16212W        W32286  15.243  16.281   0.627 -0.0780 -0.0154 -0.0138
16213W        W32287   1.700  11.446   1.418 -0.0060  0.1982 -0.1131
16214W        W32288   2.722  17.495   1.851  0.0077 -0.2318  0.3756
16215W        W32289   5.668   2.665  12.705  0.4054  0.0535 -0.0441
16216W        W32290  12.305  14.390   2.045  0.0312 -0.0362  0.2238
16217W        W32291   0.175   8.502  10.337  0.1906 -0.0384 -0.0077
16218W        W32292   1.217  18.287   5.115  0.1846 -0.2250 -0.2413
16219W        W32293   9.597   4.259   4.240 -0.0457 -0.3099  0.3779
16220W        W32294  11.543   1.533  13.205  0.1187  0.1606 -0.2495
16221W        W32295  17.461  12.277   2.852 -0.1153  0.0229  0.3490
16222W        W32296  14.443  12.825  11.397 -0.1695  0.0059 -0.1525
16223W        W32297   2.365  11.773   4.143  0.3375 -0.1225  0.0439
16224W        W32298   1.011  13.133  13.305  0.2452 -0.0515 -0.1638
16225W        W32299   1.767   2.992   1.113 -0.1040  0.2450  0.1278
16226W        W32300  15.935  16.353  13.778  0.1772 -0.1660  0.4403
16227W        W32301  14.382  14.289  14.475 -0.0852 -0.1827  0.2143
16228W        W32302   6.406   1.210  10.826  0.1004 -0.1007 -0.2774
16229W        W32303  13.358  11.338   2.341  0.4533 -0.0986 -0.2890
16230W        W32304  14.752   0.789  14.296  0.2516 -0.1845 -0.1565
16231W        W32305  12.547   4.499   4.652 -0.2421  0.3369  0.1613
16232W        W32306  12.533   7.006   2.641 -0.1374  0.0223  0.0298
16233W        W32307   9.234  13.840  14.749  0.0820 -0.0842 -0.0248
16234W        W32308  13.322  18.457  10.491  0.1727 -0.0450 -0.4289
16235W        W32309   3.201   8.998   0.165 -0.1023  0.4349  0.0886
16236W        W32310  14.226   3.756   2.583 -0.0084 -0.4241  0.1876
16237W        W32311   6.558  14.726   0.609  0.3665  0.4682 -0.1914
16238W        W32312  16.532  14.684  13.927  0.1786 -0.1969 -0.0019
16239W        W32313  17.401  11.998  12.555  0.3191  0.5221  0.1627
16240W        W32314   8.528  16.941   1.508  0.3565  0.1357 -0.1952
16241W        W32315   6.122   8.529   1.311 -0.3906  0.0660  0.1200
16242W        W32316   9.752  17.836  11.305 -0.2572 -0.1319 -0.0701
16243W        W32317   5.422   7.186   2.970  0.2866  0.1425  0.3825
16244W        W32318  14.885   5.461  12.654  0.0283  0.0079 -0.2336
16245W        W32319   3.701  17.928  11.220  0.0792 -0.1972 -0.2876
16246W        W32320  17.704   3.288   2.042 -0.0072  0.2264  0.0550
16247W        W32321  10.637   1.029   0.608  0.1169 -0.2945  0.2383
16248W        W32322   4.441   5.546   2.536 -0.1726  0.0973  0.1851
16249W        W32323   3.115  17.428   0.349 -0.3525 -0.0552 -0.0749
16250W        W32324  18.702   5.763  11.718 -0.2607 -0.1617 -0.3930
16251W        W32325   1.947   9.338  13.271  0.2245  0.3298 -0.0419
16252W        W32326  16.000   7.594  12.858  0.2370  0.1305  0.1983
16253W        W32327  18.546  12.176  10.353  0.1459  0.1036  0.2144
16254W        W32328  12.185   8.304   3.852  0.3446 -0.0040  0.0500
16255W        W32329  14.224  16.464  10.403 -0.0982  0.0768  0.0247
16256W        W32330   9.746   5.286  14.743  0.1776 -0.0718  0.1080
16257W        W32331   9.938   5.432   5.331  0.0032 -0.1098 -0.0573
16258W        W32332   4.245  15.140  14.200 -0.1352  0.1938  0.5272
16259W        W32333   1.343   1.230  14.385  0.1599 -0.3502 -0.1582
16260W        W32334   4.566   0.992   4.414 -0.2788 -0.0769 -0.2229
16261W        W32335   8.508  11.814   1.647  0.2521  0.0787 -0.0958
16262W        W32336   8.179   6.077   4.897  0.2147 -0.0586  0.0089
16263W        W32337   4.088  18.901   0.088 -0.1097 -0.0777  0.1727
16264W        W32338   1.082  11.913   4.610  0.0044  0.1409 -0.0199
16265W        W32339  17.143   0.177   0.885 -0.2657 -0.2647  0.3240
16266W        W32340   8.495   3.111  10.734 -0.1151  0.1862 -0.0941
16267W        W32341   7.629   7.688  14.675 -0.2533 -0.0323  0.1182
16268W        W32342  16.013   3.937  11.622  0.1147  0.0990 -0.0894
16269W        W32343   8.174   8.935   4.308  0.1789  0.3269  0.2441
16270W        W32344   9.140   8.183   2.939 -0.0415  0.1424 -0.2385
16271W        W32345   9.804  15.530   0.991  0.3115  0.0780  0.0275
16272W        W32346  14.194   1.530   2.655 -0.1657 -0.3430  0.4127
16273W        W32347   4.975  13.001   2.141  0.0149  0.2566  0.0544
16274W        W32348  18.432  13.727  10.751 -0.2267 -0.2954  0.1543
16275W        W32349   2.695  16.866  11.270 -0.2185 -0.1674  0.3144
16276W        W32350   8.227   5.996   2.604 -0.0983 -0.4961 -0.0600
16277W        W32351   3.934  16.002   4.931  0.1305 -0.0629 -0.0528
16278W        W32352  10.134   8.827  11.211 -0.0213  0.2275  0.0962
16279W        W32353  11.813  17.327  13.917 -0.2030 -0.1352  0.1163
16280W        W32354   2.820   6.191   5.023 -0.0333  0.0215  0.0999
16281W        W32355   3.159  16.289  14.928 -0.2715  0.0790  0.0829
16282W        W32356  11.456  10.705   4.314 -0.0694  0.3656 -0.2876
16283W        W32357   3.544  17.664  13.018  0.1616  0.2293  0.0846
16284W        W32358  14.235  14.333  11.571  0.2806  0.3509 -0.1277
16285W        W32359  12.627  16.064  10.640 -0.1794  0.0643 -0.0324
16286W        W32360   0.471  18.216  13.938  0.2329 -0.2988  0.1636
16287W        W32361   6.928   5.925  11.724 -0.1417  0.0888  0.0080
16288W        W32362   5.486  13.778  14.817 -0.0301 -0.1145 -0.2125
16289W        W32363   3.578   6.380   1.811  0.0386 -0.1465  0.3254
16290W        W32364   5.688   5.334  14.825  0.2541  0.1719 -0.4392
16291W        W32365  10.185   7.566   0.041 -0.1416  0.1022 -0.1130
16292W        W32366  17.884  14.531  10.037  0.1903 -0.0114  0.1295
16293W        W32367   9.995  10.368  11.191 -0.2306  0.1143  0.4716
16294W        W32368   2.340   4.736   3.120 -0.0342  0.1386 -0.1302
16295W        W32369  17.900   3.577  10.450  0.1915  0.0870  0.2393
16296W        W32370   8.943  11.666   3.280  0.1805 -0.0635  0.1345
16297W        W32371  14.469   4.736   2.216 -0.2950 -0.1910  0.1564
16298W        W32372  12.164  15.827  12.517  0.1822 -0.1109 -0.1166
16299W        W32373  13.799  12.733  14.542 -0.0358  0.1210  0.0708
16300W        W32374   2.293  19.053   1.531  0.0205  0.1586  0.1905
16301W        W32375   6.146   5.335   1.567  0.0800 -0.0694  0.0043
16302W        W32376   9.160   5.102  12.269  0.2819  0.0207  0.0729
16303W        W32377  19.164  17.177   2.576 -0.1790  0.1955 -0.1921
16304W        W32378  15.959   2.485   1.453  0.1252 -0.1702 -0.2994
16305W        W32379   2.635  13.243  11.816  0.1216 -0.1969  0.0323
16306W        W32380  11.411  15.634   4.951 -0.0972 -0.0378 -0.0467
16307W        W32381  18.086  17.370  10.001  0.2514 -0.0628  0.3278
16308W        W32382  17.637  16.194  14.047 -0.3050  0.1075  0.1398
16309W        W32383   1.518  10.767  10.596 -0.3387 -0.0468 -0.3754
16310W        W32384  12.174   3.670   3.756  0.0509  0.3377  0.0888
16311W        W32385  17.342  17.037  10.661  0.1264  0.4177 -0.2726
16312W        W32386  19.094   0.874  14.043 -0.0645  0.1642  0.3293
16313W        W32387   6.872  18.144  12.244 -0.1351 -0.5903 -0.0518
16314W        W32388  14.849   3.294   2.635 -0.2678  0.1968 -0.3069
16315W        W32389   5.541  11.450   0.745 -0.1225 -0.2281  0.1597
16316W        W32390   9.291   1.333   0.107 -0.1838 -0.2222 -0.3534
16317W        W32391   7.522  11.254   2.434  0.3243  0.3373  0.1634
16318W        W32392  16.706   9.161   3.547  0.0716  0.0158 -0.1145
16319W        W32393  11.643  12.104  13.852 -0.2977 -0.1207  0.1956
16320W        W32394   7.472   5.858  13.907  0.0492 -0.1891 -0.0228
16321W        W32395  16.483  12.917  14.869  0.0672  0.2978  0.0101
16322W        W32396   0.651   3.785   2.652  0.1545  0.0112 -0.2096
16323W        W32397   3.628   4.003  12.787  0.2298 -0.0574  0.1589
16324W        W32398  12.310  13.414  14.640 -0.0735  0.1314 -0.0207
16325W        W32399  17.556  17.632  12.451  0.1327 -0.1207  0.1480
16326W        W32400   6.042   1.714   2.180 -0.0858  0.0182 -0.1980
16327W        W32401  16.949  17.550   3.018  0.0638 -0.1098 -0.1447
16328W        W32402   6.710  17.800   3.259 -0.3444 -0.1500 -0.0861
16329W        W32403  13.190  16.525   3.669  0.2282 -0.0860  0.0180
16330W        W32404  17.021   8.172  12.022 -0.4166 -0.1475 -0.1648
16331W        W32405  18.309  17.601   1.969  0.0341 -0.0228  0.0436
16332W        W32406  11.445   2.526  11.836 -0.1143  0.0894 -0.3240
16333W        W32407   1.152   0.294   1.521 -0.0173 -0.1821 -0.0200
16334W        W32408   2.028   6.997  14.863 -0.0237  0.0885 -0.1867
16335W        W32409   5.649   7.833  12.705 -0.0309 -0.2058  0.2010
16336W        W32410  17.431  12.947   3.384 -0.0891  0.1890 -0.3714
16337W        W32411  13.966   0.615   1.100  0.0628  0.2923 -0.1147
16338W        W32412   4.948  14.333  13.602  0.1399  0.0643  0.0304
16339W        W32413  13.198  14.179  12.550 -0.1906 -0.5063  0.0220
16340W        W32414   0.951   0.779   2.065  0.1364 -0.0903  0.0712
16341W        W32415  11.600   1.671   0.951 -0.2203 -0.1389 -0.2731
16342W        W32416   9.825   3.498  11.034  0.0129 -0.1517  0.1205
16343W        W32417  15.718   3.337   2.207  0.3568  0.3280  0.3889
16344W        W32418  12.974  14.319   1.946 -0.2437 -0.1594 -0.2931
16345W        W32419  17.707  15.195   5.436 -0.1866  0.1598 -0.0046
16346W        W32420  13.116  13.607   3.863  0.1249 -0.0117  0.1618
16347W        W32421   3.084   0.797  13.369 -0.2478  0.1160 -0.1186
16348W        W32422  10.585  12.884   2.303  0.2667 -0.0571  0.0975
16349W        W32423  10.681   5.467   3.561 -0.1331 -0.3845 -0.3065
16350W        W32424   4.839   3.816   4.788  0.0177  0.4225  0.0579
16351W        W32425  14.391  16.197  10.904  0.1969 -0.0823 -0.0639
16352W        W32426  15.849  10.530  12.842 -0.4378  0.3001  0.1227
16353W        W32427   8.703   8.556  13.148 -0.1304 -0.2663  0.1874
16354W        W32428  15.140  18.316   2.851 -0.2682 -0.4384  0.1108
16355W        W32429  18.087  15.718  10.459  0.0924  0.4878 -0.1786
16356W        W32430   4.456   9.437  13.849 -0.3393  0.1438 -0.0456
16357W        W32431   0.720   1.815  12.423  0.1711  0.0850  0.1108
16358W        W32432   7.191  17.777   0.546  0.3654 -0.3271 -0.1106
16359W        W32433  12.195   6.050   4.082  0.4403 -0.1486  0.1423
16360W        W32434   4.384  12.625  13.973  0.0268  0.0989 -0.1510
16361W        W32435  15.037   5.275   0.733  0.0904 -0.0526 -0.1117
16362W        W32436  16.724  12.219  12.606 -0.2724 -0.3107  0.0492
16363W        W32437   1.521   1.481  13.580  0.3233 -0.1841 -0.1158
16364W        W32438   1.757   7.339  11.255  0.0553 -0.0792 -0.0648
16365W        W32439  16.513   2.489  13.290 -0.0028  0.1225  0.1371
16366W        W32440  13.521   8.988   4.443 -0.0054  0.1309  0.0823
16367W        W32441   4.229   9.328  11.275 -0.0036 -0.0776 -0.0898
16368W        W32442  13.758   6.991   4.332 -0.4261 -0.0114  0.3959
16369W        W32443   6.766   0.942  14.453  0.0656  0.1203 -0.0769
16370W        W32444  10.584   8.947  10.499 -0.3280 -0.2696  0.1921
16371W        W32445  11.458   8.322  11.462  0.1300 -0.0182 -0.0417
16372W        W32446   0.998  10.146   5.145  0.1433  0.1658 -0.1526
16373W        W32447  16.277   2.859  11.942 -0.1043  0.3237  0.0713
16374W        W32448  13.990   5.526  13.316  0.0049 -0.1464  0.2196
16375W        W32449  12.488   7.127   4.238 -0.0444 -0.1470  0.5480
16376W        W32450  10.877   9.420   2.477  0.1029 -0.1141  0.0658
16377W        W32451  15.942  13.096  13.253 -0.1811  0.2326 -0.0792
16378W        W32452  17.438   7.889  13.573 -0.0482  0.0137  0.1699
16379W        W32453   7.200  10.127   4.466 -0.0313  0.0056  0.1404
16380W        W32454  12.079  17.073   1.484  0.2634 -0.0967 -0.2805
16381W        W32455   5.413   3.907   4.789 -0.2810 -0.0818  0.1104
16382W        W32456  17.889   2.265  12.466  0.0911 -0.0424  0.2632
16383W        W32457  11.291  11.383   5.022 -0.0994  0.3058  0.3283
16384W        W32458   9.076  13.531   4.257 -0.0103 -0.0662 -0.5085
16385W        W32459   3.082  16.717   0.841  0.3950  0.0912  0.2901
16386W        W32460  10.372   6.192   4.035  0.0735 -0.2411  0.0952
16387W        W32461  17.787   1.612  14.801  0.1902 -0.0358  0.2604
16388W        W32462   2.263  15.301   1.026  0.1834  0.2768  0.0922
16389W        W32463  17.456  12.803  14.093  0.0488 -0.1807  0.2591
16390W        W32464  14.978  13.219   0.937  0.0561 -0.1120 -0.2243
16391W        W32465  17.582   7.808  12.570 -0.0391 -0.0431 -0.0663
16392W        W32466   4.830   7.948   1.449  0.0417  0.0039 -0.3258
16393W        W32467  11.680   1.058  11.451  0.0700  0.2588 -0.0023
16394W        W32468   0.913   7.424  14.227  0.1533 -0.1412 -0.0025
16395W        W32469   0.508   7.072   3.983 -0.1307  0.1051 -0.1873
16396W        W32470  11.798   2.614   2.751  0.0449 -0.0948  0.2008
16397W        W32471  16.531   7.972   4.022 -0.1071 -0.1273 -0.0686
16398W        W32472   9.643   0.715   1.644  0.2118 -0.1653 -0.0537
16399W        W32473   8.052   8.466   5.569 -0.2524  0.0764 -0.0103
16400W        W32474  14.139  12.513   2.644  0.0112 -0.1600 -0.0244
16401W        W32475   7.001   5.954  12.568 -0.0639 -0.0170  0.3690
16402W        W32476  12.266  15.317  10.772 -0.3996 -0.2307  0.0505
16403W        W32477   1.433  17.070  13.325  0.0535  0.2798 -0.1005
16404W        W32478   5.672  18.783  14.173 -0.2509  0.0885 -0.2751
16405W        W32479   1.115   8.318  12.152 -0.0285 -0.0237 -0.3478
16406W        W32480   8.623   4.526  15.058  0.1725 -0.0668  0.0621
16407W        W32481   3.421  12.437  10.344  0.0476 -0.0611 -0.1727
16408W        W32482  11.064  15.321   1.807  0.0754 -0.0111 -0.2339
16409W        W32483  15.857   5.760  13.660 -0.1097  0.1534  0.1212
16410W        W32484  18.758   6.021  10.932 -0.0096 -0.3323  0.2432
16411W        W32485  18.360  14.000   0.085  0.2359  0.0681  0.1704
16412W        W32486  16.922  15.667  12.226  0.0132  0.0352 -0.1589
16413W        W32487   4.088  19.159   2.734  0.1096  0.2838 -0.3151
16414W        W32488  17.733  14.407   2.248  0.0031  0.0195  0.1738
16415W        W32489  17.584   6.427   0.128  0.3679  0.4190  0.2439
16416W        W32490   2.792   5.561   0.946  0.0458  0.2007  0.0577
16417W        W32491   1.758   6.024  10.609 -0.3459  0.2479  0.0294
16418W        W32492  18.374  16.450   0.315 -0.0059 -0.2893  0.0470
16419W        W32493   2.727   1.535  11.216 -0.1438  0.1572 -0.0040
16420W        W32494   8.224   7.438   5.400  0.3533  0.0071 -0.1721
16421W        W32495  18.321   8.638  14.394  0.0741 -0.0112 -0.1074
16422W        W32496   6.378  14.524  12.611 -0.1714 -0.0636  0.1378
16423W        W32497   9.768   9.655   0.245 -0.1274  0.4190  0.0270
16424W        W32498  15.714   8.176  12.208  0.1829 -0.3048  0.0049
16425W        W32499   5.793   8.086  14.317 -0.1383  0.2018  0.0585
16426W        W32500  12.273   3.313   1.385 -0.2943  0.2180  0.0744
16427W        W32501   8.319   5.449  11.668  0.0278 -0.0006  0.0986
16428W        W32502  10.483   3.721   0.854 -0.0710  0.0485 -0.1563
16429W        W32503   4.815   1.836  14.177  0.3201  0.2597  0.0984
16430W        W32504  16.731   3.144  12.382  0.1140  0.0322  0.0648
16431W        W32505  13.211  10.733  10.958  0.1571 -0.0667 -0.0084
16432W        W32506  15.167   2.480  12.802  0.0423 -0.4253 -0.0966
16433W        W32507  11.732  12.196   2.846  0.3367 -0.2257  0.1389
16434W        W32508   9.553  13.240   3.142  0.2190 -0.2019 -0.1229
16435W        W32509   5.023   8.153   1.853  0.1185  0.0674 -0.0569
16436W        W32510  17.556  18.458  10.720 -0.1969  0.3643 -0.0348
16437W        W32511  10.447   9.352  14.794 -0.0954  0.0248 -0.2630
16438W        W32512   8.690  16.210  12.554  0.1165  0.2494 -0.3016
16439W        W32513  11.650  16.895  14.173 -0.1823  0.0328  0.0789
16440W        W32514   7.586   2.079   1.916 -0.2319 -0.2931  0.3028
16441W        W32515   0.858   5.743   1.722  0.2333  0.2785  0.1799
16442W        W32516   4.821  15.346  14.368 -0.1300 -0.0353 -0.0653
16443W        W32517   6.033  16.058  14.701 -0.2111  0.1172 -0.3799
16444W        W32518   3.883   0.603  11.791  0.1119 -0.1682 -0.0846
16445W        W32519   1.192   8.079  13.951  0.0162  0.0523 -0.0451
16446W        W32520   4.128  16.112   4.372  0.2225 -0.0557  0.1376
16447W        W32521   1.361  11.047  11.875  0.5989  0.0181  0.0777
16448W        W32522   6.982  10.267   0.256  0.0585 -0.0009 -0.0121
16449W        W32523   0.539  14.316  11.970  0.1171  0.1294  0.0507
16450W        W32524  15.035  12.876   1.847  0.4104  0.2142 -0.0251
16451W        W32525  12.780   9.587   4.167 -0.1483 -0.3375 -0.2929
16452W        W32526  18.053  15.550   0.524  0.1626  0.1105 -0.1011
16453W        W32527   7.885  13.256  12.444  0.0128 -0.0858 -0.1632
16454W        W32528   5.517   0.518  15.055 -0.2819  0.0437 -0.0493
16455W        W32529   1.918  12.350  10.888  0.0354 -0.0173 -0.0878
16456W        W32530  15.755  10.267  11.526  0.1673  0.0616 -0.0978
16457W        W32531   9.443  17.030   1.517  0.1291 -0.1684  0.1372
16458W        W32532  14.534  17.585   9.946  0.1107 -0.0075 -0.2732
16459W        W32533   4.154   4.469  11.216  0.0975  0.1091  0.1378
16460W        W32534  16.417  16.070  12.521 -0.1904 -0.0293 -0.1289
16461W        W32535  14.613  18.364   4.509 -0.0746 -0.0648 -0.1034
16462W        W32536   0.467  16.681   1.968  0.3298  0.1398 -0.0818
16463W        W32537  16.053   8.941   2.313 -0.1050  0.1395  0.1239
16464W        W32538   4.967   6.379  14.753  0.0445 -0.1751 -0.1572
16465W        W32539   7.768   3.639  12.231  0.1247  0.0581 -0.0688
16466W        W32540   0.232   6.803   1.544  0.5450 -0.0622  0.0836
16467W        W32541   6.303  15.818   5.062 -0.1268  0.1782  0.5050
16468W        W32542   1.626   4.928  13.160  0.2626  0.3610 -0.4075
16469W        W32543   3.340  17.082  13.834 -0.1892 -0.3503 -0.1403
16470W        W32544   4.907  15.108  11.437  0.4043 -0.2775 -0.1324
16471W        W32545  13.091   6.461  12.803  0.3326  0.0425 -0.2496
16472W        W32546   8.870  10.932  14.185 -0.0042 -0.2325  0.1048
16473W        W32547   6.876  16.715  12.827  0.1206  0.1763 -0.0287
16474W        W32548  14.003   0.134  12.643  0.0181 -0.1500  0.0842
16475W        W32549  13.356   6.075   4.384  0.2059  0.1308 -0.1091
16476W        W32550  17.499  12.188   4.570  0.0247  0.2087  0.2882
16477W        W32551   7.915   2.292   4.167  0.1815 -0.0986 -0.1217
16478W        W32552   2.357   5.418   1.635  0.2078  0.0334 -0.0429
16479W        W32553  17.443   7.275   4.046 -0.0384 -0.0769 -0.0702
16480W        W32554   6.709  16.529   0.861  0.1831  0.1775  0.0483
16481W        W32555  10.993  17.269   4.053  0.1072  0.0336 -0.1702
16482W        W32556  17.631  11.718   4.433  0.0220 -0.2086 -0.0608
16483W        W32557  10.896   0.254   1.136  0.1110 -0.1670 -0.0859
16484W        W32558  12.681  10.801  14.663 -0.2223  0.1190 -0.0516
16485W        W32559  17.700   8.890   1.006 -0.2339  0.0478  0.2669
16486W        W32560  11.192  16.744   1.037  0.0772 -0.2594  0.0953
16487W        W32561   5.961   8.739   3.504 -0.3265 -0.1372 -0.0131
16488W        W32562   1.257   3.654   3.310  0.0158  0.0670 -0.0584
16489W        W32563   8.809  16.267   2.389  0.3036 -0.0017 -0.1618
16490W        W32564  18.862  18.939   0.626  0.3281  0.1612  0.0592
16491W        W32565  17.823  13.220  12.766 -0.0706  0.0720  0.1748
16492W        W32566   8.009  18.541   0.439  0.1667  0.1949 -0.1743
16493W        W32567  14.027   6.344  12.495 -0.3476  0.3067  0.4404
16494W        W32568  11.793   5.536  13.780  0.2582 -0.0281  0.1681
16495W        W32569  12.426  13.133  13.866  0.1253  0.0369 -0.1816
16496W        W32570   9.370   6.299  13.493 -0.0280 -0.1103 -0.0731
16497W        W32571  17.952  18.371  14.037  0.0835 -0.0626 -0.1557
16498W        W32572   7.761   4.209  13.231 -0.0552  0.0017  0.0861
16499W        W32573   4.605   4.941   1.034  0.0888 -0.2025 -0.1183
16500W        W32574  17.010  18.894   2.647 -0.2250 -0.0233 -0.2927
16501W        W32575   4.324  14.126  12.835 -0.1128  0.1638 -0.2274
16502W        W32576  15.864   2.205   3.784 -0.1523  0.0819 -0.2954
16503W        W32577  14.870   5.433  11.730 -0.0211 -0.1656  0.1087
16504W        W32578  15.604  12.429  14.527  0.0115 -0.0279 -0.1384
16505W        W32579  12.207  17.040  13.028 -0.1419  0.2102 -0.2469
16506W        W32580  17.201  14.102   9.900 -0.1108  0.0328 -0.4281
16507W        W32581  17.395   4.619  12.787  0.0844  0.0922 -0.0813
16508W        W32582   9.225   7.550   5.427  0.2028  0.0432  0.2241
16509W        W32583  13.727  12.799   2.806 -0.1416  0.0192 -0.1898
16510W        W32584   3.386   3.823   5.344 -0.4144 -0.0102 -0.2584
16511W        W32585   5.401  15.529   4.786  0.0061 -0.3794  0.0266
16512W        W32586   8.535  15.869  15.022 -0.0909  0.0901 -0.2232
16513W        W32587   7.991  12.108   1.731 -0.0410  0.0135 -0.1044
16514W        W32588   6.406   0.559   2.322  0.0659  0.2031 -0.3022
16515W        W32589   3.323  10.887  11.972  0.5348 -0.1477  0.1111
16516W        W32590  16.191   8.497  13.814 -0.1414  0.2247 -0.0063
16517W        W32591   2.633  18.361  10.355  0.3500  0.1071  0.2059
16518W        W32592   9.857  10.349   0.168 -0.0850 -0.0933 -0.3756
16519W        W32593   2.477   1.757   1.376  0.2855 -0.3715  0.0303
16520W        W32594  17.521  16.445  12.219  0.4047 -0.0108  0.1782
16521W        W32595  14.988   1.843  11.064  0.3462 -0.0604 -0.3087
16522W        W32596  14.129   0.367   4.590  0.3924  0.1350 -0.1781
16523W        W32597   7.650  16.382   2.249  0.2834  0.1933  0.1897
16524W        W32598   1.166   0.869   0.186  0.3804  0.3635 -0.2256
16525W        W32599   6.299   5.634  13.313 -0.1978  0.1788  0.0741
16526W        W32600   2.961  15.328   2.751 -0.1992 -0.2971 -0.0663
16527W        W32601   3.151  15.238  14.612  0.1846 -0.0482 -0.0867
16528W        W32602  16.930   9.477  12.038 -0.3584  0.3514 -0.0428
16529W        W32603  13.302  18.217   3.189 -0.1029 -0.1973  0.0446
16530W        W32604   2.594  18.165  14.986  0.0077  0.2409 -0.0599
16531W        W32605   2.636  13.811   4.834  0.0544  0.1832 -0.1711
16532W        W32606   3.738   1.289  11.123  0.4141  0.0662  0.1187
16533W        W32607   9.433  11.018   1.682 -0.1611 -0.3470 -0.1904
16534W        W32608   0.054   5.342  13.695  0.4659 -0.1268  0.0197
16535W        W32609  14.211   6.856  11.767 -0.3138  0.2036  0.0433
16536W        W32610  17.349   2.841  12.857 -0.0758  0.0749  0.3416
16537W        W32611   9.756  11.278  12.199 -0.3361 -0.1182 -0.0974
16538W        W32612  18.916  12.182  14.658 -0.0660  0.0424  0.2169
16539W        W32613   2.763   8.859   0.269 -0.0096 -0.3937  0.1761
16540W        W32614  16.263  14.317  14.090 -0.0324 -0.0573 -0.1951
16541W        W32615   3.621  12.155  11.367 -0.0356 -0.0375  0.0409
16542W        W32616  10.110  10.542   2.441 -0.1227 -0.2947 -0.0018
16543W        W32617  11.575  12.764  14.267 -0.1207 -0.0199 -0.1375
16544W        W32618   6.585  18.403  12.768  0.2023  0.0144  0.0670
16545W        W32619  17.870   6.169   0.985  0.2210 -0.0105  0.0092
16546W        W32620  12.727   9.629  14.029 -0.1461  0.2139 -0.1194
16547W        W32621   7.162   3.592  13.478 -0.0944  0.0361 -0.1788
16548W        W32622  15.918  10.668   0.421  0.0377 -0.3650  0.2927
16549W        W32623  16.794   0.980   4.045  0.0767 -0.0621 -0.1363
16550W        W32624   3.327   0.879  12.820  0.3411  0.1206 -0.2025
16551W        W32625   1.953  16.843  11.292  0.0426 -0.1317 -0.0392
16552W        W32626   9.684   3.535   3.133  0.2024  0.2693 -0.0701
16553W        W32627  17.002   4.572   3.780  0.2560  0.1848  0.0694
16554W        W32628  10.537  13.174   0.698  0.0028 -0.0597  0.0152
16555W        W32629   4.504   8.972  14.897 -0.4485 -0.0370 -0.0204
16556W        W32630   3.705   4.241   2.093  0.2985 -0.1809 -0.3147
16557W        W32631   6.434  10.618  10.943 -0.1309  0.0311  0.1468
16558W        W32632   0.336  11.427  13.081  0.0908  0.1345 -0.0291
16559W        W32633  14.673  10.317  11.285  0.1032  0.1060  0.1110
16560W        W32634   2.925  13.847  14.617 -0.3579  0.3000  0.1354
16561W        W32635   4.522   5.338   3.820 -0.1234 -0.1586  0.0715
16562W        W32636   2.956   5.353   2.899  0.3279 -0.0487  0.0671
16563W        W32637   3.602  14.224  13.485 -0.0203  0.2038  0.1722
16564W        W32638   6.259   6.363  11.553 -0.2113  0.0953 -0.0439
16565W        W32639   1.269   3.344  13.192 -0.1622  0.0043 -0.1242
16566W        W32640   6.924  13.485   3.682 -0.1804 -0.0138 -0.2230
16567W        W32641   5.966   7.146   4.671  0.0673  0.0810  0.1808
16568W        W32642   7.994  18.125  13.054 -0.2497 -0.1497  0.0580
16569W        W32643   2.278   3.489  13.334  0.1592  0.2088  0.0153
16570W        W32644   8.360  15.635   1.384  0.3310  0.1433  0.0828
16571W        W32645  14.785   2.423  14.270  0.4781  0.0489  0.0285
16572W        W32646   0.535   5.830  10.890  0.1857  0.1552  0.3364
16573W        W32647  18.215   4.170  13.019 -0.0161  0.0894  0.3498
16574W        W32648   6.953   6.222   4.849 -0.0377  0.2164 -0.2061
16575W        W32649   4.427  17.560  14.331 -0.2677 -0.3188  0.0259
16576W        W32650   9.713   9.437   3.495 -0.2819  0.0042 -0.0416
16577W        W32651   7.321   6.270   0.750 -0.4204  0.0076 -0.3031
16578W        W32652   0.473  15.822  14.877 -0.0541 -0.0189  0.1449
16579W        W32653  13.747  11.396  10.792  0.1490  0.0480 -0.2918
16580W        W32654   5.841  18.537   2.916 -0.0561 -0.4408 -0.1786
16581W        W32655  16.686  13.823   2.149 -0.2405 -0.2833  0.3006
16582W        W32656   7.162   3.645   3.103  0.5043 -0.0453  0.0192
16583W        W32657  11.026   7.672   4.154  0.1715  0.0544  0.1571
16584W        W32658  12.801   2.294   3.592 -0.2391 -0.2273 -0.1732
16585W        W32659  11.508   9.561  14.626 -0.2861  0.2994  0.1865
16586W        W32660   7.507   4.481  11.625  0.3028  0.0431 -0.1974
16587W        W32661  15.225   7.979  14.506 -0.1756  0.0791  0.0253
16588W        W32662  14.631  10.055   1.691  0.5912 -0.0206  0.0005
16589W        W32663  17.164   3.410  13.440  0.0521 -0.0347 -0.0531
16590W        W32664   4.314  15.739   1.867 -0.0011 -0.2943  0.0784
16591W        W32665   1.808   0.081  11.998  0.2586  0.1332 -0.2027
16592W        W32666   3.311   9.536   0.411  0.1925  0.0811 -0.1271
16593W        W32667   0.753   5.447   3.039 -0.2228  0.1543  0.0615
16594W        W32668  12.295   7.529   5.228 -0.2003  0.0475  0.0886
16595W        W32669   4.721   2.619  13.651 -0.1436  0.0719 -0.0712
16596W        W32670  10.366  16.706   2.076  0.1483 -0.1578  0.0733
16597W        W32671  14.406   1.998  14.389 -0.0741  0.1644 -0.1984
16598W        W32672   0.218   8.029  14.364 -0.1741  0.3802  0.2959
16599W        W32673   7.622  19.097   0.976 -0.1831 -0.1744  0.2048
16600W        W32674   3.655   2.340   3.761 -0.4514  0.0367 -0.0614
16601W        W32675  15.951  11.340  13.998 -0.1467 -0.0080  0.0434
16602W        W32676   2.997   8.656   0.852 -0.0031  0.2152 -0.0153
16603W        W32677  15.520   8.854   0.579 -0.2169 -0.1372  0.2099
16604W        W32678  15.271  16.073  10.775  0.2563  0.3472  0.1647
16605W        W32679   4.614  15.050   3.566  0.0344 -0.0579  0.1067
16606W        W32680   1.788   1.321   0.155 -0.0134 -0.0101  0.1698
16607W        W32681   2.885  10.631  14.254 -0.1097 -0.2526  0.3616
16608W        W32682   2.307   5.529   5.749  0.1036 -0.2116  0.1892
16609W        W32683   8.811   8.646   2.799  0.2340 -0.3912 -0.0210
16610W        W32684   4.153   5.032  11.609  0.0347  0.0543  0.0918
16611W        W32685   6.566  19.135  10.645  0.1644 -0.0436 -0.4338
16612W        W32686   1.584  11.447   3.093  0.2593 -0.1013  0.0036
16613W        W32687  15.142   3.124  10.339  0.0590 -0.0875  0.1086
16614W        W32688  16.689  15.271  13.831  0.2148  0.1883  0.0214
16615W        W32689  16.949   6.304  10.325 -0.2151 -0.4433  0.2457
16616W        W32690   0.511  16.675  13.077 -0.1517  0.2835 -0.0751
16617W        W32691  10.112   6.429   3.406 -0.0401  0.1556  0.0459
16618W        W32692   7.040   2.119   3.729 -0.0787  0.1544  0.2980
16619W        W32693  19.196  16.541  11.441  0.2051 -0.4049 -0.1065
16620W        W32694   4.758   5.033  14.106 -0.0259 -0.2255 -0.0993
16621W        W32695   1.310  15.897  11.827  0.1739 -0.4073 -0.0922
16622W        W32696  12.586   4.942  13.513 -0.0710  0.0077 -0.1691
16623W        W32697   1.564   5.219   3.880 -0.2331  0.1310 -0.1220
16624W        W32698  15.759   5.687   4.595 -0.2117 -0.2110 -0.2283
16625W        W32699  12.526  16.083  14.611  0.3423  0.0191 -0.0491
16626W        W32700  11.597   1.490   0.455  0.2362  0.0493 -0.2914
16627W        W32701   6.823   0.875  13.756 -0.1575  0.0105  0.0123
16628W        W32702  17.258  13.571  11.421 -0.4602  0.0078 -0.2263
16629W        W32703   1.750   2.177   4.204 -0.1192  0.1018  0.0652
16630W        W32704   3.951  11.261   3.617 -0.0492  0.2216 -0.3684
16631W        W32705  14.574   3.825  12.876 -0.2367 -0.0630 -0.0073
16632W        W32706  10.058  11.374  13.037 -0.1053 -0.0313 -0.0096
16633W        W32707  12.935   0.076   2.135  0.0130 -0.0371 -0.0676
16634W        W32708  14.478  10.837   5.134  0.1969 -0.0837 -0.0479
16635W        W32709   6.522   3.115  12.118 -0.2273 -0.0604 -0.1314
16636W        W32710   5.711  14.768   3.091  0.0307 -0.0917 -0.1457
16637W        W32711   2.474   5.258   2.775  0.4694  0.0627 -0.2824
16638W        W32712   8.299   6.012   4.041 -0.2584 -0.0645 -0.1712
16639W        W32713  15.557  18.056   3.048  0.0902  0.2088  0.1392
16640W        W32714   9.391   2.074  12.208 -0.3647  0.2187  0.4434
16641W        W32715   1.225   2.602   4.816  0.0268  0.1151  0.0214
16642W        W32716   0.763   4.860   3.741 -0.1233  0.0039 -0.0905
16643W        W32717   4.879  11.739  13.210  0.0055  0.2019  0.1448
16644W        W32718   1.999   1.640  13.494  0.2987 -0.1894  0.1421
16645W        W32719  12.868  14.175  14.585 -0.3317  0.4454 -0.2483
16646W        W32720  15.474  13.288  13.429  0.0083 -0.0190 -0.1093
16647W        W32721   3.987   4.810  10.670  0.1737  0.1961  0.2826
16648W        W32722   0.609  15.154  10.274 -0.0144  0.0459  0.2104
16649W        W32723  10.534  10.467  14.568 -0.3246  0.0883 -0.1582
16650W        W32724   0.013  17.267   1.335 -0.3925 -0.1590  0.1302
16651W        W32725   1.878  17.666  14.761 -0.0376 -0.0092  0.0113
16652W        W32726  13.860   9.488   2.853  0.0409 -0.0520  0.0500
16653W        W32727  18.367  16.816   2.610  0.0574 -0.1405  0.0314
16654W        W32728  16.076  11.045   2.779 -0.2274  0.0782 -0.0421
16655W        W32729  15.886  17.227  12.022  0.1414  0.2056 -0.1141
16656W        W32730  14.982  18.756   1.278 -0.0336  0.1268  0.2114
16657W        W32731   4.711  18.428   0.672  0.0051 -0.1431 -0.1492
16658W        W32732   5.372   9.274  12.684  0.0953 -0.0070 -0.1327
16659W        W32733   7.498  16.926   2.739  0.0373 -0.2119 -0.0853
16660W        W32734   4.051   3.904   3.269 -0.0285  0.0817 -0.1586
16661W        W32735  15.416   9.961  12.969  0.1324  0.2079 -0.0884
16662W        W32736  13.168  10.226  13.189  0.0537 -0.0219  0.1937
16663W        W32737   6.098   9.199   1.002  0.4018  0.0769  0.1343
16664W        W32738  14.614   5.705  14.061 -0.2194 -0.0923  0.0926
16665W        W32739  17.780   5.203   1.650  0.0135  0.2476 -0.2802
16666W        W32740  10.701   8.430  12.192  0.1872 -0.1037 -0.2772
16667W        W32741   7.795  17.572  13.306  0.2001 -0.1965 -0.2650
16668W        W32742   0.736  10.936  13.352  0.3272 -0.0632  0.1800
16669W        W32743   4.073   1.205  13.238 -0.1117  0.2179 -0.2383
16670W        W32744  15.395   3.693   1.040 -0.0263  0.3642  0.1395
16671W        W32745  11.767  13.977   4.226 -0.2144  0.0501 -0.0376
16672W        W32746   3.986  13.368  12.863 -0.0043  0.3343  0.1807
16673W        W32747  17.542   1.077   1.442  0.0623  0.3487 -0.1160
16674W        W32748  15.162  14.204  11.580  0.1346  0.0638 -0.0790
16675W        W32749  13.136  18.260   0.924  0.2778 -0.3173  0.0271
16676W        W32750   7.734   4.773   0.966 -0.4031 -0.1236 -0.0648
16677W        W32751  17.781   2.168  13.001  0.0947 -0.2234 -0.1748
16678W        W32752  11.878  15.568  11.568 -0.2889 -0.1849 -0.2563
16679W        W32753   4.626   2.329   2.981 -0.1366  0.0571 -0.0800
16680W        W32754  15.042  12.062   1.691  0.2116 -0.1644 -0.1342
16681W        W32755   0.182  19.004  13.728 -0.0770 -0.1183  0.0097
16682W        W32756   1.078  11.867   9.890 -0.1290  0.2449  0.0217
16683W        W32757  16.736  18.333   9.992 -0.0130 -0.0138  0.1968
16684W        W32758  15.169   8.223  13.400 -0.1399 -0.2171  0.0243
16685W        W32759  10.212  15.234  10.807 -0.1274 -0.1992 -0.1828
16686W        W32760  14.214  11.576   3.279  0.1825  0.2929  0.2463
16687W        W32761  10.511   1.085  12.339  0.0522 -0.1243 -0.0897
16688W        W32762  16.717  16.708  12.984 -0.0654 -0.1666  0.0264
16689W        W32763  17.250  12.485  13.165 -0.1643  0.1957  0.0188
16690W        W32764  16.517   9.930   0.916  0.0771  0.1867  0.0145
16691W        W32765  11.294  11.313   0.460  0.2129  0.1784  0.0128
16692W        W32766  10.895  18.916  13.986  0.2459  0.0465 -0.1027
16693W        W32767   6.506  17.783  10.909 -0.2427  0.0155 -0.0524
16694W        W32768   1.892  10.019  11.521 -0.0838 -0.1207  0.4081
16695W        W32769  14.609  16.061   1.174 -0.2109  0.1140 -0.2792
16696W        W32770  10.482   2.726   3.372 -0.0577  0.2326 -0.0184
16697W        W32771   8.689   9.049   4.468  0.1387 -0.0168  0.1681
16698W        W32772   8.517  15.646   4.838  0.0146  0.1643  0.1253
16699W        W32773  10.167   3.084  13.862 -0.1237  0.0293 -0.1005
16700W        W32774   6.429   3.033  14.650 -0.4805 -0.2038  0.0247
16701W        W32775  15.909   4.978   2.613  0.2407 -0.0857  0.0974
16702W        W32776  19.075   5.771   4.418 -0.1840 -0.1765 -0.1656
16703W        W32777   9.841  16.767   3.941 -0.3343  0.1175 -0.0703
16704W        W32778  11.591   4.991   2.418 -0.0277 -0.1615 -0.2693
16705W        W32779   1.640   9.890   1.054  0.0933 -0.1410  0.1524
16706W        W32780   9.421  10.721  11.375  0.3474 -0.0134 -0.0491
16707W        W32781  12.873  18.133   4.478 -0.0024 -0.1215  0.5087
16708W        W32782   8.272  12.110   0.730  0.0129  0.1833  0.0744
16709W        W32783   1.418   1.579   4.308 -0.3821  0.0878 -0.4207
16710W        W32784   4.680   0.787  14.302 -0.1159 -0.0708 -0.0909
16711W        W32785   8.988   7.314  12.207 -0.3165  0.1056 -0.1902
16712W        W32786   4.745  11.524  13.670 -0.1178 -0.1030 -0.3038
16713W        W32787   4.618  11.914   5.240 -0.1606  0.0380  0.3433
16714W        W32788  17.532   6.856  10.642  0.0688  0.1739  0.4297
16715W        W32789  15.638   6.441  11.523 -0.6413  0.1102  0.0758
16716W        W32790   9.608   7.966  11.965 -0.2186 -0.2969  0.4011
16717W        W32791   2.822   1.219  10.414  0.0200 -0.0239 -0.3338
16718W        W32792  19.265  13.149  12.886  0.0176 -0.1866  0.0257
16719W        W32793  12.517  12.527   0.686  0.0091 -0.3014 -0.1013
16720W        W32794   2.049  17.591   3.879 -0.1529  0.0151  0.3404
16721W        W32795  17.097  14.598   2.119 -0.1219 -0.3794  0.0159
16722W        W32796  15.222   2.076   5.384  0.0582  0.0610  0.0898
16723W        W32797   8.799  12.139   0.732  0.1883 -0.0425 -0.1457
16724W        W32798  18.527  15.680  10.893  0.4156  0.0630 -0.0820
16725W        W32799   9.467  12.179  11.113 -0.1237  0.0283  0.2424
16726W        W32800  14.495  12.528  10.586  0.0045 -0.1147  0.1073
16727W        W32801  13.408   2.294   2.141 -0.0553  0.1461  0.2600
16728W        W32802   4.642   9.430  14.986 -0.2566 -0.0175  0.1648
16729W        W32803  18.275  10.018   1.703  0.0066  0.3339 -0.2390
16730W        W32804  18.146   5.076  11.916 -0.1581 -0.2231 -0.1778
16731W        W32805   7.679   6.340   1.204 -0.0388 -0.1802 -0.0580
16732W        W32806   9.817  16.514  11.559  0.1623  0.1046  0.0265
16733W        W32807   4.267  11.509   2.819 -0.1617  0.3466  0.1606
16734W        W32808  10.892  15.959   9.960  0.0805  0.0349 -0.0656
16735W        W32809   8.279   3.163   5.283 -0.0007 -0.0999 -0.3531
16736W        W32810   1.898  11.122  12.051 -0.1401  0.2468  0.3315
16737W        W32811   4.817  18.278   4.202  0.0592 -0.0639  0.0698
16738W        W32812   2.950   7.479  14.043 -0.0649 -0.2360 -0.1034
16739W        W32813  15.538   9.492   3.092 -0.1230  0.3290  0.0135
16740W        W32814   6.727   9.335   2.910 -0.2060  0.0551 -0.0219
16741W        W32815  10.987   3.887   0.988  0.0824 -0.2927  0.1149
16742W        W32816  17.291  16.863  12.244  0.0902  0.0681  0.0304
16743W        W32817  12.919   9.936   2.616  0.0917  0.0693 -0.0997
16744W        W32818   8.465  19.159   0.792 -0.1056 -0.2424  0.1599
16745W        W32819   4.792   0.045  12.584  0.0114 -0.4011  0.1244
16746W        W32820   9.977   1.460   2.244  0.4456  0.0035 -0.0757
16747W        W32821  15.886  12.192   2.802 -0.2858 -0.2732  0.0528
16748W        W32822   2.789   1.394   5.450  0.1307  0.2020  0.0254
16749W        W32823   5.364  13.476  14.366  0.0576  0.0376  0.1647
16750W        W32824  11.565   5.795   1.610  0.1181 -0.0573 -0.0099
16751W        W32825   3.542  12.588   0.612 -0.4907 -0.0976 -0.4565
16752W        W32826  18.887  11.167   0.107  0.0016 -0.2387 -0.0340
16753W        W32827   5.061  11.531   0.884  0.0758 -0.0331 -0.2122
16754W        W32828   0.891  11.230   3.036  0.1131  0.2768 -0.0143
16755W        W32829  12.862   1.217   0.419  0.0537  0.0086  0.0118
16756W        W32830   5.651   4.483   0.577  0.2431  0.0292  0.2199
16757W        W32831   0.353   6.401  11.412 -0.0705  0.2491 -0.0363
16758W        W32832  17.839   7.873  10.799 -0.0544 -0.3190 -0.3654
16759W        W32833   0.099  19.137  11.036 -0.2118  0.1297 -0.0999
16760W        W32834  12.294   1.574  14.843 -0.5735  0.0105  0.1706
16761W        W32835   2.295  12.102  11.152  0.1810 -0.4110 -0.1149
16762W        W32836  18.342   5.613   5.658  0.0654  0.4276  0.0067
16763W        W32837   1.406  18.057  11.772 -0.2145 -0.0470  0.1631
16764W        W32838  15.499   8.734   1.426  0.1328  0.2932 -0.0725
16765W        W32839   2.682  10.918  10.773  0.2243  0.0637 -0.0284
16766W        W32840   9.587  14.785   2.925 -0.0903 -0.0923  0.1068
16767W        W32841   7.632   2.325  14.499  0.0491 -0.0086 -0.1308
16768W        W32842   8.049   7.686  13.316 -0.3413  0.0391 -0.0992
16769W        W32843   0.677  18.157   3.260 -0.0126 -0.0934 -0.2448
16770W        W32844   5.678  13.350   5.674  0.1330  0.0496 -0.0061
16771W        W32845   1.030  18.307   0.199 -0.0983  0.1147  0.0189
16772W        W32846  14.994   0.165  10.220  0.1986  0.1416  0.0614
16773W        W32847  15.699  11.179  10.789  0.0975  0.1122  0.0454
16774W        W32848   7.956   1.560  12.371  0.0562 -0.2650  0.0368
16775W        W32849   3.478   0.001   4.063 -0.0287  0.1936  0.3898
16776W        W32850   2.115  12.796  12.955  0.2562 -0.1951  0.1226
16777W        W32851   5.994   7.528   1.671 -0.1564  0.0590 -0.0329
16778W        W32852   2.160   0.187  12.384  0.2951  0.2255  0.0140
16779W        W32853   4.168   8.731  13.614  0.1187 -0.0867  0.0195
16780W        W32854   3.958   5.409  13.841 -0.2610  0.0094 -0.0532
16781W        W32855   7.007  16.876   9.829  0.0861  0.1896  0.2192
16782W        W32856   0.202   6.013  12.610 -0.0945  0.4766  0.1519
16783W        W32857  19.058  15.240   4.225 -0.0245 -0.1086 -0.1670
16784W        W32858  12.061   6.775   0.034  0.0304  0.1304 -0.3410
16785W        W32859  18.165  16.888   0.113 -0.1313 -0.2222  0.1504
16786W        W32860  14.920   2.268   4.959 -0.0086 -0.1291 -0.1068
16787W        W32861   0.151  18.221  14.557 -0.2453 -0.1065  0.1857
16788W        W32862  10.085   4.043  11.986  0.3379  0.0186 -0.0402
16789W        W32863  17.765  13.726   0.908  0.0876 -0.0589 -0.0218
16790W        W32864  10.968   5.253   3.232  0.0315 -0.1215 -0.0164
16791W        W32865   6.534   2.781   2.810 -0.0360  0.0759 -0.3119
16792W        W32866   2.428  10.727  14.842 -0.2273  0.3680 -0.0580
16793W        W32867   5.477  16.628  14.311  0.0341 -0.0521 -0.0140
16794W        W32868   1.192   3.809   5.661  0.0546 -0.1239  0.0780
16795W        W32869  17.392  17.504   2.490  0.2671  0.1547 -0.0893
16796W        W32870  17.693  10.174  10.082  0.1146 -0.5014  0.0282
16797W        W32871  13.078  11.644   5.238  0.2295  0.0713 -0.2510
16798W        W32872   9.508  16.277  13.591 -0.1936  0.1914 -0.1982
16799W        W32873  16.019   4.005  12.565 -0.0964  0.2367  0.2371
16800W        W32874  12.618   2.863  14.435  0.1579 -0.1022  0.0331
16801W        W32875  14.900   7.352  12.857  0.2555  0.5188 -0.2379
16802W        W32876  11.096  11.183  14.967  0.0126 -0.1706  0.1174
16803W        W32877   5.628  15.336  14.069 -0.2138 -0.1785 -0.1059
16804W        W32878  14.712   3.405   3.412  0.0069 -0.0640  0.2361
16805W        W32879   9.572   0.778  14.694 -0.0783 -0.2222 -0.0190
16806W        W32880  13.000   7.985   3.549 -0.3148 -0.1977 -0.2778
16807W        W32881   7.236   5.104  14.127 -0.0998  0.0671  0.1983
16808W        W32882   6.726  15.976   0.870 -0.2406 -0.1457  0.1062
16809W        W32883   3.168  17.970  13.174 -0.0366 -0.0688 -0.0737
16810W        W32884   0.754  16.534  10.320 -0.1023 -0.3246 -0.4717
16811W        W32885  18.429  11.743   4.886  0.2825  0.1214 -0.2727
16812W        W32886   8.656   4.021  11.334 -0.0684  0.2931 -0.0600
16813W        W32887  15.629  14.099   0.662  0.2123  0.1746 -0.0218
16814W        W32888   5.724   8.653  14.205  0.1639 -0.1262 -0.1467
16815W        W32889  11.005   1.498  14.023 -0.1841 -0.0016  0.0598
16816W        W32890  12.383   2.482   0.501 -0.0617  0.1442 -0.0528
16817W        W32891   3.470  13.074  12.882 -0.1507  0.1205  0.1053
16818W        W32892  11.101   1.062   4.302  0.0703  0.0782  0.1515
16819W        W32893  16.026   2.011  11.616 -0.2810 -0.2771  0.0923
16820W        W32894  15.542   6.878  11.207  0.2890  0.3964 -0.2935
16821W        W32895   7.142   3.297  13.874  0.0920  0.2382 -0.0250
16822W        W32896  12.075   4.444   1.720  0.0524 -0.0910 -0.2459
16823W        W32897  16.786   6.844  14.955 -0.0365  0.1992  0.1147
16824W        W32898   8.531  13.881   1.370 -0.1110  0.3026 -0.0688
16825W        W32899  18.323  15.207   9.214  0.3989 -0.0009  0.1080
16826W        W32900  16.465   8.330   3.113 -0.1254 -0.4546 -0.3737
16827W        W32901  11.774  16.629   4.356  0.1397  0.3056  0.3817
16828W        W32902  18.481   1.615   4.955 -0.2890 -0.3130 -0.1455
16829W        W32903  17.244   5.598  14.063  0.1255 -0.0133 -0.0279
16830W        W32904   9.670  19.194   5.108 -0.0016  0.3562 -0.0768
16831W        W32905   7.461   5.220   5.313  0.0479  0.3415  0.5030
16832W        W32906   0.518  18.913   2.210  0.3121 -0.1351 -0.1983
16833W        W32907  12.862   1.823   1.186  0.1548  0.2654  0.3690
16834W        W32908   0.121   8.882  10.955 -0.1584 -0.1471  0.1637
16835W        W32909   0.212  12.265   3.622  0.0253 -0.1811 -0.3848
16836W        W32910   7.456   8.218  10.855  0.4981  0.0933  0.2144
16837W        W32911  11.948  18.013   4.742 -0.2176 -0.1997 -0.1138
16838W        W32912   9.684   8.415  14.382 -0.2745 -0.1680  0.1077
16839W        W32913  17.513  13.209   4.451  0.1479  0.0685  0.3070
16840W        W32914   5.214   0.205   0.200 -0.0562  0.1391 -0.1630
16841W        W32915  18.928   0.445  13.825 -0.1733 -0.1587  0.2822
16842W        W32916  12.570  15.870  13.648 -0.3103  0.1182 -0.4106
16843W        W32917   4.388  15.329   4.384 -0.3974  0.0161  0.4626
16844W        W32918   6.057  16.795   4.139 -0.0392  0.0930 -0.1174
16845W        W32919   7.627   8.823   0.713 -0.0578 -0.2339 -0.0021
16846W        W32920  13.393  10.265   1.092 -0.1932 -0.0283  0.0150
16847W        W32921  12.348   0.673   5.260 -0.0000  0.3181  0.2546
16848W        W32922   0.520  11.627   3.349  0.1713  0.1168  0.1874
16849W        W32923   4.202   7.313   4.554  0.0159  0.1855  0.5089
16850W        W32924  16.241   2.517  12.780  0.0050  0.0284 -0.0501
16851W        W32925  16.208  17.557   3.880 -0.0702  0.3211  0.0649
16852W        W32926  13.036  12.709   0.779 -0.0566 -0.1639  0.3384
16853W        W32927   4.261   3.117   3.764 -0.1844  0.0686 -0.1185
16854W        W32928   5.631  13.146   9.780  0.0632 -0.0497  0.0506
16855W        W32929   3.398  16.293  11.594  0.3255 -0.1002 -0.1787
16856W        W32930  15.038  10.918   3.167  0.2998  0.2645 -0.0021
16857W        W32931   2.920   7.145   5.203  0.0391 -0.3495 -0.0797
16858W        W32932  15.463  18.786   4.035 -0.1874 -0.0891 -0.1970
16859W        W32933   2.731  18.881  13.346 -0.2507 -0.0428  0.2501
16860W        W32934  16.537  15.970  11.915 -0.0445 -0.2539  0.0806
16861W        W32935  14.707   8.879   1.052  0.0412 -0.2033  0.1445
16862W        W32936   0.201   8.189   5.125 -0.1189  0.0609 -0.0856
16863W        W32937  17.767  18.610   1.135  0.0307  0.1027  0.1160
16864W        W32938   1.718  10.245  14.811 -0.1360  0.3450 -0.2383
16865W        W32939   3.080   2.632  12.876  0.0701  0.3256 -0.3873
16866W        W32940   8.646  11.386   1.252 -0.1318  0.1957 -0.0673
16867W        W32941  16.630  11.534   2.860 -0.0113  0.1088  0.0132
16868W        W32942   6.318  18.039   0.838  0.2253  0.1390  0.1022
16869W        W32943  13.503  13.325   0.709 -0.2602 -0.1454  0.2522
16870W        W32944  10.878  17.284  11.068  0.0672 -0.2065  0.4696
16871W        W32945  15.083  12.416  11.814 -0.0356 -0.2420 -0.4278
16872W        W32946  17.298  18.109   0.042  0.3146  0.3558  0.1969
16873W        W32947   2.816  14.437  14.933 -0.1170 -0.0484 -0.1941
16874W        W32948   5.012  14.881  13.611  0.1398 -0.1726 -0.5314
16875W        W32949  18.759   9.849   3.983  0.4179 -0.1228 -0.0954
16876W        W32950   8.216  10.880   4.278 -0.1502 -0.1261 -0.1770
16877W        W32951  11.126   5.500   6.337  0.1613  0.1473  0.0757
16878W        W32952   8.826  17.742   1.381 -0.1706  0.0274 -0.0728
16879W        W32953  18.462   2.991  13.262 -0.1814  0.3057  0.1240
16880W        W32954  12.114   3.949  10.644 -0.0860  0.3072  0.0302
16881W        W32955  15.060  15.234  13.773  0.2108  0.0219 -0.0454
16882W        W32956  15.751   9.524  14.995  0.1191 -0.1678  0.2786
16883W        W32957  16.036  12.074  10.676 -0.2047 -0.3480  0.0131
16884W        W32958   6.519   7.733   4.987 -0.2507 -0.1995 -0.3848
16885W        W32959   0.679   8.901  12.839  0.2662 -0.0236 -0.2113
16886W        W32960   7.894  15.905   2.798  0.0115  0.3523 -0.2651
16887W        W32961  10.975  13.702   1.962  0.0848 -0.0200  0.1661
16888W        W32962   0.612  16.210   1.547  0.0025  0.0177 -0.0302
16889W        W32963   1.381   2.481  13.405  0.1328 -0.1775  0.1224
16890W        W32964   3.877  18.416  12.807 -0.1314 -0.0771 -0.0735
16891W        W32965   8.739  11.144   4.166  0.0213  0.0882  0.1788
16892W        W32966  13.252   9.771   2.052  0.5019  0.1012  0.0391
16893W        W32967   5.057   5.265  13.807  0.3239  0.1983 -0.0966
16894W        W32968   6.189   3.807  13.758 -0.2023  0.2638 -0.0780
16895W        W32969  15.710  17.768   4.243 -0.3648 -0.0086  0.0490
16896W        W32970  14.175  11.307  11.688  0.0717 -0.1010 -0.1022
16897W        W32971   6.540   0.491  11.361 -0.0708 -0.1245  0.2494
16898W        W32972  14.679  18.683  10.652  0.2530 -0.1230 -0.0659
16899W        W32973  14.969   5.651   1.781 -0.3431 -0.0788 -0.1738
16900W        W32974   7.283   9.598  13.677  0.2641 -0.2214  0.0099
16901W        W32975   0.737   5.368   0.740 -0.2961  0.0963  0.0907
16902W        W32976   1.035  10.215   2.438  0.0771 -0.1563 -0.0461
16903W        W32977   1.475  11.914   1.355 -0.0006  0.0605 -0.0368
16904W        W32978   6.259   3.106   3.190 -0.1425 -0.0538 -0.2046
16905W        W32979   0.612  19.079   2.966  0.2508  0.1497  0.0067
16906W        W32980   5.006  18.715  14.872  0.0999  0.0180 -0.1262
16907W        W32981   5.613   1.954   0.364 -0.5971 -0.0369  0.0215
16908W        W32982  14.345  10.455   1.590  0.0554  0.1793 -0.3367
16909W        W32983   4.109   1.450   0.297 -0.0664 -0.3476  0.1212
16910W        W32984   4.987  17.514  12.827 -0.2516  0.2197 -0.1921
16911W        W32985   7.561  10.232   3.100 -0.0191 -0.0053 -0.1903
16912W        W32986  13.064   5.325  14.183  0.0466 -0.3421 -0.0047
16913W        W32987   9.424   1.939   5.255 -0.5027 -0.0453  0.3149
16914W        W32988  12.771  16.168   1.818 -0.3878 -0.0563  0.0263
16915W        W32989   8.202   7.129   0.831 -0.0209  0.1288 -0.3252
16916W        W32990   4.801  18.725  13.884 -0.1920 -0.0624  0.3840
16917W        W32991   5.053  10.510   1.624  0.0813 -0.3368  0.0401
16918W        W32992   2.311  14.053   2.791 -0.3386 -0.0313 -0.0974
16919W        W32993  13.669   8.273   2.015 -0.0677 -0.1234  0.2808
16920W        W32994  12.488   1.300  13.850 -0.1831 -0.1460 -0.1927
16921W        W32995  10.472   3.214   4.901  0.1378  0.0284 -0.1636
16922W        W32996  16.885   6.290  11.274 -0.1176  0.0357  0.2861
16923W        W32997   8.972   9.236   0.854 -0.0886  0.0004  0.1582
16924W        W32998   7.679   8.794   5.579  0.3003  0.0294  0.0897
16925W        W32999  18.210   0.594   2.321  0.1637 -0.2893 -0.0003
16926W        W33000   2.609  15.126   4.317 -0.2837  0.3087 -0.2364
16927W        W33001   9.015   5.572   2.926 -0.1110 -0.0702 -0.0317
16928W        W33002   7.206   6.884   2.789 -0.0517  0.0481 -0.1218
16929W        W33003   2.876  14.512  13.088 -0.2802 -0.2511 -0.1834
16930W        W33004  12.141  16.568  13.487 -0.1381 -0.3109 -0.0891
16931W        W33005   3.633   2.967  13.695 -0.4580  0.1660 -0.2111
16932W        W33006   0.252   8.048  10.548 -0.2850  0.1172  0.3337
16933W        W33007  15.429   0.940  12.204  0.0875  0.0549  0.0657
16934W        W33008  10.877   5.907   2.244  0.0317  0.2484 -0.1503
16935W        W33009   8.354  10.723  13.516 -0.1384  0.1457  0.0171
16936W        W33010   0.692   0.702   5.458 -0.4265 -0.1295 -0.0752
16937W        W33011  12.232   5.579   3.904  0.2717 -0.2287 -0.1442
16938W        W33012   3.407  18.433   0.900 -0.0894 -0.4029  0.1250
16939W        W33013   3.757  18.864   3.324  0.0828  0.2697  0.2085
16940W        W33014   9.061   3.033  14.940  0.1228 -0.0222  0.0416
16941W        W33015   5.559  16.841   0.504 -0.2255 -0.0731 -0.0976
16942W        W33016   7.973  11.327   5.766  0.1390  0.0910 -0.0957
16943W        W33017  15.155   9.662   1.603  0.1396  0.1176  0.1913
16944W        W33018  15.021   5.039  13.080  0.0317  0.0590  0.0082
16945W        W33019  12.664   9.785   3.185 -0.1276  0.3498  0.1340
16946W        W33020   1.685  14.853   4.430  0.2304  0.2867 -0.0404
16947W        W33021   9.694   0.733  11.833 -0.1408  0.2201 -0.1172
16948W        W33022  15.276   3.224   2.979 -0.0830 -0.0283 -0.0938
16949W        W33023   0.804   0.477   9.964  0.1291  0.1851  0.0864
16950W        W33024  16.806  17.398  14.983  0.0476  0.2482 -0.0383
16951W        W33025   1.336   9.170  11.600 -0.0611  0.1570  0.1284
16952W        W33026   0.616   5.619  11.901 -0.1729  0.1185  0.1317
16953W        W33027  16.120   0.792  10.842  0.1625  0.1247 -0.0273
16954W        W33028  12.694  14.897   0.065  0.1900  0.1361  0.1109
16955W        W33029   4.851   8.330   1.057 -0.0573 -0.1489  0.2367
16956W        W33030   6.746   6.374  12.867  0.3603  0.4180  0.2969
16957W        W33031  18.417   2.685   1.753 -0.1826 -0.0670  0.0214
16958W        W33032  16.573   5.871  11.559  0.0529  0.0348 -0.0658
16959W        W33033   0.303  10.316   1.241  0.0234  0.1903 -0.2254
16960W        W33034   2.679   6.643  14.480  0.6457  0.2210 -0.3526
16961W        W33035  17.262   5.195   1.739 -0.1041  0.0471  0.3105
16962W        W33036  14.207  16.111   2.292  0.2443 -0.3501 -0.0032
16963W        W33037   3.983  18.170  12.363 -0.2579  0.0427  0.0433
16964W        W33038  13.137   0.133   4.586 -0.1716  0.1003  0.1251
16965W        W33039   5.763   7.735   3.148 -0.0140 -0.0403 -0.1947
16966W        W33040  12.556  12.744  14.882 -0.1074  0.0779 -0.0489
16967W        W33041  10.245  17.017   3.985 -0.0381 -0.2692  0.0717
16968W        W33042   2.788   1.697   3.852 -0.3904  0.0503 -0.0668
16969W        W33043   0.670  11.409   1.087  0.1976  0.1958  0.2734
16970W        W33044  18.749  12.897   6.003 -0.1072 -0.1764  0.1527
16971W        W33045  10.563  12.515   1.398  0.0305  0.2291 -0.1355
16972W        W33046  17.448   4.601  14.818  0.0126  0.1223  0.0999
16973W        W33047  15.560  12.736   2.688  0.3487 -0.0077  0.0411
16974W        W33048  18.534  14.563  11.552  0.1723  0.1342 -0.2079
16975W        W33049  12.139   2.128   0.195 -0.1565  0.0062 -0.0844
16976W        W33050   1.151   8.704   9.884 -0.2073 -0.1128  0.1848
16977W        W33051  16.741   6.547   2.572 -0.0517 -0.4827 -0.2226
16978W        W33052   9.681   2.412   1.229 -0.1673 -0.3184 -0.0031
16979W        W33053  13.124   8.292  11.842  0.0606 -0.1665 -0.0622
16980W        W33054   8.359   2.176   3.983  0.4937 -0.0114  0.1458
16981W        W33055  17.739   1.884  13.967 -0.2292  0.1869  0.3244
16982W        W33056   2.757   5.164  12.811 -0.1540 -0.0744 -0.1273
16983W        W33057   8.171   8.024  11.326  0.0230  0.0039 -0.1572
16984W        W33058  13.632  15.668  12.973 -0.2663 -0.0076 -0.1908
16985W        W33059   1.712   2.323   2.345 -0.1629 -0.1453 -0.1236
16986W        W33060   8.899   3.463   2.210  0.1312  0.0776 -0.0733
16987W        W33061  16.593   4.562  12.680  0.0189 -0.0751 -0.6435
16988W        W33062  19.213  12.202   2.511  0.0723  0.1398 -0.0485
16989W        W33063  15.730  13.009   1.146 -0.2427 -0.0647 -0.0398
16990W        W33064   5.809  10.998   0.870  0.1678 -0.4378 -0.1667
16991W        W33065   7.729  17.648   2.205  0.0907  0.0665 -0.0712
16992W        W33066  17.312  13.772   0.630 -0.0925  0.0524 -0.0782
16993W        W33067  16.120  12.206   0.735 -0.0110  0.1806  0.2340
16994W        W33068  13.849   1.892  13.002 -0.3346  0.0479  0.1204
16995W        W33069   7.771   8.493  14.208  0.0880 -0.4274  0.1904
16996W        W33070  16.093   7.725   3.638  0.1031  0.3172  0.1941
16997W        W33071   5.520  16.040  14.108  0.2081  0.3188  0.1135
16998W        W33072  18.041   5.689   4.511  0.0055  0.0446  0.2333
16999W        W33073  10.677  11.235   2.127  0.2747 -0.1240  0.0652
17000W        W33074  17.472  16.634   2.066 -0.3886 -0.2003  0.1582
17001W        W33075  16.613  14.178   0.334  0.0214 -0.2118  0.1924
17002W        W33076  18.642  10.464   9.961  0.1326 -0.0023  0.2490
17003W        W33077   5.293  14.111  10.039 -0.1159 -0.0093  0.0653
17004W        W33078  17.774  17.409  12.846 -0.2182  0.2787  0.0033
17005W        W33079   2.132  15.564   2.482 -0.0748 -0.1367  0.0136
17006W        W33080  12.497   3.365   2.365 -0.3180 -0.6473 -0.0314
17007W        W33081  11.531   9.838   4.407 -0.1249  0.1516  0.2184
17008W        W33082  15.766  13.899   2.442  0.0018 -0.2578  0.0424
17009W        W33083  10.248   2.338   2.048 -0.3699  0.2525 -0.1467
17010W        W33084  18.858   4.423   3.340  0.0211  0.3690  0.1398
17011W        W33085  19.058  18.047   4.147 -0.5973  0.2563  0.1131
17012W        W33086   0.613   0.040   2.521 -0.2425  0.0170  0.0753
17013W        W33087   8.196   7.799   3.672  0.1896  0.0577  0.2014
17014W        W33088  16.014   5.104  14.592 -0.0165  0.0794 -0.0462
17015W        W33089   8.817  13.033  12.344  0.2586 -0.0069  0.0009
17016W        W33090  11.680   4.601  14.961  0.3317  0.0096 -0.2314
17017W        W33091  17.562   9.284  13.695 -0.0672  0.2636  0.1156
17018W        W33092   7.797  13.783  14.824 -0.4055 -0.2230  0.1869
17019W        W33093   5.955   6.967   5.194  0.0577 -0.0527  0.3681
17020W        W33094   0.283   6.686  13.294  0.0787 -0.1484 -0.1644
17021W        W33095  14.349   0.032   2.353 -0.3573  0.0597  0.1766
17022W        W33096  13.386   1.677   1.133 -0.0404 -0.0151  0.1619
17023W        W33097   8.508   8.306   5.481 -0.3494  0.0538 -0.0470
17024W        W33098   7.001  13.732   2.496  0.2488  0.0944 -0.0561
17025W        W33099   4.603  17.103  14.429 -0.1575 -0.4795 -0.2290
17026W        W33100   3.663   2.352   3.280  0.3539 -0.5539  0.1968
17027W        W33101  17.335  17.347   1.640  0.1183 -0.0914 -0.2758
17028W        W33102  18.205  13.594   1.199  0.0424  0.0690 -0.3101
17029W        W33103  12.887  11.099   2.551 -0.0110 -0.1235 -0.0857
17030W        W33104   8.289  17.537   4.694  0.1124  0.3744 -0.0634
17031W        W33105   9.144   0.877   1.605 -0.2577  0.1687  0.1327
17032W        W33106  11.457  17.841  12.271 -0.0623 -0.0816  0.1273
17033W        W33107   5.449  15.506   3.221  0.3021  0.1420  0.0079
17034W        W33108  15.807   5.400  12.117  0.0777  0.1686 -0.0549
17035W        W33109   8.475  12.200   1.927 -0.3345 -0.2614 -0.1848
17036W        W33110   8.958   8.224  12.639  0.2449 -0.0828  0.1752
17037W        W33111   0.310  10.473  14.632  0.0557 -0.0681 -0.0633
17038W        W33112   8.519   0.127   2.103 -0.0951  0.2430 -0.0322
17039W        W33113   8.522   9.657   0.082 -0.0296 -0.1766 -0.1154
17040W        W33114  16.268   0.325  13.195 -0.1992 -0.1424  0.2714
17041W        W33115   8.572   2.469  11.949  0.0124 -0.3623 -0.1334
17042W        W33116   4.644   6.566   3.576 -0.0494  0.2275 -0.0924
17043W        W33117   0.665   7.434  14.728  0.1330 -0.1948  0.2532
17044W        W33118  17.703  16.720  14.937 -0.1445  0.0800 -0.4421
17045W        W33119  10.328   2.130  13.294  0.1360 -0.1479 -0.0541
17046W        W33120  12.089  13.500  13.658  0.0468 -0.1459  0.0108
17047W        W33121  11.644  16.093   4.518  0.1187 -0.2033  0.0165
17048W        W33122   3.824   2.893   1.658  0.0893  0.4449  0.0131
17049W        W33123  17.560   5.081  11.038 -0.2934 -0.2466 -0.0345
17050W        W33124  12.241   9.175   2.165  0.0818  0.1985 -0.0947
17051W        W33125  13.870   7.273   5.270  0.1872  0.1804  0.1069
17052W        W33126  16.375   6.510   4.923 -0.2357 -0.0083 -0.0007
17053W        W33127  18.929   8.818  10.764  0.1235  0.1797 -0.1259
17054W        W33128   7.034  11.288  14.697 -0.0171  0.0823  0.1324
17055W        W33129   9.039   5.814  13.565  0.2274 -0.0660 -0.1932
17056W        W33130   8.216   9.388   2.727  0.2536 -0.0393 -0.0788
17057W        W33131   6.473   6.161  11.973 -0.0084 -0.0867 -0.1705
17058W        W33132   1.902   9.042  11.154 -0.2849 -0.0758  0.1526
17059W        W33133   6.570   8.231   1.496  0.1497 -0.0998 -0.1191
17060W        W33134   2.742  13.115  13.600  0.0851  0.1697 -0.0020
17061W        W33135  10.034  13.497  14.797  0.2064  0.1718  0.0742
17062W        W33136  15.586  13.408   2.265  0.0817 -0.3377 -0.0536
17063W        W33137   3.323   8.145   4.246 -0.1104 -0.0400  0.0555
17064W        W33138   7.392   3.632   4.546 -0.1854  0.1726  0.1854
17065W        W33139   6.546  11.425  12.425 -0.1994  0.0134 -0.0464
17066W        W33140  13.854  11.492   2.619  0.1963 -0.0001  0.2158
17067W        W33141   6.159  18.763   4.292  0.0356  0.1067 -0.0743
17068W        W33142   6.095   6.931  15.014 -0.0140  0.1960  0.0318
17069W        W33143   6.373  12.296   5.158 -0.0798  0.1507 -0.0813
17070W        W33144   8.348   3.505   4.708 -0.0108 -0.2996 -0.0505
17071W        W33145  10.283  18.229   2.683  0.1793  0.0055  0.0469
17072W        W33146   2.678  13.285  14.964  0.0964  0.0453  0.1018
17073W        W33147  13.792   4.585  11.541  0.1036  0.5598  0.0207
17074W        W33148   6.010   3.328  13.773  0.0759  0.0001  0.0255
17075W        W33149  14.479  14.243  13.778  0.0444 -0.1908  0.2731
17076W        W33150   6.314   8.672   4.014 -0.1819  0.0376  0.0230
17077W        W33151  17.804   8.851  12.265  0.0408 -0.0557 -0.0927
17078W        W33152  13.826  12.798   1.743 -0.2580  0.0842  0.0119
17079W        W33153   7.925  14.783  14.305 -0.2459 -0.0032  0.2340
17080W        W33154  17.775   2.465   1.011 -0.0620 -0.2405  0.3161
17081W        W33155  19.289  16.318  13.389 -0.0946 -0.1300 -0.0015
17082W        W33156   0.553   5.824   2.620  0.0357 -0.3689 -0.0234
17083W        W33157  10.011  11.906   0.117  0.0425  0.1364 -0.0884
17084W        W33158   3.003  12.387  10.700  0.2031  0.2322 -0.3693
17085W        W33159  17.894   0.566  13.974  0.0921 -0.2148 -0.2091
17086W        W33160   3.313  13.320   4.618  0.1307 -0.1876 -0.3249
17087W        W33161   6.227   4.878   2.578 -0.3022  0.1135  0.3259
17088W        W33162   0.306  11.976  10.542 -0.2488 -0.0107 -0.0023
17089W        W33163   8.106  11.662   5.366  0.2384  0.0504 -0.4155
17090W        W33164  11.253  13.419   1.668 -0.0959  0.0246  0.1499
17091W        W33165  16.653  14.292   1.313  0.1228  0.1437  0.2046
17092W        W33166  10.597  15.438   0.677 -0.1196 -0.1432  0.0239
17093W        W33167   4.303  16.838  14.760  0.2474  0.0168  0.2440
17094W        W33168   7.422   3.929   1.102 -0.2500 -0.3765  0.3263
17095W        W33169  10.417  12.317  10.920 -0.0389 -0.0016 -0.1054
17096W        W33170   4.271   8.091   5.131 -0.1390  0.2225  0.2525
17097W        W33171  12.955  17.347   5.057 -0.0525  0.1991  0.1223
17098W        W33172   1.206   1.363  11.755 -0.0418  0.1800 -0.0951
17099W        W33173   6.005  15.228  14.421 -0.0325  0.4316 -0.0047
17100W        W33174   5.144  18.989  13.483 -0.1152 -0.1849  0.3419
17101W        W33175  11.487  12.626  12.552  0.1196 -0.0605 -0.0104
17102W        W33176  10.377   2.159   4.286 -0.0244 -0.1344  0.0325
17103W        W33177   6.231   9.560  14.534 -0.0816  0.1601  0.0256
17104W        W33178   9.036  11.592   1.592  0.1748 -0.1523  0.0502
17105W        W33179  13.234   3.168   5.548 -0.0334  0.0506  0.0026
17106W        W33180  13.273   2.367  11.377 -0.1386  0.0757 -0.0624
17107W        W33181  18.967   3.125   0.729  0.0301 -0.0542 -0.0380
17108W        W33182  19.130   4.272   4.622 -0.0254 -0.1721 -0.1479
17109W        W33183  12.182   5.438   0.144  0.0240  0.4043  0.0722
17110W        W33184   0.303   4.362   1.493 -0.1325  0.1936  0.3757
17111W        W33185  13.851   7.736  13.223 -0.2945  0.1143  0.6875
17112W        W33186  16.517   0.118   3.679 -0.1896  0.1052 -0.2003
17113W        W33187  14.528  16.245   4.150 -0.1648  0.2798 -0.0858
17114W        W33188   8.020   1.543   3.330 -0.3284 -0.0192 -0.1806
17115W        W33189   9.727  12.919  13.352  0.1391 -0.1165 -0.2041
17116W        W33190  14.543   9.483   4.511 -0.1280 -0.0058 -0.0767
17117W        W33191   9.677  14.471  11.451  0.0560 -0.0677  0.0044
17118W        W33192   0.483   1.868   2.863 -0.0600  0.1859 -0.3059
17119W        W33193   5.310  16.636  12.962 -0.1133 -0.4289 -0.2457
17120W        W33194   7.158  17.841   0.051  0.0948 -0.0093  0.1132
17121W        W33195   0.495   1.990   3.890  0.2903 -0.0675 -0.2550
17122W        W33196   9.303   9.749  14.613 -0.1004 -0.1170 -0.1442
17123W        W33197  12.084  10.884  11.887 -0.0195 -0.2116 -0.2186
17124W        W33198   8.064  15.467  13.164  0.0602  0.3200 -0.0635
17125W        W33199   0.440   9.640   4.819 -0.0917  0.2205 -0.3324
17126W        W33200   2.065   0.133   1.284 -0.0059  0.1820  0.0576
17127W        W33201   4.102   9.664  12.589  0.0092 -0.0049 -0.1676
17128W        W33202  15.532  13.861  12.322 -0.3785 -0.2844  0.0830
17129W        W33203  10.674  10.931  10.926  0.1131  0.0700 -0.3850
17130W        W33204   5.457   3.468   0.415  0.0018 -0.2107  0.2021
17131W        W33205   3.452  12.898   0.152 -0.0398  0.0182 -0.0062
17132W        W33206   6.262  17.526   1.000  0.1126  0.2637  0.1219
17133W        W33207  15.559   6.910  12.950  0.1397 -0.1197 -0.0532
17134W        W33208  14.950  19.138   9.778  0.2748 -0.0893 -0.0033
17135W        W33209   2.988   6.609   5.131 -0.1247 -0.1152  0.3078
17136W        W33210  17.988   9.317   3.865  0.2245  0.2000  0.1329
17137W        W33211   3.031   5.059   0.875  0.0081 -0.2963  0.1097
17138W        W33212  11.791  16.777  14.691  0.0723  0.0957  0.1766
17139W        W33213   9.643  18.001   3.908  0.0411  0.1485  0.1687
17140W        W33214  16.173   6.114   0.855 -0.3396  0.5788 -0.2257
17141W        W33215  10.678  13.995   5.941 -0.2212  0.0106  0.1500
17142W        W33216   8.320  14.072  14.120 -0.1741 -0.1437 -0.3601
17143W        W33217   0.784  16.220   0.554  0.2997 -0.0392  0.0954
17144W        W33218  14.697   1.378   8.990  0.4415 -0.0512  0.0430
17145W        W33219  18.679  14.119  12.672 -0.0257  0.3134  0.0362
17146W        W33220  14.419   5.224  13.236 -0.0764  0.0591 -0.1008
17147W        W33221   1.187   8.100  11.050 -0.0302  0.0706 -0.3623
17148W        W33222   9.918   8.662   2.679 -0.0684  0.0761 -0.0188
17149W        W33223  10.077  11.145   1.595  0.0603  0.0020  0.1345
17150W        W33224  11.012  17.912   2.068 -0.1376 -0.0982 -0.4209
17151W        W33225  15.640  11.770   1.536 -0.0390  0.2392 -0.1582
17152W        W33226   6.517  10.656  13.063  0.2036 -0.0205 -0.0040
17153W        W33227  10.955  16.524  15.055 -0.1149 -0.0797 -0.5092
17154W        W33228  18.453   5.511   9.958 -0.1150  0.3092 -0.0985
17155W        W33229   1.269  10.357   1.136  0.1444  0.2514 -0.2443
17156W        W33230   7.795   1.709   0.654 -0.1031 -0.3330 -0.1749
17157W        W33231  14.520   2.878   0.653 -0.2401  0.4897 -0.1362
17158W        W33232  16.272  12.852  12.134  0.0615  0.2407 -0.2101
17159W        W33233   5.908  10.012  14.349 -0.4818 -0.2314 -0.1895
17160W        W33234   9.907  10.178   5.700 -0.2856  0.1724  0.0215
17161W        W33235   8.953  10.825   0.587  0.0449  0.1017  0.0118
17162W        W33236  18.744   1.127  13.207  0.0375 -0.2408 -0.0468
17163W        W33237   5.018   2.358  13.981 -0.2311 -0.0606 -0.3941
17164W        W33238  19.304   6.850  12.539 -0.1255 -0.0773  0.4211
17165W        W33239   4.163  10.526  11.353  0.2534 -0.3983 -0.0565
17166W        W33240  14.480   6.822  14.456 -0.1570  0.1736 -0.1274
17167W        W33241  17.342  13.641   5.502 -0.0472  0.1983  0.1850
17168W        W33242   2.831   6.316  13.170  0.2886 -0.0393 -0.0067
17169W        W33243   3.355  13.567  12.958 -0.1663  0.3628 -0.1526
17170W        W33244   5.371   0.995  14.952  0.0946 -0.1806 -0.0229
17171W        W33245   4.760   1.551   2.933  0.1445 -0.0440 -0.0124
17172W        W33246  17.652   5.331   3.648  0.4165  0.3615  0.0092
17173W        W33247  11.406  11.196  10.340  0.2396  0.1876 -0.1905
17174W        W33248  19.180   1.378   2.718  0.0741  0.0779 -0.0472
17175W        W33249  10.554  16.341   1.641 -0.0745 -0.2341  0.0768
17176W        W33250  12.540   4.715  10.939 -0.2168 -0.0084 -0.0062
17177W        W33251   1.385   9.006  14.787  0.3093 -0.0760  0.0076
17178W        W33252   0.191  12.690   3.992 -0.0647 -0.0506  0.1365
17179W        W33253   1.784  14.332  11.589  0.1510 -0.1786 -0.1356
17180W        W33254  10.374   4.409  11.924 -0.0859 -0.0521  0.1412
17181W        W33255  15.869   8.465  13.432  0.0733 -0.1485 -0.3471
17182W        W33256   3.827  11.593  13.227 -0.0293 -0.2264  0.1404
17183W        W33257  14.707  16.669  13.925 -0.0888  0.1171  0.1038
17184W        W33258   4.613   6.421   2.922  0.1148 -0.0819  0.1461
17185W        W33259   1.860  15.929   5.058 -0.1871  0.2275  0.3500
17186W        W33260   2.428   4.722  10.813 -0.1346  0.2635  0.0154
17187W        W33261  17.079   2.607   0.911  0.0695  0.1910 -0.0981
17188W        W33262  13.000  10.990   3.439 -0.0172  0.1641 -0.2232
17189W        W33263   9.654   1.394   4.284  0.0763  0.0234  0.0155
17190W        W33264  14.113  16.732  13.706 -0.0210 -0.1229 -0.0308
17191W        W33265   6.095   8.238   3.188 -0.1323 -0.0903 -0.1533
17192W        W33266   8.311  18.506   2.046  0.0631 -0.2174  0.2041
17193W        W33267  18.863  13.140   1.665  0.0091  0.1887 -0.0621
17194W        W33268  14.717  13.916  10.115 -0.1252 -0.1413 -0.1348
17195W        W33269  17.887  17.932  13.689 -0.0539  0.1954  0.4096
17196W        W33270   6.703  10.688   3.211  0.4390 -0.0173 -0.2177
17197W        W33271  17.403   7.581  14.923  0.0846  0.1281 -0.0333
17198W        W33272   5.686  12.820   3.613  0.1489  0.0359  0.1201
17199W        W33273   0.574  12.182  14.574 -0.2049 -0.0428  0.0916
17200W        W33274   6.164  17.079   3.697  0.2468  0.1650  0.2443
17201W        W33275  15.081   4.230   4.360  0.0304 -0.1346 -0.0690
17202W        W33276   8.156  14.540   0.767 -0.3378 -0.1343 -0.0463
17203W        W33277  10.820   8.567  14.433 -0.1122  0.1962 -0.2227
17204W        W33278   1.383  19.150  13.160  0.1502  0.1443  0.0126
17205W        W33279   6.907   7.315   2.727 -0.2252 -0.0977  0.1612
17206W        W33280   0.497   2.412   5.888  0.1056  0.2150 -0.0487
17207W        W33281  11.230   0.722   5.208  0.1575  0.2834 -0.2516
17208W        W33282  16.273  14.501   9.982 -0.1099 -0.3797  0.3256
17209W        W33283  15.121  11.573  13.442  0.0440  0.3023 -0.2357
17210W        W33284  17.319  18.054  14.314  0.0552  0.2055  0.1447
17211W        W33285   9.774   2.075  14.054 -0.1396  0.1739  0.2219
17212W        W33286   2.518  16.412  11.928  0.3005  0.3011  0.0481
17213W        W33287   2.683   7.558  11.025 -0.1420 -0.0310  0.1249
17214W        W33288   4.428  16.004   2.304 -0.0359 -0.0077 -0.1206
17215W        W33289  11.083   8.796  13.959 -0.0035 -0.0698  0.0901
17216W        W33290   5.218   1.975  14.884  0.1300 -0.0600 -0.1605
17217W        W33291   8.482  17.349   0.289 -0.0567 -0.1562  0.0829
17218W        W33292   6.167  11.872   2.848  0.3324  0.1641  0.2755
17219W        W33293   6.804   8.991   4.012 -0.1640 -0.0021  0.3020
17220W        W33294  13.107   4.514   3.067 -0.1813  0.1494  0.0805
17221W        W33295  11.880  11.821  11.416  0.1650  0.1343  0.3724
17222W        W33296   9.785  15.086  12.533  0.1169 -0.1623  0.1810
17223W        W33297   0.416   9.355  10.149  0.1926 -0.3172  0.1921
17224W        W33298   6.227   8.046   1.013  0.1900 -0.0574 -0.2572
17225W        W33299  16.572  15.334  11.318 -0.1985 -0.0671  0.1613
17226W        W33300   2.489   6.534   4.873  0.0095 -0.1058 -0.1038
17227W        W33301   7.355  14.796  13.342 -0.3404  0.0586  0.1981
17228W        W33302  14.471  13.922   4.506 -0.2745  0.1165 -0.0197
17229W        W33303   2.486   9.862   3.724  0.0152  0.0183  0.1871
17230W        W33304   9.526  10.037   9.654 -0.3650  0.0464  0.3916
17231W        W33305  19.244   8.497   2.180  0.2149  0.1554  0.1931
17232W        W33306   9.294   0.479  12.110  0.1317  0.1771  0.2651
17233W        W33307  13.322  16.136  12.459  0.0552  0.0933  0.0908
17234W        W33308   6.713   0.130   4.076 -0.1473  0.0183  0.1704
17235W        W33309   6.756   0.294  10.648 -0.0158  0.0949  0.1101
17236W        W33310  13.329   9.802  11.619  0.0953  0.2220 -0.0338
17237W        W33311   2.213  11.248  14.001  0.0707  0.1562  0.1344
17238W        W33312   1.932   5.473   1.889 -0.0783  0.4552 -0.1362
17239W        W33313  13.970   6.577   5.663 -0.0824  0.0141  0.0496
17240W        W33314  18.918   9.334   4.730  0.0248  0.1695 -0.1524
17241W        W33315   0.262  11.066  10.352 -0.4121 -0.2757 -0.0756
17242W        W33316   2.694   6.286   3.354  0.1682 -0.0991 -0.0620
17243W        W33317   5.118  15.762  12.311  0.1405 -0.0153 -0.0134
17244W        W33318   8.340   2.920  14.374  0.2934 -0.1206 -0.1951
17245W        W33319   6.042   4.511   3.629 -0.0578  0.5292  0.1612
17246W        W33320   7.856   1.594  11.907 -0.1613 -0.0178  0.1097
17247W        W33321  10.149  14.363   1.810 -0.3941 -0.0683  0.1442
17248W        W33322  16.154   6.634  13.311 -0.0744  0.2655 -0.0054
17249W        W33323   8.028   1.802  14.499 -0.2709  0.1669  0.2046
17250W        W33324   9.811   6.664  11.415  0.1383 -0.0382 -0.0098
17251W        W33325  10.184  19.146   3.850  0.1983 -0.2480  0.1429
17252W        W33326   1.267   3.145  12.347  0.1384 -0.0130 -0.2810
17253W        W33327   3.513   8.191  12.670  0.2361 -0.0071  0.5589
17254W        W33328  16.617  15.350   2.388  0.0279 -0.0539 -0.1636
17255W        W33329   4.529  11.131  13.264 -0.1789  0.0999 -0.1952
17256W        W33330  16.022  14.587  13.417 -0.0519  0.2851  0.0259
17257W        W33331   2.750   8.073   4.215  0.1250 -0.0436  0.2028
17258W        W33332  14.353   7.342   4.342  0.3276  0.3521 -0.2620
17259W        W33333  11.169  14.860   4.236 -0.0715  0.0631 -0.0130
17260W        W33334   9.189   9.175  10.339 -0.0024  0.0524 -0.4390
17261W        W33335   8.245   5.031  11.166 -0.3194  0.1104  0.1209
17262W        W33336   6.508   5.496  11.655  0.1587  0.0513  0.0123
17263W        W33337  17.202   8.652  13.032 -0.1079 -0.0368 -0.2279
17264W        W33338  14.606  18.613  14.677  0.0520  0.1262  0.2294
17265W        W33339  11.540   2.025  11.913  0.1544 -0.2552  0.2981
17266W        W33340   2.335  17.028   3.095  0.0737  0.0568  0.0457
17267W        W33341  17.771   0.468  10.907  0.1391  0.2636  0.0802
17268W        W33342   8.051  14.256  12.714 -0.2933 -0.3714  0.4137
17269W        W33343   6.666  18.741  13.950 -0.3012  0.2317 -0.0644
17270W        W33344   9.644   8.816  10.426  0.1624 -0.2150 -0.1802
17271W        W33345   7.830  10.753   0.234 -0.0076 -0.0122 -0.1439
17272W        W33346   3.341   5.954  13.387  0.0131 -0.0420 -0.0104
17273W        W33347   9.098  18.402  14.677  0.0107 -0.0234 -0.0626
17274W        W33348  19.158   4.308  13.805  0.5501  0.2523  0.0042
17275W        W33349   8.258  14.755  11.540 -0.3278  0.0836 -0.0534
17276W        W33350  10.262  16.296   5.170  0.1632  0.3273 -0.2919
17277W        W33351   4.430  14.891  10.779 -0.0585  0.3730 -0.0012
17278W        W33352   3.450   9.826   1.774 -0.1315  0.0347  0.1242
17279W        W33353   3.125  19.292  11.090 -0.3002  0.0353 -0.1220
17280W        W33354   3.941   6.423   4.154 -0.1887 -0.1198 -0.3219
17281W        W33355  15.684   3.347  13.387  0.0428  0.0452 -0.2904
17282W        W33356   0.721  16.548   4.738  0.4186 -0.1271 -0.0542
17283W        W33357  16.449  11.346  14.777 -0.0006 -0.1651 -0.0440
17284W        W33358  13.731   4.028  13.224 -0.1631  0.1496 -0.0823
17285W        W33359  16.936  17.133   4.375  0.3039 -0.2995  0.2664
17286W        W33360   9.416   9.619  14.184 -0.0617 -0.2368  0.0277
17287W        W33361  16.054   8.293   0.719 -0.1512 -0.3609  0.1187
17288W        W33362  11.134  12.348   0.642 -0.0388 -0.1833 -0.0688
17289W        W33363  13.092   5.404  11.439 -0.0271  0.0219  0.0941
17290W        W33364  18.896   3.197  10.436  0.2047  0.0877 -0.1025
17291W        W33365   5.607   9.120   1.570  0.0940  0.3783 -0.3319
17292W        W33366   1.318   9.707   5.312 -0.1213 -0.2663 -0.1612
17293W        W33367  12.868  13.367   4.759 -0.2182  0.1228 -0.1438
17294W        W33368  17.443   5.233  14.530  0.3957  0.2324  0.0557
17295W        W33369  11.962  16.607   2.824 -0.1637 -0.2929  0.0534
17296W        W33370  15.280  12.517   0.478  0.0732  0.0396 -0.1567
17297W        W33371  10.014   7.023  13.503 -0.1237  0.0895  0.1442
17298W        W33372   6.127   5.619   5.360  0.0352 -0.1980  0.1069
17299W        W33373   3.840   0.626  10.984 -0.1800 -0.4265 -0.2601
17300W        W33374  12.152  18.505  13.719  0.0793  0.1399 -0.1685
17301W        W33375   1.086   8.703   3.613  0.1456 -0.1775  0.1509
17302W        W33376   2.720  11.452   1.374 -0.0180 -0.0356 -0.1446
17303W        W33377  13.399  15.028  12.306 -0.1767  0.0234  0.0143
17304W        W33378   5.093   8.799  12.641 -0.1781  0.1331 -0.1167
17305W        W33379   1.864  10.734  14.656 -0.1241 -0.0774  0.2332
17306W        W33380  12.104  10.184  14.795 -0.1360 -0.3241 -0.0671
17307W        W33381  12.031  10.240   3.363  0.2453 -0.3412 -0.0704
17308W        W33382  13.988   6.851  14.446  0.3556 -0.2013  0.0632
17309W        W33383   9.451  10.922   4.285  0.2006 -0.0786  0.1172
17310W        W33384  13.735  14.369   5.191  0.0825  0.4315  0.0298
17311W        W33385   9.504   0.113  11.155 -0.1272 -0.2038 -0.0207
17312W        W33386   3.828  15.453  13.581 -0.0754 -0.0373 -0.1296
17313W        W33387  16.888   4.857  10.761  0.0409 -0.2066  0.1683
17314W        W33388  15.051   2.477  10.970 -0.0172 -0.1539 -0.2073
17315W        W33389  13.558  15.187   4.739  0.2635 -0.0820  0.0532
17316W        W33390  16.061   5.377  14.106  0.0894 -0.1699  0.1708
17317W        W33391   4.872   3.085   5.375  0.1436  0.4156 -0.0280
17318W        W33392   3.336  17.411   3.700 -0.1956 -0.0546 -0.2470
17319W        W33393  13.361  11.393   2.855 -0.2439 -0.0360 -0.1226
17320W        W33394   1.069   2.950  13.890  0.0046  0.1157  0.2108
17321W        W33395   5.832   9.213   4.902  0.4152  0.1036 -0.1097
17322W        W33396  11.180  12.902  11.441 -0.1520  0.3833 -0.1844
17323W        W33397  10.656   8.166   4.242 -0.0285  0.0138  0.1060
17324W        W33398  10.213   7.593   4.721 -0.3612  0.2415  0.0235
17325W        W33399   9.820  10.869  13.897  0.0125 -0.2808  0.2214
17326W        W33400   2.872  10.124   0.857 -0.5119 -0.0642  0.0859
17327W        W33401   3.706   2.343   1.096 -0.3015  0.1426  0.0898
17328W        W33402   7.225   6.376  15.056  0.2933  0.0359 -0.2882
17329W        W33403  17.179  12.429   1.987 -0.1791 -0.0492 -0.1853
17330W        W33404  16.177  19.001   0.925 -0.2089 -0.0199  0.1713
17331W        W33405   8.301   2.514  13.717 -0.0413 -0.0718  0.2394
17332W        W33406  11.389   0.637  13.228  0.1968 -0.1871 -0.0377
17333W        W33407  11.050   8.256  13.323 -0.0832  0.0632  0.3774
17334W        W33408   4.232   5.404   5.725 -0.2413 -0.1492 -0.3167
17335W        W33409  16.037   0.408   0.729 -0.3836  0.0393 -0.2284
17336W        W33410   3.142   6.521  12.169 -0.0907  0.1283 -0.0561
17337W        W33411   4.003   4.059  12.195  0.1625 -0.2775  0.0490
17338W        W33412  12.862  18.365  11.878  0.0663  0.2435  0.0773
17339W        W33413  12.605   4.965   4.508  0.0472  0.1321 -0.3123
17340W        W33414  13.936   0.129   1.369  0.0563  0.4651  0.0970
17341W        W33415  13.714  19.029  12.823  0.1812  0.0032  0.4512
17342W        W33416  14.159   9.247  13.568 -0.1522  0.0236  0.0144
17343W        W33417   2.768   3.096   4.355 -0.1969 -0.1357  0.1989
17344W        W33418   0.960  14.220  11.082  0.0415  0.0598 -0.2775
17345W        W33419   4.563   3.951   0.639  0.0316  0.0135 -0.1705
17346W        W33420  18.892  18.917   1.220 -0.1961 -0.4153  0.2736
17347W        W33421   8.905   7.380   0.146 -0.0910 -0.2109  0.0250
17348W        W33422   3.048   9.812  10.899 -0.0722  0.1233 -0.2693
17349W        W33423  16.299   3.455   4.759  0.1854  0.1350  0.0028
17350W        W33424   1.488   8.504  14.572  0.0496 -0.0836  0.0690
17351W        W33425   6.653  14.226  11.590  0.4577  0.1483  0.0799
17352W        W33426   8.646  14.413  11.612  0.1423  0.1034 -0.0197
17353W        W33427   6.432  12.393   9.048  0.1020 -0.0620 -0.1333
17354W        W33428   5.527  13.198  10.352 -0.3010 -0.2707  0.3350
17355W        W33429  18.653   8.376  14.651 -0.1305 -0.1341 -0.3296
17356W        W33430  12.534  11.747   0.277  0.0243  0.0654 -0.3039
17357W        W33431   8.849  13.781  14.399 -0.0363  0.1124  0.2123
17358W        W33432  10.758  12.857  13.229  0.0429 -0.2082  0.0183
17359W        W33433  11.666  16.726   0.618 -0.1460 -0.3195  0.0143
17360W        W33434  15.197  12.320  14.071 -0.0332 -0.0731  0.0644
17361W        W33435  12.787  13.986  13.487  0.2242  0.2413 -0.3154
17362W        W33436   0.770  17.457   1.432 -0.3815 -0.2425 -0.0193
17363W        W33437  16.110  19.057  13.344 -0.4142 -0.0475  0.0193
17364W        W33438  10.260  17.820  10.580  0.0360  0.0522 -0.0484
17365W        W33439   6.940   6.171   4.068  0.0524 -0.0649 -0.0436
17366W        W33440  11.929   3.323   1.028 -0.2380 -0.0054  0.2313
17367W        W33441   2.942  14.587  11.249  0.0218  0.1808  0.0691
17368W        W33442  13.574  13.458  13.125 -0.3763 -0.1657 -0.1087
17369W        W33443  11.775  11.867  14.705  0.1596  0.3678 -0.1098
17370W        W33444   8.561   5.933  10.866 -0.2707 -0.1339  0.2549
17371W        W33445  15.767   8.901  10.933 -0.3240  0.0563  0.2279
17372W        W33446   2.328  19.152  12.694  0.1329  0.0197 -0.0681
17373W        W33447  14.662  13.271   1.806  0.1047 -0.0309 -0.4604
17374W        W33448   3.869   1.142  13.745  0.0489  0.0955  0.2453
17375W        W33449   2.413  10.008   1.505 -0.3550  0.0915  0.0908
17376W        W33450   5.761   0.237  11.883  0.0433  0.0375 -0.0287
17377W        W33451  12.778   6.708  11.696  0.0416  0.0037  0.0529
17378W        W33452  18.679  19.282   4.357 -0.0901  0.1242  0.1758
17379W        W33453   0.017   5.241   4.586  0.0336 -0.2332  0.0249
17380W        W33454  16.575   3.011   2.356 -0.0254 -0.3027 -0.0926
17381W        W33455   8.259  13.059  11.447 -0.1470 -0.0259  0.1794
17382W        W33456   4.880   5.092   2.174 -0.0098 -0.1360  0.1681
17383W        W33457  15.436  19.073   9.620  0.1853  0.1438  0.0491
17384W        W33458  10.008   0.221   0.438 -0.1880  0.0578  0.1425
17385W        W33459   3.335   1.725   4.834  0.0111  0.3085  0.0985
17386W        W33460  12.469  13.361   0.944 -0.1209 -0.2364  0.1379
17387W        W33461  17.991   0.523   1.269 -0.2589 -0.0695 -0.1922
17388W        W33462   5.671   2.674  14.324 -0.0225 -0.1777 -0.0542
17389W        W33463  14.746   2.823  11.193 -0.0232  0.0826  0.0670
17390W        W33464  10.342   5.869   1.193  0.2228 -0.0052 -0.3289
17391W        W33465   0.358  13.832   2.473 -0.0367  0.1197 -0.1668
17392W        W33466   1.895   1.497  11.038 -0.0028 -0.0749 -0.2026
17393W        W33467   1.241   6.313   5.860  0.0965 -0.5609 -0.0095
17394W        W33468  17.012   6.828   4.006  0.2700  0.0177  0.3946
17395W        W33469   8.724  15.298  12.600  0.0713 -0.1127  0.0274
17396W        W33470  12.898   6.176   3.342  0.2333 -0.2210  0.2049
17397W        W33471   5.280  17.626  10.220  0.4349  0.4578  0.0191
17398W        W33472   9.995   4.860   1.356  0.3298  0.2952 -0.4188
17399W        W33473   2.461   5.621  14.665  0.1376 -0.0580 -0.0726
17400W        W33474   6.090  18.400   9.281  0.1636  0.3930 -0.2434
17401W        W33475  18.274   9.947  14.784 -0.0096  0.2030  0.1082
17402W        W33476   5.892  19.264   4.854  0.0688  0.2803  0.0223
17403W        W33477   9.106  18.538  11.324 -0.0623  0.1507  0.1148
17404W        W33478   9.181   3.458  12.926 -0.0797  0.0470  0.1808
17405W        W33479   2.217  10.647   2.718 -0.0541  0.1331  0.3478
17406W        W33480   6.341  10.663  11.430  0.2477 -0.3284  0.0101
17407W        W33481  16.386  11.022  11.328  0.0412 -0.0433 -0.3543
17408W        W33482   6.450  18.049  11.925 -0.1937 -0.1886  0.0711
17409W        W33483   3.738   8.709  11.134 -0.0413  0.2821 -0.0910
17410W        W33484   1.964   6.803   2.272  0.0035 -0.3195  0.2062
17411W        W33485   7.390  16.533   0.071  0.2911 -0.1254 -0.0535
17412W        W33486   7.799  12.151   0.489  0.0408 -0.1217  0.0409
17413W        W33487  15.958   3.172   5.188  0.1988 -0.1511 -0.2411
17414W        W33488  13.710   7.655   4.979  0.1113 -0.0121  0.1092
17415W        W33489  15.185   9.448  12.548  0.0489 -0.3783 -0.0907
17416W        W33490   7.806  18.980   0.140 -0.0847 -0.1514  0.0400
17417W        W33491   2.408   1.380  14.594  0.2430 -0.1925 -0.0983
17418W        W33492   2.914   9.613  13.379 -0.2384 -0.2774  0.1865
17419W        W33493  17.310   0.545   3.822  0.1534  0.2398  0.1378
17420W        W33494   4.599  15.383   5.073 -0.1119  0.0345  0.0770
17421W        W33495  17.077  11.690   1.999  0.2124  0.2783 -0.2373
17422W        W33496   9.364  15.132  13.117  0.3393  0.0591  0.1083
17423W        W33497  12.722  14.212  12.687 -0.1204 -0.3654  0.0658
17424W        W33498   3.582   0.529  13.047 -0.0405  0.1201 -0.2509
17425W        W33499  14.764  13.942  12.844  0.3020  0.1058 -0.4072
17426W        W33500   5.654  15.707   0.252  0.1362 -0.1279 -0.0273
17427W        W33501  16.987   9.292  11.480 -0.0693 -0.1237 -0.2487
17428W        W33502  18.398  15.154   4.753 -0.0820  0.0062 -0.0049
17429W        W33503  16.739   3.942   1.316  0.0704 -0.1955 -0.0914
17430W        W33504  19.300   2.948   4.740  0.1349  0.0661  0.1044
17431W        W33505  10.241   7.294   2.173  0.0865 -0.1182 -0.0568
17432W        W33506  13.779  12.378   4.820  0.1439 -0.1282  0.1341
17433W        W33507   0.639   2.649   2.429  0.0165 -0.0932  0.1498
17434W        W33508   1.222  16.625   2.024  0.0353  0.5211  0.0926
17435W        W33509  13.725   3.695  11.329 -0.0420  0.1711 -0.0628
17436W        W33510  15.164   6.379   0.563 -0.0286  0.3090 -0.1941
17437W        W33511   2.733  17.132  14.588 -0.1227 -0.0793  0.1208
17438W        W33512   0.617  16.577   0.922 -0.0027  0.4801 -0.0347
17439W        W33513  15.951   2.336   3.236 -0.5633 -0.0335  0.1705
17440W        W33514   6.210   1.872  10.380 -0.2108 -0.3898  0.3043
17441W        W33515   5.317   9.985  11.005  0.5401  0.3395  0.0274
17442W        W33516   2.215  12.369  12.719  0.1611 -0.0829 -0.2516
17443W        W33517  11.536  17.463   0.470  0.2442 -0.1195 -0.1543
17444W        W33518   1.731  18.540   4.185  0.0226 -0.0652 -0.1683
17445W        W33519  12.005   9.864   1.647 -0.0168 -0.0061 -0.1604
17446W        W33520   3.681  12.983  11.292  0.0116  0.0815  0.2158
17447W        W33521   9.246   0.730  13.758  0.1978  0.0427  0.2925
17448W        W33522   3.254  18.641   1.320 -0.2761  0.0506 -0.1300
17449W        W33523  10.810   1.183   2.272 -0.0701  0.1032  0.0019
17450W        W33524   3.726  11.370  14.581  0.1790 -0.0558  0.2953
17451W        W33525   0.812  11.742   2.160  0.0112  0.1007  0.1324
17452W        W33526  19.198   0.950  13.546  0.2140 -0.1046  0.0825
17453W        W33527  14.656  13.305   2.734  0.3547  0.3435  0.0016
17454W        W33528  13.848   1.816   5.289  0.1970  0.0307  0.1841
17455W        W33529   9.593  14.582   5.132  0.1950  0.0976 -0.1244
17456W        W33530  12.665  17.977  11.212 -0.4292 -0.1501  0.0320
17457W        W33531  14.497  15.194  13.862  0.1172 -0.2058  0.2286
17458W        W33532   5.557  15.215   0.930 -0.1532  0.2295 -0.1371
17459W        W33533  13.360  16.377   0.239 -0.1283 -0.0185 -0.2422
17460W        W33534  12.181  19.016   3.015  0.3636  0.0883  0.1082
17461W        W33535  10.553   1.110  14.777 -0.3192  0.1221 -0.2285
17462W        W33536   7.797   9.186   1.451 -0.4334  0.0240  0.3820
17463W        W33537  14.419   5.304   3.803  0.1995  0.0374 -0.0481
17464W        W33538   2.231  18.008   0.443  0.0519  0.1714 -0.2224
17465W        W33539  15.312  15.923  14.350 -0.1955  0.1859  0.1263
17466W        W33540   8.434   6.696   0.719  0.0099  0.2051 -0.0340
17467W        W33541   8.098  18.986  12.503 -0.1339 -0.1876 -0.1330
17468W        W33542  11.279  15.653   3.828 -0.0270  0.0980  0.3137
17469W        W33543   5.207  17.436  14.877  0.0362  0.1755  0.0309
17470W        W33544   5.839   1.975  10.670 -0.1466 -0.0729 -0.1858
17471W        W33545   6.524  17.551  11.802  0.0463  0.4298  0.1499
17472W        W33546  18.308  19.071   1.998 -0.2239  0.1939  0.2532
17473W        W33547  12.203   8.068   0.543  0.0199  0.1885  0.0079
17474W        W33548   0.590  15.646   0.437  0.2158 -0.0482 -0.0074
17475W        W33549   4.768  12.004   1.604 -0.1397 -0.0719 -0.1173
17476W        W33550  17.257   3.933  13.548  0.0174 -0.2280 -0.1906
17477W        W33551   1.563   3.272   3.122  0.0031 -0.2857  0.2529
17478W        W33552   3.185   1.692   1.719 -0.0378  0.1905  0.2006
17479W        W33553  16.635  12.208   0.670  0.2762 -0.4893  0.2215
17480W        W33554   6.280  11.450   5.530  0.5257  0.0235 -0.2087
17481W        W33555  12.221   2.728  14.194 -0.1394 -0.1904 -0.0602
17482W        W33556  15.703  10.991  14.342 -0.2035  0.0027  0.1631
17483W        W33557  16.614  19.281  10.525  0.2175 -0.0614 -0.3211
17484W        W33558  17.396  17.406   3.242  0.0805 -0.3372 -0.0193
17485W        W33559  15.352   7.407   5.453 -0.0540 -0.0294  0.2194
17486W        W33560  11.859   4.006   4.023 -0.3009 -0.0998 -0.1422
17487W        W33561   7.931  11.769   2.513  0.1133  0.2231 -0.0297
17488W        W33562   8.604  17.976   3.199 -0.0165 -0.2104  0.0448
17489W        W33563  17.158  13.489   2.361 -0.0759  0.0625  0.1296
17490W        W33564   4.577   1.514  10.537  0.0834 -0.2701  0.0748
17491W        W33565   5.656   1.441   3.408  0.1176 -0.0816 -0.0006
17492W        W33566  13.869   2.408   0.052  0.0222 -0.0937  0.2564
17493W        W33567  11.068   3.550   0.590 -0.0290 -0.1412  0.0762
17494W        W33568  10.726   5.581   1.010  0.0779 -0.0662 -0.2934
17495W        W33569  15.108  15.203   4.067 -0.0382  0.1513  0.0092
17496W        W33570   1.209  11.524   2.725  0.1690  0.2108  0.0529
17497W        W33571   1.088   8.643  12.903 -0.1211 -0.2042  0.0920
17498W        W33572  18.438  11.316  10.796  0.2872 -0.1100 -0.1723
17499W        W33573  12.279  13.923  13.451  0.4469 -0.3160  0.2526
17500W        W33574   1.587   2.018   1.061  0.2304 -0.3137 -0.0340
17501W        W33575   7.310  15.523  13.841  0.2062 -0.3220  0.3078
17502W        W33576  11.172  13.417  10.508  0.0505 -0.0123  0.0798
17503W        W33577   5.468   7.991   4.240  0.1415 -0.3191  0.2528
17504W        W33578  14.552   5.427   1.695 -0.1752 -0.0651 -0.1298
17505W        W33579   0.839   3.943  13.413  0.1790  0.0461  0.1679
17506W        W33580  12.055  16.620  13.989  0.1211  0.3212 -0.3085
17507W        W33581   6.189   0.186  12.192  0.0882 -0.4381 -0.0713
17508W        W33582  10.417   7.340  13.753  0.0586  0.1695 -0.1615
17509W        W33583  15.150  14.138   2.878  0.0750  0.1056  0.1317
17510W        W33584  11.478   9.780   1.746  0.2694  0.0059  0.1235
17511W        W33585  19.141   3.196  11.868  0.2834  0.2049  0.1472
17512W        W33586  15.689  14.365  14.842 -0.1230  0.0440  0.0135
17513W        W33587  15.689   0.257  14.170  0.1950 -0.1320  0.0266
17514W        W33588   3.537   2.055  12.803  0.0781 -0.3736  0.0912
17515W        W33589   5.223  12.319  10.586  0.0685  0.3144 -0.2156
17516W        W33590   8.227   9.897  14.676 -0.1094  0.0133 -0.5016
17517W        W33591  14.417   2.309   5.079 -0.0055 -0.1887 -0.0490
17518W        W33592   2.700   1.609  14.158  0.0161  0.2042  0.0241
17519W        W33593  11.396  16.367  12.162  0.2018  0.1226  0.0506
17520W        W33594   3.704  10.727   0.648 -0.3935  0.1619 -0.0927
17521W        W33595   2.290  12.954  12.073  0.2506  0.2426 -0.1849
17522W        W33596   8.268  17.031  13.611 -0.1221 -0.1438 -0.1536
17523W        W33597   1.763   3.809   5.664 -0.5235  0.0430 -0.1045
17524W        W33598   0.831   5.361   3.532  0.0244  0.3520  0.2241
17525W        W33599  16.063   2.524  14.226 -0.0191  0.1150  0.2801
17526W        W33600   0.773   4.162  11.481 -0.4191  0.0735 -0.0644
17527W        W33601   9.866  18.511   0.781 -0.0444 -0.1052  0.1798
17528W        W33602   3.914  11.818  14.086 -0.1333  0.2097 -0.2518
17529W        W33603   0.916  15.550  12.559  0.1025  0.1104 -0.0333
17530W        W33604   7.488   8.268   0.652 -0.1028  0.0558 -0.0541
17531W        W33605  15.834  11.661  10.969  0.1094  0.0012 -0.1332
17532W        W33606   3.255  14.183   2.820 -0.0246  0.1426  0.2889
17533W        W33607  10.786  11.227  13.568 -0.3030 -0.1216  0.1112
17534W        W33608  15.525   3.770   3.058 -0.0488 -0.1701 -0.0444
17535W        W33609   0.918   3.602   9.655 -0.0916 -0.5357  0.0022
17536W        W33610  16.745   3.631   3.300 -0.0018  0.1323 -0.1998
17537W        W33611   2.478   9.773   0.801 -0.0421  0.3112  0.0235
17538W        W33612   3.903  10.182  13.332 -0.1019  0.1660 -0.0824
17539W        W33613  19.078   9.057  12.637 -0.3688  0.5781  0.0035
17540W        W33614  16.271   0.679   3.522 -0.2161 -0.2516 -0.1816
17541W        W33615  14.700   6.588  11.970 -0.2420 -0.2741 -0.0592
17542W        W33616   8.436  19.032   1.796 -0.1870  0.0950  0.0006
17543W        W33617   4.098   8.433   0.798 -0.0205 -0.0536  0.4025
17544W        W33618   2.834   1.166   3.512  0.2235  0.0495  0.0690
17545W        W33619  16.299  10.628   9.933  0.1714  0.6126 -0.2709
17546W        W33620   8.874   4.689  13.043 -0.3689  0.0316 -0.2069
17547W        W33621  18.166  18.113   0.799  0.1273  0.1480 -0.3000
17548W        W33622  14.105  11.572   1.452 -0.2222 -0.6092  0.1493
17549W        W33623   3.455  13.020   3.411 -0.0575  0.2702 -0.4708
17550W        W33624   6.905  13.678   4.636 -0.3213 -0.1495  0.0235
17551W        W33625   9.353   9.709  10.558 -0.1923 -0.1412  0.0139
17552W        W33626  17.260  12.415   5.538  0.3009  0.0907 -0.0840
17553W        W33627   9.947   5.715  12.251 -0.1278  0.4655 -0.4916
17554W        W33628   7.284  13.270  11.201 -0.0604  0.0259 -0.0565
17555W        W33629   1.711  18.859   3.544 -0.2529 -0.2001 -0.0608
17556W        W33630  14.528  16.002   5.202  0.1665 -0.1481  0.1459
17557W        W33631   9.663  18.709  13.878 -0.4734  0.0108 -0.1608
17558W        W33632   4.249  19.182  13.847  0.3915  0.1242 -0.1821
17559W        W33633  11.821  14.992  10.400 -0.1386 -0.0332  0.0430
17560W        W33634   9.525   0.130   2.479 -0.1631  0.0936 -0.1619
17561W        W33635   9.066  16.019  13.350 -0.3370  0.3113  0.1439
17562W        W33636   4.633   6.589   0.215  0.4580 -0.1067 -0.2602
17563W        W33637  15.735  15.287  10.933 -0.0422  0.2254  0.0748
17564W        W33638   8.561  19.017   5.420  0.2574 -0.0084  0.0120
17565W        W33639   1.179   7.506  11.189  0.1066 -0.6174  0.2116
17566W        W33640   1.125  15.627   1.830 -0.0981  0.1138 -0.1477
17567W        W33641   2.555  17.332   1.197  0.2286 -0.1024  0.1180
17568W        W33642  16.247  12.560   1.987 -0.0770  0.0728 -0.0800
17569W        W33643  18.659   8.830  14.922  0.0785 -0.0075 -0.0031
17570W        W33644  12.343  18.717   1.947 -0.2171  0.0944  0.0208
17571W        W33645  15.505   7.764   0.482 -0.3590 -0.0304  0.0593
17572W        W33646   7.572  15.625  10.498 -0.2648  0.1185  0.0849
17573W        W33647  10.963   7.785   1.228 -0.0877 -0.0220  0.2224
17574W        W33648   8.616  16.444   1.736  0.2807 -0.0556  0.0541
17575W        W33649   4.822  14.112   5.189  0.1353  0.1805  0.3459
17576W        W33650   6.708   5.196   3.176  0.0461  0.1285 -0.0184
17577W        W33651   5.680   0.981  13.397  0.1152 -0.1488 -0.0681
17578W        W33652   9.831  17.401  14.083  0.1465  0.0152 -0.0710
17579W        W33653   0.210   2.506  11.964  0.0001  0.1328  0.0178
17580W        W33654   0.344   3.866   1.227 -0.3418 -0.0784  0.0254
17581W        W33655  16.634  19.241   1.807 -0.1763 -0.0259 -0.2137
17582W        W33656  13.433  18.163   2.501 -0.1428  0.1355 -0.0869
17583W        W33657  17.144  14.728  10.694  0.1807  0.0217  0.0690
17584W        W33658   2.033  11.257   4.557 -0.2507  0.0710 -0.3429
17585W        W33659   4.047   5.272   0.834 -0.1841  0.1498 -0.0395
17586W        W33660   4.137  12.728   4.687  0.0392 -0.1426  0.0005
17587W        W33661   3.620  17.758   4.461 -0.1586 -0.0195 -0.3621
17588W        W33662   1.191   9.913   3.284 -0.0622  0.1817 -0.0205
17589W        W33663  15.871   9.096  14.277  0.5735  0.2456  0.0923
17590W        W33664   5.318  17.455  11.091 -0.2873  0.2003 -0.0814
17591W        W33665   8.849   8.405  10.961  0.0125  0.2578  0.0156
17592W        W33666  11.537   0.210   4.348  0.0542  0.2160  0.1637
17593W        W33667   2.459   4.231   3.214 -0.0557 -0.1362  0.3093
17594W        W33668  14.379   0.090  13.316  0.1025 -0.1461 -0.4434
17595W        W33669  15.419   5.574  12.447  0.2582  0.1243 -0.1886
17596W        W33670  18.450   1.485  13.977  0.1862  0.0942  0.1689
17597W        W33671   2.776  16.765   3.102 -0.0926  0.0014 -0.0209
17598W        W33672  14.469   1.283   1.905  0.1698  0.0425  0.2890
17599W        W33673   7.996  13.775  12.562  0.2676 -0.1228  0.0950
17600W        W33674   0.654   5.077  11.991  0.1716  0.1702  0.1214
17601W        W33675  10.414   4.582   4.857 -0.0601 -0.1970 -0.2499
17602W        W33676  17.664  10.925  11.387 -0.1407  0.0250  0.0257
17603W        W33677  16.852   4.338   2.051  0.3565 -0.0918 -0.3154
17604W        W33678   9.724  17.781   4.391 -0.2262 -0.1966 -0.1922
17605W        W33679  13.143   5.744   2.500  0.0186  0.2108  0.0409
17606W        W33680  13.828   8.536  12.619 -0.0915 -0.2886 -0.1974
17607W        W33681  11.647   9.061   3.480 -0.1138  0.1598  0.0369
17608W        W33682   8.381   2.755   0.639  0.0769 -0.0289  0.1892
17609W        W33683  12.700   4.363  13.468  0.0636 -0.0442  0.3024
17610W        W33684   7.164  18.760   0.254  0.0553 -0.2749 -0.3304
17611W        W33685   3.884  17.181  11.580 -0.4098  0.1798  0.2671
17612W        W33686   4.813   1.001   4.006  0.1972  0.2641  0.2969
17613W        W33687  17.726   1.043  13.674  0.1003  0.2217 -0.3521
17614W        W33688  16.136  18.521  12.523  0.1327 -0.1446 -0.1768
17615W        W33689   0.156  12.708  10.774  0.1277  0.1757  0.0167
17616W        W33690   1.450  16.857   3.337  0.2811 -0.1209 -0.0616
17617W        W33691   4.062  18.823   1.978  0.1977 -0.1255 -0.3751
17618W        W33692   1.224   0.223  12.837  0.0135 -0.2374  0.1278
17619W        W33693  11.786   0.534   3.149  0.0353  0.2308  0.1986
17620W        W33694  11.869   5.800  11.130 -0.0034 -0.1021  0.2947
17621W        W33695   4.080   9.707   4.820  0.2104 -0.2207  0.1022
17622W        W33696   6.573   5.596   2.303  0.0312  0.0574  0.2129
17623W        W33697  18.058   2.527   4.293  0.2732 -0.0869 -0.0838
17624W        W33698   6.823   4.656  12.547  0.2563  0.3826  0.2040
17625W        W33699  17.642  16.754   0.982  0.1531 -0.1108 -0.2710
17626W        W33700  16.370  16.774   2.658  0.0468 -0.0946 -0.0948
17627W        W33701  17.590  15.217  12.818 -0.0938 -0.1537  0.1931
17628W        W33702  13.572   5.664   4.680  0.0355  0.0328 -0.1490
17629W        W33703   7.417  13.475  14.847  0.0722 -0.0521  0.2938
17630W        W33704   6.684   8.988  13.508  0.1199  0.2877  0.2016
17631W        W33705   2.067  10.249   1.859  0.2154  0.3497 -0.1860
17632W        W33706   3.826  17.260   3.808 -0.0242  0.0346 -0.2644
17633W        W33707   7.162  13.552   3.196  0.1397 -0.0520  0.0058
17634W        W33708  12.953  18.089   2.352  0.3784  0.0800 -0.2277
17635W        W33709   4.234   6.605   2.656  0.0684  0.4011 -0.0064
17636W        W33710   0.849  16.861  12.698  0.0865  0.0438  0.0467
17637W        W33711   9.936  10.193   2.728 -0.0835 -0.0492 -0.2051
17638W        W33712   4.392   4.996  12.069  0.0293 -0.1956  0.1756
17639W        W33713   6.464  18.416  14.856  0.0600  0.3705 -0.0853
17640W        W33714   0.903  12.798   3.759  0.0937  0.3220 -0.4040
17641W        W33715   4.799  12.435  15.048  0.2266  0.1051 -0.5781
17642W        W33716  12.531  15.441   4.568  0.2342 -0.3148  0.0609
17643W        W33717  13.065   7.394   4.772 -0.3643  0.1836 -0.2446
17644W        W33718  17.331  15.369   2.525  0.3293  0.0709  0.0162
17645W        W33719  11.360  17.171  14.647  0.1262  0.1515 -0.0162
17646W        W33720  14.438  11.158   0.818 -0.0787  0.1082  0.2086
17647W        W33721   5.117  12.385  10.034  0.0023 -0.1682 -0.4428
17648W        W33722   3.675  13.125   2.962  0.0048  0.1142 -0.0044
17649W        W33723  14.839  17.587   2.548 -0.1425  0.3231 -0.2172
17650W        W33724   9.123  18.246   5.213  0.0071  0.0210  0.1524
17651W        W33725  17.921  11.825   1.373  0.0304  0.0329  0.2452
17652W        W33726   9.767  15.648   1.494 -0.3128  0.0483 -0.0523
17653W        W33727  10.804   0.564   3.745  0.1860  0.3789 -0.0150
17654W        W33728   2.079  16.439   4.236  0.1858  0.0181  0.0005
17655W        W33729   5.511   1.667  14.056 -0.2017 -0.0021  0.0586
17656W        W33730   7.501   0.563  10.997 -0.1486 -0.1492  0.1270
17657W        W33731   5.128   5.442  12.975  0.2293 -0.2564  0.2133
17658W        W33732   9.663  13.738   5.691  0.3880  0.5119  0.1688
17659W        W33733   9.276  11.089  14.555  0.0623  0.0509  0.3955
17660W        W33734  12.463  12.274  10.549 -0.3439 -0.1016 -0.1735
17661W        W33735   2.522   1.925  14.477 -0.0885  0.2102  0.1282
17662W        W33736   5.886   1.337   4.992 -0.1879  0.0512  0.0900
17663W        W33737   8.136   9.592   0.573 -0.2143 -0.0313  0.1431
17664W        W33738  10.790   8.429  13.952 -0.2167  0.0256 -0.1823
17665W        W33739  15.657  13.401   2.823 -0.0256 -0.0069  0.1261
17666W        W33740  16.914  12.937   4.594 -0.1088 -0.2387  0.0520
17667W        W33741   0.206  17.408  13.339  0.0129  0.1308  0.3001
17668W        W33742   2.254   2.538   1.090 -0.0134  0.0527 -0.0347
17669W        W33743  10.569   9.280   2.877  0.1290 -0.3358 -0.0361
17670W        W33744   3.474   7.643  14.840 -0.2234 -0.0992  0.0430
17671W        W33745   2.396  16.875  13.746  0.0749 -0.2704 -0.0697
17672W        W33746  12.085  14.567  10.104 -0.2249 -0.3908 -0.2247
17673W        W33747   8.673  15.879  11.799  0.0747  0.0099  0.2906
17674W        W33748  13.520  11.921   0.671 -0.1959 -0.2730 -0.0046
17675W        W33749   0.502   3.830   4.919 -0.3372 -0.1211  0.0429
17676W        W33750   5.118   0.295   1.077 -0.0765 -0.2650 -0.2580
17677W        W33751  11.212  12.628   5.374  0.2191 -0.2276  0.2794
17678W        W33752   8.942   0.611   1.210  0.0869  0.1145 -0.0366
17679W        W33753   2.589   5.203  12.047 -0.1140  0.2400  0.0528
17680W        W33754  18.938   2.245   2.645 -0.2109  0.0145 -0.1706
17681W        W33755  11.946  10.368   2.285 -0.0964  0.2039  0.3408
17682W        W33756  11.487   0.002  14.507  0.1372 -0.0689 -0.0349
17683W        W33757  15.320   7.363   2.163  0.0195  0.1991 -0.0264
17684W        W33758   9.161   7.814   1.865 -0.1194 -0.0657  0.3058
17685W        W33759  13.785   9.750  12.787  0.1193 -0.2114 -0.0890
17686W        W33760   7.371   5.862   4.087  0.1507  0.0653 -0.2559
17687W        W33761   9.869   4.730  10.739 -0.1126 -0.2528 -0.2752
17688W        W33762  12.844   2.254   5.244 -0.1317 -0.1663 -0.3613
17689W        W33763  16.776   9.167  14.730  0.2111  0.1621 -0.1410
17690W        W33764  19.003  17.167   0.394  0.0799 -0.0394 -0.1595
17691W        W33765  16.582   7.796  14.469 -0.2213 -0.4659 -0.1702
17692W        W33766  18.011  16.467  13.818  0.0226 -0.0654  0.1677
17693W        W33767  15.885   9.206   3.627  0.0872  0.0893 -0.1710
17694W        W33768   7.221   3.156  14.386 -0.1651  0.0468 -0.0172
17695W        W33769  14.819  15.525   4.601  0.0917  0.0291  0.3548
17696W        W33770   7.914   2.505   3.666 -0.5268  0.0988 -0.1008
17697W        W33771  14.493   2.625   1.398  0.0760 -0.0936 -0.2289
17698W        W33772   3.962  13.643   1.083 -0.0727  0.0943  0.0300
17699W        W33773   9.071   3.892   2.403 -0.1147  0.1633  0.2532
17700W        W33774  16.726   3.880   0.763  0.1179  0.0492  0.3240
17701W        W33775   9.504  16.189  11.890  0.0515 -0.0946 -0.0275
17702W        W33776   3.350   5.182  11.910 -0.3013 -0.0172 -0.3680
17703W        W33777   2.817   9.130  12.822 -0.3905 -0.0881 -0.0216
17704W        W33778   1.795  18.160   0.604 -0.0523 -0.0404  0.0145
17705W        W33779   3.520  10.094  13.071 -0.4379 -0.0472  0.4687
17706W        W33780  12.566   0.144  13.187 -0.0212  0.4074 -0.0042
17707W        W33781  17.579   4.398   4.537 -0.2016 -0.1783 -0.0277
17708W        W33782   4.126   4.323   4.867  0.1370  0.0696  0.1357
17709W        W33783  12.938  15.586   4.042 -0.0938 -0.1676  0.0153
17710W        W33784   5.179   8.826  14.631  0.0220  0.0874 -0.0655
17711W        W33785  10.238   7.677   3.480  0.0499 -0.3238  0.0263
17712W        W33786   7.276  14.232   2.616 -0.1786  0.3615 -0.0827
17713W        W33787  10.708   4.527  10.530 -0.1123 -0.1038 -0.1708
17714W        W33788   8.280   6.915  14.622 -0.0328 -0.0181 -0.1508
17715W        W33789  17.665   2.403   1.992  0.0441  0.4161 -0.0915
17716W        W33790   6.331   2.000  14.964 -0.0189 -0.0034  0.2606
17717W        W33791   9.169   2.292  10.174 -0.1456  0.0234 -0.1472
17718W        W33792  18.897  11.073  14.184  0.0513  0.0366  0.1137
17719W        W33793  10.977   3.403   2.627 -0.1642 -0.1713  0.3027
17720W        W33794   9.160  15.503   5.542 -0.1070  0.0637 -0.3576
17721W        W33795   3.236  11.120  14.993  0.1145 -0.0806 -0.2157
17722W        W33796  17.790  10.837  14.637  0.0708 -0.0123  0.0976
17723W        W33797  18.410   6.844   2.844  0.1537  0.0091 -0.0465
17724W        W33798   7.605  15.368  14.432  0.2208 -0.2213 -0.3602
17725W        W33799  15.551   7.447   4.952  0.2413  0.0813 -0.3157
17726W        W33800  17.833  10.330   3.055  0.0349  0.3098  0.1087
17727W        W33801  11.403   4.369  12.245  0.2999  0.0961 -0.0392
17728W        W33802  14.264  10.598   1.005  0.1435 -0.1661  0.0177
17729W        W33803  15.778   6.802  14.365 -0.1454 -0.2608 -0.0144
17730W        W33804  12.690  12.003  12.350  0.2741  0.3483 -0.1676
17731W        W33805  16.667   7.882   1.396 -0.2060 -0.0137 -0.0349
17732W        W33806   5.674  16.633  11.138 -0.0224 -0.2527 -0.0094
17733W        W33807   3.360   2.732   1.163  0.0125 -0.1665  0.5251
17734W        W33808   2.419   1.909  13.183  0.3241  0.4224  0.3868
17735W        W33809   5.021  14.093   0.450  0.0932  0.0934 -0.0420
17736W        W33810  12.956  14.933   2.624  0.0009  0.1095  0.0614
17737W        W33811   1.488  19.259  11.113  0.2863  0.2579 -0.3177
17738W        W33812   5.711  18.878   4.575  0.1062  0.1717  0.1735
17739W        W33813   2.850   7.048  12.323  0.0597  0.2491 -0.3067
17740W        W33814   7.767  17.131  11.509  0.2134  0.3751  0.0936
17741W        W33815   9.670   3.934  12.302  0.1209 -0.3174 -0.4392
17742W        W33816   1.577   4.847  12.369  0.1470  0.4070 -0.2747
17743W        W33817   8.914  10.653   1.060  0.1837 -0.0604  0.1821
17744W        W33818   9.056   9.205   1.642 -0.0025 -0.4664  0.3715
17745W        W33819   8.711   6.760  14.175 -0.0788  0.0485 -0.3046
17746W        W33820   6.560  12.090   4.088  0.3829  0.1671 -0.4070
17747W        W33821   8.206  17.288  10.189 -0.0279  0.3228  0.0886
17748W        W33822  17.467   7.754  13.049  0.1176 -0.1376 -0.2225
17749W        W33823   6.615  11.512  13.877 -0.0917  0.3172 -0.1623
17750W        W33824  11.971  14.135   1.681 -0.3102  0.0837 -0.0367
17751W        W33825  16.658  17.155   2.404  0.1564 -0.0829 -0.2846
17752W        W33826  11.854   2.517  11.109  0.1840  0.5406  0.2077
17753W        W33827   5.994   6.161   1.353  0.0587 -0.0027 -0.0114
17754W        W33828   6.227  17.960   4.471  0.0694  0.1736  0.2334
17755W        W33829   8.422  18.483   0.171  0.3975 -0.1706  0.3487
17756W        W33830   8.140  12.669   5.857 -0.0478 -0.0192  0.3139
17757W        W33831   8.305  14.086   4.951  0.0469  0.1111  0.3184
17758W        W33832   5.214   8.289   0.282 -0.1055  0.1210 -0.2218
17759W        W33833   7.127   7.598  14.466 -0.2676  0.1785  0.1648
17760W        W33834   3.992   0.287   0.883  0.0112 -0.3088  0.0202
17761W        W33835   4.018  11.195   2.361  0.3450 -0.4492 -0.0049
17762W        W33836  16.826  17.646   0.763  0.1876 -0.1758 -0.2622
17763W        W33837  18.561  11.658   3.078 -0.1599  0.1768 -0.2033
17764W        W33838  18.425  12.723   1.265  0.1872 -0.1716  0.2586
17765W        W33839  13.808  14.347   2.261 -0.1354 -0.0525 -0.2014
17766W        W33840  16.551   4.050  11.745  0.1537  0.1386 -0.2541
17767W        W33841  18.828   8.006  13.418 -0.5056  0.1927  0.2517
17768W        W33842  16.310   7.038  12.502  0.0231  0.1345 -0.0583
17769W        W33843   4.565  10.048  12.728  0.0408  0.0914 -0.0097
17770W        W33844  16.566   7.724   4.480  0.1811  0.3775 -0.3942
17771W        W33845   5.910   0.379  10.633 -0.0721  0.0498 -0.0197
17772W        W33846  13.300  14.176  13.498  0.2606 -0.1157  0.1884
17773W        W33847   5.254  12.576   0.048  0.2487 -0.0104 -0.0062
17774W        W33848   8.350   0.861  14.667  0.1194  0.0002 -0.3937
17775W        W33849  14.553  17.007   0.068 -0.1004 -0.2452 -0.1729
17776W        W33850  17.923  18.770   4.614 -0.1316  0.2387  0.1680
17777W        W33851   7.662  18.375  11.570  0.1862 -0.1770 -0.2058
17778W        W33852   9.151  13.022  11.150 -0.0619  0.0737 -0.0841
17779W        W33853  17.366  17.658  14.871 -0.1190 -0.0985  0.2997
17780W        W33854   9.253   2.623   1.995 -0.4226  0.1600 -0.3168
17781W        W33855  12.898   2.441   0.427  0.3260 -0.1159 -0.1064
17782W        W33856  10.975  19.080   4.994  0.0244 -0.2382 -0.2757
17783W        W33857  17.164   7.787  10.897  0.1526 -0.2068  0.2542
17784W        W33858  13.712  10.902   4.357  0.0040  0.2179 -0.2858
17785W        W33859   8.131   4.988  12.097  0.0732 -0.0201 -0.1361
17786W        W33860  18.076   5.839  11.553 -0.1136  0.3348 -0.1144
17787W        W33861   7.172  14.683  11.955 -0.1038  0.1518 -0.2397
17788W        W33862  13.086   2.047   4.835  0.0846 -0.2787  0.1459
17789W        W33863  16.658  17.114   0.367  0.2954 -0.1485 -0.2120
17790W        W33864   4.798  14.199  11.049 -0.0402  0.1282 -0.0358
17791W        W33865   4.642   2.369   1.984  0.2151  0.3235 -0.1003
17792W        W33866   6.869   5.088   0.855 -0.1740  0.1357 -0.1068
17793W        W33867   3.631   8.323   0.576  0.0871  0.1403 -0.2564
17794W        W33868  15.603   4.616   0.593  0.2616  0.2268 -0.3819
17795W        W33869  16.984   5.073   3.084  0.2033  0.1308  0.1324
17796W        W33870   4.135  12.578   3.710  0.0710  0.2224 -0.2207
17797W        W33871  13.666   2.275   3.777  0.4983  0.1013  0.6262
17798W        W33872   3.630  12.744   3.837  0.3525 -0.0631 -0.2916
17799W        W33873  14.935   5.551   1.192 -0.4073 -0.2010  0.0654
17800W        W33874   7.575   8.370   5.789  0.3266  0.1138 -0.3365
17801W        W33875   0.881  13.659   0.079  0.0762  0.1542 -0.1961
17802W        W33876   0.761  12.093  10.752 -0.1034  0.1477  0.1818
17803W        W33877  17.988   1.544  14.264 -0.1104  0.1922 -0.1602
17804W        W33878   5.722   9.444   1.932 -0.1253  0.0709 -0.1507
17805W        W33879  13.864   5.580   2.317 -0.1872  0.0377 -0.0765
17806W        W33880   9.380  18.764  13.505 -0.0128  0.1475 -0.0596
17807W        W33881  11.465   9.266  13.309 -0.2166  0.0948 -0.1727
17808W        W33882   1.829  14.539   1.112 -0.3259  0.2595 -0.1412
17809W        W33883  17.888   2.131   2.333  0.0823  0.2209 -0.0858
17810W        W33884   8.079  16.823   1.076 -0.1577 -0.0338  0.2713
17811W        W33885   6.041   9.931   4.340 -0.1388  0.0554  0.1496
17812W        W33886  15.306  16.727   4.479 -0.0251  0.1009  0.0508
17813W        W33887  16.193   2.993   0.899 -0.1074 -0.2996  0.1021
17814W        W33888   6.837  18.714  12.446 -0.1720  0.0550  0.2701
17815W        W33889   9.582  13.808   0.648  0.1270 -0.0098  0.0235
17816W        W33890  15.593  16.229  12.820 -0.1204  0.0734  0.2259
17817W        W33891  13.660   0.932  14.908  0.0471  0.2815  0.1609
17818W        W33892   3.329  14.642  13.325  0.0860 -0.0114 -0.3818
17819W        W33893   4.173  14.938   3.427  0.3009  0.1982 -0.0861
17820W        W33894  15.483  11.845   2.968 -0.1532  0.0553 -0.2780
17821W        W33895   4.282  12.586   2.267 -0.1566  0.0388  0.0698
17822W        W33896   6.902  10.162  14.823  0.1572 -0.2541  0.2661
17823W        W33897   7.415  14.209  10.808 -0.0352  0.4697  0.4655
17824W        W33898  15.586   5.381  14.428  0.0096  0.2015  0.0645
17825W        W33899   2.640  17.262   0.034  0.0393 -0.0515  0.3087
17826W        W33900  16.271  18.453  10.201 -0.0853  0.2737 -0.1880
17827W        W33901  10.035  10.927   3.418 -0.0869  0.1934 -0.1142
17828W        W33902  14.142   8.904   1.294  0.0914  0.2433 -0.0406
17829W        W33903  15.346  18.542  14.110  0.0588  0.3703 -0.0189
17830W        W33904  16.208   0.290  14.020  0.3220  0.1129 -0.0879
17831W        W33905   4.495  16.562  12.658  0.4429 -0.4253  0.0434
17832W        W33906  13.586  16.805   4.280  0.0143  0.1113 -0.4683
17833W        W33907   5.478  11.174  14.660 -0.3261  0.1000 -0.1203
17834W        W33908   2.549   3.683   3.849  0.0733  0.3718  0.0254
17835W        W33909  12.833  11.136  13.416 -0.0834 -0.0808 -0.2360
17836W        W33910   8.585  15.401   0.893 -0.0329  0.1040  0.2265
17837W        W33911   4.523  15.717  13.988  0.2118  0.0546 -0.0275
17838W        W33912  16.048   6.150  11.378  0.1067  0.0842  0.0650
17839W        W33913   3.724  18.596  14.807  0.0296 -0.1825 -0.1628
17840W        W33914   9.927   3.895   4.179  0.0664  0.4191  0.2599
17841W        W33915   6.188   5.914   4.094 -0.0427 -0.1787  0.1069
17842W        W33916   5.214  12.072   0.121  0.1355  0.1601  0.0131
17843W        W33917   4.132  19.035   1.139 -0.2536 -0.0645 -0.3847
17844W        W33918   5.883   8.796  11.505  0.1877 -0.1070 -0.1262
17845W        W33919  11.274   4.616   0.298 -0.2594  0.2759  0.0501
17846W        W33920  10.206  11.020   9.663  0.3140 -0.2773 -0.0924
17847W        W33921   5.949   7.037   0.426  0.0959  0.3054  0.0209
17848W        W33922   8.798  10.150   0.364  0.0531 -0.0747  0.0136
17849W        W33923   1.461   6.645  12.412  0.0401  0.1510 -0.2093
17850W        W33924   3.130  15.596  11.453  0.2963 -0.0474  0.2224
17851W        W33925  16.454   2.532   1.604  0.5501  0.0435  0.0557
17852W        W33926   4.358  17.366   1.600  0.1066  0.2528 -0.3351
17853W        W33927   3.912  15.922  13.634 -0.0231  0.1516  0.3274
17854W        W33928   2.137  13.081  11.571  0.2371  0.0927  0.1784
17855W        W33929  17.006  19.117  11.715  0.1952  0.1777  0.1204
17856W        W33930   3.872   5.243  12.035  0.1068  0.1967 -0.2521
17857W        W33931   9.236   4.841   2.301  0.0093  0.1015 -0.3786
17858W        W33932  14.279  13.650   1.859 -0.1048 -0.0543  0.0049
17859W        W33933   9.155  16.791   5.114 -0.2731 -0.2469  0.0336
17860W        W33934  10.968  19.075   0.604 -0.1291  0.0454  0.5342
17861W        W33935  18.763  14.245   1.793 -0.0390  0.1063 -0.1077
17862W        W33936   7.050  16.466   2.126  0.0957  0.1903 -0.1062
17863W        W33937  18.223   1.292   4.145 -0.0578 -0.0558  0.2145
17864W        W33938   6.674  12.354   2.618  0.0334 -0.2064  0.0046
17865W        W33939  11.937   0.330   4.077 -0.3670 -0.0476 -0.0192
17866W        W33940  11.852  17.450   4.907 -0.3281 -0.4032 -0.1624
17867W        W33941  12.890  17.985   1.677  0.1742  0.1300  0.3352
17868W        W33942   4.000   4.667  14.300 -0.1399 -0.3022 -0.2050
17869W        W33943  14.485   8.185  12.906 -0.0384  0.4292 -0.0380
17870W        W33944   4.309   9.956  13.157  0.0121  0.1237 -0.0146
17871W        W33945  11.900   8.664  11.577  0.2602 -0.0052 -0.0138
17872W        W33946  11.053   5.138  13.059 -0.1690 -0.0079  0.2608
17873W        W33947   2.025  14.789  14.524  0.0317  0.1339  0.2805
17874W        W33948  14.678  13.941  13.368  0.3209 -0.0475  0.0546
17875W        W33949  15.080   8.278   2.076  0.3602 -0.0718  0.2066
17876W        W33950   7.291   3.263   0.822 -0.2289  0.1080 -0.2086
17877W        W33951  13.764  12.940  14.099  0.3045  0.0671 -0.0613
17878W        W33952  11.555   2.911  14.575 -0.3356 -0.0095  0.1946
17879W        W33953   6.659   0.646   5.158  0.1517  0.2362 -0.0019
17880W        W33954   8.029   6.954   3.393 -0.2201  0.0757 -0.1008
17881W        W33955   9.961   3.936   4.646  0.3325 -0.0571  0.0802
17882W        W33956   5.288   5.205   5.092  0.0659 -0.1807  0.1190
17883W        W33957   3.459   3.788   1.658 -0.2552  0.1034 -0.0445
17884W        W33958   2.189  12.895   2.406 -0.0433  0.0742  0.1843
17885W        W33959  10.893  11.953  10.347 -0.2395  0.0746 -0.1798
17886W        W33960   3.093   8.799  13.550  0.1718 -0.0075  0.2779
17887W        W33961   5.914   5.556   0.752  0.0764 -0.0022  0.1186
17888W        W33962   4.793   9.067   1.584  0.0671  0.1720 -0.2108
17889W        W33963   7.778   4.573  10.437  0.1670  0.2097  0.0130
17890W        W33964  12.619   2.156  11.619  0.1937 -0.4040  0.1089
17891W        W33965   1.095   5.996   5.507  0.2335  0.1434  0.1830
17892W        W33966   9.787   9.471   4.009  0.2917  0.0933  0.1072
17893W        W33967  15.085  10.426   0.492 -0.1635 -0.3189  0.0779
17894W        W33968   1.922  12.793   3.415  0.0763 -0.2028 -0.1171
17895W        W33969  11.191   2.256  15.043  0.2607 -0.5250 -0.0429
17896W        W33970  18.987   7.696   1.099 -0.1871 -0.0731 -0.2859
17897W        W33971   8.208   3.653   5.187  0.4428 -0.3519  0.2496
17898W        W33972   1.668  13.192   2.190  0.0721 -0.1984  0.1661
17899W        W33973   6.101   6.675   5.622 -0.0361 -0.0136  0.0795
17900W        W33974  10.125   3.977  10.922 -0.0040  0.0544 -0.0691
17901W        W33975   9.652  15.929   3.817  0.1508  0.0720  0.1173
17902W        W33976  12.894  16.955  14.503 -0.2736  0.0065 -0.0527
17903W        W33977  17.547  16.150  11.520 -0.2255  0.2662 -0.3333
17904W        W33978   2.239  12.882   0.862 -0.2574 -0.2351  0.1670
17905W        W33979   4.926  14.282   3.423  0.1628 -0.1412  0.0672
17906W        W33980  12.261  12.295   3.558 -0.0417 -0.0106  0.0271
17907W        W33981   3.142  17.743  14.996 -0.4237  0.1108  0.1173
17908W        W33982   6.656  14.133  12.928  0.0302  0.2624  0.0910
17909W        W33983   4.705  17.927   0.518  0.1180 -0.0423  0.3547
17910W        W33984   9.284   2.793  14.032 -0.1812  0.3337 -0.5266
17911W        W33985  16.971  18.852   1.653  0.1895 -0.0115 -0.2304
17912W        W33986   2.357  15.802   1.464 -0.4484  0.1383 -0.3003
17913W        W33987  13.016   8.972   2.556  0.3033 -0.0450 -0.1486
17914W        W33988   7.789  10.109   0.440 -0.2554  0.4122  0.0561
17915W        W33989  15.477  16.080   1.827  0.1178 -0.3258  0.1662
17916W        W33990   4.569  18.753   4.087  0.3897  0.1306  0.0048
17917W        W33991  18.138  12.762   3.044  0.2563  0.3603  0.2694
17918W        W33992   5.512  17.138  14.534  0.1974  0.2533 -0.0060
17919W        W33993   7.508   6.430  11.530 -0.1225 -0.1010 -0.2556
17920W        W33994   1.511   7.707   4.724 -0.0502  0.0031  0.0859
17921W        W33995  12.404  13.445  10.878  0.1630 -0.0704 -0.1257
17922W        W33996  13.946  13.458   2.304 -0.1929 -0.0028  0.2148
17923W        W33997   7.033  14.783   0.546  0.3818 -0.0405 -0.0729
17924W        W33998   5.715  11.859  13.420 -0.1894  0.1206 -0.1549
17925W        W33999  12.090  10.358   6.055 -0.0927 -0.0187  0.3399
17926W        W34000   0.175  17.480   0.196  0.0877  0.0615 -0.2069
17927W        W34001   7.396   9.081   2.743 -0.1647 -0.1077 -0.1146
17928W        W34002  17.164   3.120   1.233 -0.1139 -0.2807  0.0425
17929W        W34003  18.116   9.269  11.002  0.1601  0.0515 -0.2190
17930W        W34004  11.228   1.553   4.661  0.3763  0.1850  0.1826
17931W        W34005  11.195  10.300  11.663  0.1088 -0.0427 -0.0336
17932W        W34006  11.240   2.855  14.189  0.1207  0.2645 -0.1643
17933W        W34007  14.958   3.376  12.554 -0.1433 -0.1339 -0.1984
17934W        W34008  12.692  13.479   2.567  0.3242 -0.0732 -0.1669
17935W        W34009   2.138   4.454  14.189  0.0433 -0.2739 -0.3571
17936W        W34010  11.477   8.707   2.527  0.3214  0.1153 -0.3385
17937W        W34011   6.583   5.000   1.655  0.2576 -0.2435  0.2677
17938W        W34012   5.476  17.063  11.979  0.2138 -0.4279 -0.1974
17939W        W34013   4.762  19.301   1.102  0.0743  0.1334 -0.0933
17940W        W34014  14.413   1.325   1.228 -0.1400  0.1264 -0.2644
17941W        W34015  16.699  10.733   0.859 -0.1886 -0.1798 -0.0159
17942W        W34016   3.416   1.395  14.597 -0.2043 -0.1281  0.2116
17943W        W34017   1.807  14.852  14.052 -0.3097 -0.0688 -0.0972
17944W        W34018  11.911   1.295  13.917 -0.0141  0.0382 -0.1069
17945W        W34019  13.611  18.949   3.610  0.4318  0.0255  0.0365
17946W        W34020  13.086  10.221   2.262  0.3930 -0.0491  0.0033
17947W        W34021  14.069   3.561   3.155  0.1444  0.0932 -0.1088
17948W        W34022   4.197  11.799   9.538  0.0079  0.1513 -0.1576
17949W        W34023  18.173   7.170   1.107 -0.2457  0.1722  0.1151
17950W        W34024  10.109  10.420   5.242 -0.0251 -0.0331  0.2569
17951W        W34025   9.553   2.616  14.437 -0.0364  0.0282  0.1992
17952W        W34026   9.946   3.899  13.859 -0.1426 -0.0088  0.1519
17953W        W34027  18.975  10.768   0.410  0.1965 -0.2525  0.0670
17954W        W34028   8.837   3.718  10.327  0.5854 -0.0316 -0.0598
17955W        W34029  18.108  15.545   4.639 -0.5096 -0.0029  0.5828
17956W        W34030   7.535   0.227   3.133 -0.0577 -0.1548  0.5492
17957W        W34031   4.164  11.263   9.765  0.0871 -0.2675  0.0556
17958W        W34032  10.358   9.501   5.707  0.2073 -0.0189 -0.0148
17959W        W34033  18.525  10.131  12.398  0.0927  0.1046 -0.1748
17960W        W34034   1.283   4.059  13.645 -0.0582 -0.0279  0.0577
17961W        W34035  12.990   3.658   3.423  0.0343 -0.0790 -0.0857
17962W        W34036   2.107  13.574  11.833  0.2205 -0.1707 -0.1141
17963W        W34037  13.227   0.440   0.620 -0.0067  0.2497  0.2668
17964W        W34038   1.928   8.794  14.949  0.2648 -0.0212 -0.2072
17965W        W34039   7.324   8.145   4.013 -0.1461  0.0116  0.1163
17966W        W34040   1.793  13.673   2.360  0.0517  0.1820  0.3850
17967W        W34041  12.116  10.262   2.734 -0.0772  0.2552 -0.1180
17968W        W34042   7.843   8.933  15.031 -0.3717  0.0953 -0.4378
17969W        W34043   0.734   6.728  11.314 -0.2672  0.1980 -0.2782
17970W        W34044  13.746  12.428  14.049 -0.0580 -0.2548  0.2685
17971W        W34045  14.198  13.104   0.408 -0.0424  0.2491 -0.2039
17972W        W34046  14.478  15.572  11.685  0.2797 -0.1097  0.0525
17973W        W34047  10.522   5.758   4.536 -0.0096  0.0227 -0.1807
17974W        W34048   0.106  15.677  10.210 -0.3301  0.2002  0.0071
17975W        W34049  11.060   4.313  11.799  0.1947 -0.2128 -0.1323
17976W        W34050   3.924  12.201  10.955 -0.0722 -0.0191 -0.1300
17977W        W34051  17.653   2.079   2.818 -0.0256  0.1666 -0.1264
17978W        W34052   3.124  16.946  12.592  0.2476 -0.1486 -0.1247
17979W        W34053   3.529  12.608   2.888  0.1165  0.2537  0.0542
17980W        W34054   2.405   4.898   3.973 -0.0860 -0.0018 -0.0556
17981W        W34055   3.672   3.015  10.031  0.0922 -0.1859  0.2991
17982W        W34056  19.208   5.688  13.082  0.2418 -0.1135 -0.2073
17983W        W34057   7.636  18.375  10.495  0.0100  0.1400  0.0108
17984W        W34058  13.024  17.210   2.405 -0.2014  0.2381  0.1567
17985W        W34059   8.239  18.728   3.731 -0.3465 -0.0923 -0.2594
17986W        W34060  15.696   8.576  14.126  0.0661  0.3603 -0.2179
17987W        W34061   5.745  17.191   0.145 -0.0493  0.1213  0.1691
17988W        W34062  19.208  14.517  13.946  0.2795  0.1867 -0.1022
17989W        W34063   0.509   7.371   1.985 -0.2335 -0.0679 -0.0683
17990W        W34064  16.035   3.778   2.969  0.5468  0.1491  0.0670
17991W        W34065  14.655  17.597  11.490 -0.0530  0.1016 -0.0892
17992W        W34066   6.552  12.764   3.126  0.1085  0.1004 -0.2935
17993W        W34067  15.158   9.320  13.067  0.4405  0.1912 -0.2290
17994W        W34068   9.153   1.642   1.140 -0.2791 -0.0804  0.0558
17995W        W34069   4.379   3.711   0.160 -0.2404 -0.1383  0.1798
17996W        W34070  17.379   3.709  14.976  0.1401  0.1480  0.1294
17997W        W34071   6.198  13.599  12.350  0.0265 -0.0113  0.0156
17998W        W34072  13.787  13.461   2.762 -0.1864  0.0028  0.0976
17999W        W34073   8.325   5.844  14.242 -0.0852  0.0076  0.2511
18000W        W34074  15.479   1.027  14.789  0.0835 -0.2543 -0.2441
18001W        W34075  14.165  11.033   3.470  0.0961 -0.1385  0.2191
18002W        W34076  11.486  10.798   4.876 -0.4615 -0.1895 -0.4054
18003W        W34077   7.976  14.687   1.248  0.2708 -0.2379 -0.2996
18004W        W34078   5.933  16.161   1.290  0.1502  0.2175 -0.0498
18005W        W34079  15.788   9.119   4.091  0.3284 -0.3686  0.0745
18006W        W34080   2.209  18.306   2.135 -0.1356  0.1865 -0.0878
18007W        W34081   0.013   1.154  13.098 -0.0460  0.1437  0.1424
18008W        W34082   0.991  11.093   2.512  0.2581  0.1800  0.1874
18009W        W34083  16.179   4.518   1.407  0.2431 -0.0937  0.3413
18010W        W34084   1.506   5.947  12.027 -0.2337  0.1275 -0.0034
18011W        W34085  10.512   1.956   2.861 -0.0160  0.0086 -0.0542
18012W        W34086  12.894  16.740   1.056 -0.0173 -0.2584  0.1174
18013W        W34087  12.802   4.946   0.225 -0.2156  0.0724 -0.1830
18014W        W34088  13.679   3.109   4.261  0.1428 -0.0480  0.1349
18015W        W34089   4.979   1.685   4.135  0.0796  0.0875  0.3638
18016W        W34090  15.095  15.651  14.738  0.0215  0.0796  0.0333
18017W        W34091   2.684   3.938   4.606 -0.0094 -0.1592 -0.1725
18018W        W34092  18.851  15.301   0.970 -0.0728  0.0116 -0.0181
18019W        W34093   0.718  16.995   1.173  0.2034 -0.0373  0.2013
18020W        W34094   9.648   8.502   3.214  0.0923 -0.2212  0.1903
18021W        W34095   0.456  17.917  13.044  0.0794 -0.0668  0.1233
18022W        W34096   6.517   0.791   3.728 -0.0017 -0.0038  0.0885
18023W        W34097   2.613  10.679   3.706  0.0233  0.0240  0.3342
18024W        W34098  12.454  18.950  11.439 -0.3510 -0.2185 -0.0237
18025W        W34099   5.793   5.434  14.353 -0.0125  0.1068  0.0381
18026W        W34100  19.100  14.005  13.966  0.1041  0.0446 -0.0088
18027W        W34101  10.224   5.227  14.852  0.1241  0.2328  0.1062
18028W        W34102  11.734   1.653  12.128 -0.1554 -0.1938 -0.0448
18029W        W34103  13.499   5.426   2.620 -0.1029  0.3071 -0.0787
18030W        W34104   9.603  10.001  12.711  0.1779  0.2099 -0.3337
18031W        W34105  10.506  12.432  14.936 -0.0744  0.0485  0.1879
18032W        W34106  13.868  18.395  14.149 -0.1636 -0.3032 -0.1823
18033W        W34107  16.848   7.847   5.246  0.3589 -0.3167 -0.0914
18034W        W34108   7.179   9.435  12.137 -0.0926 -0.3478  0.0756
18035W        W34109  18.162   3.075   5.599  0.1425 -0.0678  0.0879
18036W        W34110  17.298  11.008  14.549 -0.0123  0.0377 -0.2752
18037W        W34111  17.446   7.079   0.552 -0.1822 -0.4128  0.3276
18038W        W34112   8.767  11.352  14.547 -0.1691 -0.2391 -0.4188
18039W        W34113  14.466  12.397   3.565 -0.0235 -0.0492  0.0635
18040W        W34114  15.552  10.874  13.563  0.2673 -0.1057 -0.2972
18041W        W34115  13.257   1.695  10.645 -0.2659 -0.2634 -0.1852
18042W        W34116   9.251  17.110   0.289  0.1592 -0.2669  0.0923
18043W        W34117   8.947  13.242  11.746  0.1625  0.1485  0.0741
18044W        W34118   7.763  13.317   1.068 -0.1624  0.2836  0.0121
18045W        W34119  12.804   3.319  10.603 -0.0348 -0.0301 -0.2625
18046W        W34120   2.313  14.752  14.957  0.0867  0.1780  0.2897
18047W        W34121  15.884   1.960  12.953  0.1536 -0.2318  0.0855
18048W        W34122  10.332  14.076  13.005 -0.0653 -0.2955 -0.0361
18049W        W34123   6.256   0.258  13.659  0.0661 -0.3923 -0.2839
18050W        W34124   1.076   9.392  14.083  0.0550  0.1084 -0.1520
18051W        W34125  16.249  10.251  12.932 -0.2195 -0.0752 -0.0482
18052W        W34126   3.221   8.489  11.242  0.0581  0.1139 -0.0429
18053W        W34127   4.670   5.905   5.835  0.0162  0.1227 -0.0407
18054W        W34128   9.602   5.777  13.216  0.1513  0.0160  0.2494
18055W        W34129  16.441   4.733   4.830 -0.0963  0.2745 -0.0275
18056W        W34130   6.895  15.741  14.728  0.3002 -0.0446  0.1375
18057W        W34131   1.527   8.408  13.589 -0.1247 -0.1145 -0.0055
18058W        W34132  15.283   5.777  14.500  0.0530  0.2254 -0.1482
18059W        W34133  10.217   9.761   2.777  0.1791  0.1985  0.1344
18060W        W34134  14.772   5.772   3.041  0.0065  0.0708  0.2778
18061W        W34135   1.024   6.780   5.888 -0.0093 -0.1772 -0.3312
18062W        W34136  12.087   9.007  12.021 -0.2045 -0.0344 -0.0492
18063W        W34137   5.184  10.376  10.671  0.2152  0.1593  0.1057
18064W        W34138  16.989   8.814  10.384 -0.3271 -0.0365 -0.2311
18065W        W34139   0.251  14.567  15.000 -0.2334 -0.1111 -0.1006
18066W        W34140  17.570   3.048   2.728  0.0907 -0.1399 -0.0188
18067W        W34141  14.876   2.046   4.416  0.1081 -0.1036 -0.2764
18068W        W34142  18.369   6.326   3.413  0.0779  0.1844 -0.0903
18069W        W34143  13.449  10.370   2.613 -0.2031  0.1487 -0.1729
18070W        W34144   9.483   0.770   3.930 -0.2816  0.1683  0.0312
18071W        W34145   3.663   8.704   3.078 -0.1646  0.1436  0.0556
18072W        W34146  12.156  10.690  12.364  0.1345 -0.1639 -0.1519
18073W        W34147   9.135  15.478  14.037 -0.1936  0.1296  0.0706
18074W        W34148   9.213  10.222   5.198  0.1293  0.3596 -0.0449
18075W        W34149   5.351   4.046   4.200  0.1668  0.0489 -0.1075
18076W        W34150   5.130   7.123  11.521 -0.2088  0.0923 -0.3577
18077W        W34151  11.043   8.341   0.593 -0.2942 -0.0584 -0.1019
18078W        W34152  13.083   3.558  13.305 -0.1194 -0.1284  0.2329
18079W        W34153  19.287   2.988   1.745 -0.2672  0.1526 -0.0207
18080W        W34154  11.222  10.141   2.922 -0.0698  0.0442 -0.2733
18081W        W34155  13.326   1.677   3.045 -0.3332 -0.0024 -0.2462
18082W        W34156  11.180   0.692   1.686 -0.0788 -0.3022  0.0606
18083W        W34157  13.952  15.021  10.066 -0.0631 -0.1384  0.3834
18084W        W34158  16.412  13.753  11.975  0.1674 -0.1471  0.0106
18085W        W34159   1.247   2.757   3.917 -0.1503 -0.1999  0.1114
18086W        W34160   5.948  12.595  11.827  0.2127 -0.2766 -0.0472
18087W        W34161  15.983  11.930   2.438 -0.3085 -0.0807 -0.1114
18088W        W34162  11.581   7.594   2.981 -0.1751  0.0866  0.0596
18089W        W34163  18.864   2.804   2.559 -0.0445 -0.1355  0.4367
18090W        W34164  13.169  17.689   2.111  0.0405 -0.4031 -0.1025
18091W        W34165   2.909  13.360   1.442 -0.1287 -0.0687  0.1688
18092W        W34166  15.007   0.394   2.188  0.1313 -0.1712 -0.3253
18093W        W34167  13.927   1.426  13.107  0.2084 -0.1136  0.1976
18094W        W34168   7.773   0.500  14.187  0.3030  0.3926 -0.0596
18095W        W34169  13.101   5.787  10.458  0.1681 -0.3272  0.2674
18096W        W34170   3.313  10.553  12.502 -0.0886 -0.3151  0.0616
18097W        W34171  17.215   6.936   5.065 -0.1976  0.2221 -0.1917
18098W        W34172  14.108   7.596  10.227  0.0036  0.0114 -0.1333
18099W        W34173  17.330  16.983   5.045 -0.0714  0.2830 -0.2109
18100W        W34174   5.693   3.872   5.906  0.2101  0.1688 -0.0729
18101W        W34175   0.814   8.991   3.169  0.3019 -0.2479 -0.1174
18102W        W34176  16.451  15.561  13.567  0.5233  0.1650 -0.0125
18103W        W34177  10.981  11.928  14.412  0.2159  0.0706 -0.0407
18104W        W34178   6.019   6.263   4.432 -0.3972  0.0686  0.0615
18105W        W34179  10.249  10.711  10.855  0.0164 -0.0633  0.0710
18106W        W34180   2.096  17.623   3.319 -0.0653 -0.2630 -0.0750
18107W        W34181  19.231  12.121   1.171  0.0199 -0.3252 -0.2673
18108W        W34182   2.428   8.876  13.116  0.2523  0.0119  0.1135
18109W        W34183  10.797  10.115   2.287 -0.2888  0.0198  0.1161
18110W        W34184   5.678  10.124   3.069 -0.0811 -0.0820  0.0672
18111W        W34185   6.575   0.242  12.562  0.0909  0.0976 -0.2089
18112W        W34186  13.412  12.685   2.218  0.0758  0.2193  0.4725
18113W        W34187  17.709   4.188  14.866  0.1188  0.0652 -0.1405
18114W        W34188  12.900   9.429  12.351  0.1505 -0.3988 -0.1802
18115W        W34189  18.897   5.717   0.062  0.0380  0.4579  0.4089
18116W        W34190  14.909  17.924   3.800  0.2669 -0.0016  0.0003
18117W        W34191   4.185  12.877  12.960 -0.0465  0.0151  0.1142
18118W        W34192   5.847   3.238  11.452 -0.0059 -0.1222 -0.3482
18119W        W34193  13.827  15.483   3.538 -0.1379  0.0896  0.3460
18120W        W34194  17.662  13.615   4.701  0.2068  0.0591  0.1135
18121W        W34195  16.660  12.533  10.799  0.0533  0.0353 -0.0038
18122W        W34196  10.200   2.138  11.171 -0.0771 -0.0320 -0.0084
18123W        W34197   7.671   6.318  12.064 -0.0195  0.2384 -0.4068
18124W        W34198  11.819  10.872  12.676 -0.1183  0.0333 -0.2920
18125W        W34199  10.379   3.380   1.254 -0.0925  0.3709 -0.1644
18126W        W34200   1.807   7.070  11.752  0.1792  0.0142  0.1945
18127W        W34201  15.022  18.929   1.946 -0.0207 -0.0853 -0.0699
18128W        W34202  18.797  14.823  13.940  0.0753  0.3013  0.1765
18129W        W34203  11.479   6.385   3.717 -0.0658  0.2446  0.1021
18130W        W34204   2.121   0.224   0.548  0.0286  0.1801  0.0217
18131W        W34205   6.333   7.993   1.942 -0.0266  0.0186 -0.3113
18132W        W34206  10.758   8.520   5.078 -0.1299  0.1377  0.0464
18133W        W34207  14.525  16.630   1.029 -0.1031  0.0192 -0.2018
18134W        W34208   9.639  15.729  11.347 -0.1154  0.1231  0.1071
18135W        W34209  10.750   0.474   0.039 -0.0038 -0.0639  0.2635
18136W        W34210   3.120   1.053  12.405  0.1567  0.1132  0.1411
18137W        W34211  15.743   3.299   3.051  0.1300 -0.1207 -0.0023
18138W        W34212   5.271   5.268  14.305  0.1895 -0.3665  0.2180
18139W        W34213   3.648   4.188   4.958 -0.0306  0.0519 -0.0514
18140W        W34214  11.957   4.060   0.473 -0.0982  0.1680 -0.0876
18141W        W34215   8.803   4.173  13.354 -0.0170  0.1016  0.0287
18142W        W34216  13.120  18.513  13.097 -0.1816 -0.0039  0.1504
18143W        W34217  11.614  17.327   1.365  0.0535  0.1369 -0.0038
18144W        W34218  11.664  13.171   0.805  0.1376  0.3150 -0.1934
18145W        W34219   1.792  11.428  13.078 -0.0171  0.2196 -0.3064
18146W        W34220   0.338  11.340  13.641 -0.0281 -0.1318 -0.3336
18147W        W34221  12.679   3.870  11.735 -0.1569 -0.0100 -0.0129
18148W        W34222   8.553   2.210   1.619 -0.0010  0.0204 -0.0859
18149W        W34223  14.599   4.377  14.735  0.1692 -0.0765  0.2601
18150W        W34224   0.155  10.733  11.260  0.0626 -0.0301  0.2034
18151W        W34225  15.383   1.726  11.432  0.1065 -0.3213  0.2022
18152W        W34226   0.241   5.366  12.756  0.1826 -0.0605  0.2370
18153W        W34227  10.185  19.185   4.390 -0.1424 -0.2411  0.0065
18154W        W34228  18.832  11.318  11.127 -0.2422 -0.1233 -0.1203
18155W        W34229   7.552  11.684   0.387 -0.1556  0.0355 -0.1461
18156W        W34230   0.805   4.088  14.005  0.1806  0.0705 -0.0484
18157W        W34231   8.527  17.451   1.794 -0.0842  0.0064 -0.3907
18158W        W34232  12.091  19.014  14.743 -0.1341  0.0004 -0.3003
18159W        W34233   6.014   3.625   2.451  0.1821 -0.1644 -0.2710
18160W        W34234  15.077  10.912   4.272  0.2918  0.0087 -0.0803
18161W        W34235   2.010  18.888  14.102 -0.1266  0.0980 -0.1456
18162W        W34236   8.348  13.057  13.852 -0.0226  0.1022  0.0052
18163W        W34237  11.596  13.465   2.991  0.3359  0.2422  0.0773
18164W        W34238   3.847   0.634   0.044  0.3579  0.1236  0.0334
18165W        W34239  18.497  15.246  12.935 -0.2113  0.2133 -0.0221
18166W        W34240   0.892   4.837   4.307  0.2134 -0.0005  0.0007
18167W        W34241   7.619   4.070  12.051 -0.3980 -0.2645  0.2298
18168W        W34242   9.802  15.032   5.367  0.0949 -0.1194  0.0182
18169W        W34243   6.161  13.736   3.790  0.1931 -0.2198  0.1499
18170W        W34244  11.495  16.197  13.037 -0.1450 -0.1653 -0.1786
18171W        W34245   0.291  14.374   4.213 -0.1484 -0.0559 -0.1324
18172W        W34246   5.927  18.465   2.144  0.1020  0.0490  0.1257
18173W        W34247   2.395   4.081   0.752  0.1805 -0.0690  0.0038
18174W        W34248  12.099  15.457  10.283  0.0010 -0.3890  0.1581
18175W        W34249   4.188   5.874  12.413  0.1605 -0.0442 -0.1073
18176W        W34250   9.381  16.893  12.095 -0.0844  0.0670 -0.2758
18177W        W34251  12.281   7.467  11.062 -0.1848 -0.0677  0.3378
18178W        W34252   7.549  16.986   0.339  0.0006  0.1330 -0.0246
18179W        W34253  13.064   4.964   0.663 -0.1310  0.3450 -0.3748
18180W        W34254  17.289   5.935   3.680 -0.1634  0.0466 -0.1927
18181W        W34255   0.196   8.709  12.766 -0.0308  0.0449 -0.0882
18182W        W34256  18.122   9.035  11.548  0.4905 -0.0378  0.0224
18183W        W34257  11.915   9.579   0.959  0.2235  0.0078  0.1387
18184W        W34258  11.555  15.810   0.439 -0.1226 -0.2853 -0.1814
18185W        W34259   1.737   8.856  13.820 -0.1402  0.3417  0.1503
18186W        W34260   4.251  16.608  13.655  0.1212 -0.1174  0.3700
18187W        W34261  12.754   7.089   2.101  0.0542 -0.1150  0.1480
18188W        W34262   4.486   5.335  11.193 -0.0801  0.2085 -0.1812
18189W        W34263  12.740   6.520  12.170 -0.0107  0.0209 -0.0491
18190W        W34264  14.663   6.729   2.404  0.1260  0.0544  0.3194
18191W        W34265  15.114  12.968   2.684 -0.5012  0.1954 -0.2389
18192W        W34266   2.326  10.341   3.421  0.4219 -0.0035 -0.1826
18193W        W34267  19.136  10.174   3.822 -0.2678 -0.0278  0.0918
18194W        W34268  10.890   0.318  14.511 -0.2650 -0.2223 -0.0718
18195W        W34269   2.937   2.639  14.800 -0.1536 -0.3903 -0.1585
18196W        W34270   7.038   4.569   4.707 -0.1064  0.1118  0.1350
18197W        W34271   9.812  14.425  12.552 -0.2319  0.1119  0.0138
18198W        W34272   6.948  10.451   6.017  0.3011 -0.1641  0.0917
18199W        W34273  12.301   3.977   5.801 -0.0469 -0.0487 -0.1940
18200W        W34274   5.462  19.014   1.529  0.3576 -0.2344 -0.0807
18201W        W34275  11.793   3.500  14.497 -0.0824  0.0060  0.4741
18202W        W34276   3.344   2.232   1.948 -0.2964 -0.0633 -0.1145
18203W        W34277  17.297  15.911   9.952  0.2143  0.0621 -0.2970
18204W        W34278  17.073  17.860  10.035  0.1233 -0.1725 -0.0305
18205W        W34279  15.337   9.966  10.734 -0.1790  0.2056 -0.4062
18206W        W34280   8.118   3.873  10.957  0.2652  0.1631 -0.0401
18207W        W34281   8.416  11.761  11.077  0.3988  0.1237  0.0897
18208W        W34282   9.088   6.093   1.450 -0.3575 -0.0047 -0.1492
18209W        W34283  16.052  12.442   3.790 -0.3239  0.1316  0.2004
18210W        W34284   8.189  14.386  14.484  0.1664  0.2742  0.2146
18211W        W34285   2.743  16.519  10.897 -0.2200 -0.0398 -0.6412
18212W        W34286   8.970  13.976  10.143 -0.3331  0.0230  0.0177
18213W        W34287  13.420   2.172  12.803 -0.0885  0.2570 -0.1424
18214W        W34288   7.784   9.631   1.757 -0.0463 -0.0123 -0.1973
18215W        W34289   2.527   4.856   0.441  0.2349 -0.1769  0.1658
18216W        W34290  10.816   9.766  14.179  0.1043  0.2026 -0.0295
18217W        W34291  14.174   2.115   0.269  0.2633 -0.3435  0.2514
18218W        W34292  10.122   7.574  12.392  0.1899 -0.1638 -0.0538
18219W        W34293  17.019   1.597  13.419  0.2160  0.2054 -0.3700
18220W        W34294   3.050   1.208  14.300 -0.2791 -0.0378  0.1472
18221W        W34295   4.532  14.312   1.815 -0.1339  0.1187  0.3175
18222W        W34296  18.898   6.786  10.152 -0.0948 -0.0311 -0.0662
18223W        W34297   7.977   7.490  13.865  0.1392 -0.0828  0.1288
18224W        W34298   5.560   6.240  10.517  0.1201  0.1803 -0.1430
18225W        W34299   7.186  11.428  11.300  0.2227  0.0556 -0.3057
18226W        W34300   0.259   8.149   0.346 -0.3978 -0.4068  0.0975
18227W        W34301   2.685   1.433  11.754  0.0295  0.2360  0.1281
18228W        W34302   4.296   5.213  13.104 -0.0354 -0.1942  0.0206
18229W        W34303   0.623   0.633   0.719  0.1579 -0.1197 -0.2813
18230W        W34304  16.345   7.006  10.813 -0.0569 -0.0981 -0.0803
18231W        W34305   4.595  10.846  11.490  0.0521  0.0635  0.1687
18232W        W34306   7.292  11.877  14.928 -0.0760 -0.2625  0.0596
18233W        W34307  18.819   5.057  10.611  0.1237  0.3143 -0.1483
18234W        W34308   6.117  17.784  11.633  0.2910 -0.0772 -0.2650
18235W        W34309   0.629  12.124   2.594 -0.0336 -0.2826 -0.0218
18236W        W34310   9.845   8.344  11.088 -0.4343 -0.0947 -0.2060
18237W        W34311   6.679   0.028   1.145  0.0488 -0.3453 -0.1343
18238W        W34312  14.804  14.363   4.144  0.0341 -0.2902  0.1889
18239W        W34313   6.011   5.872   3.015  0.3092 -0.0344  0.0685
18240W        W34314   1.351  15.026   4.152  0.1808 -0.3185 -0.4446
18241W        W34315   3.633   3.406   5.150 -0.0398  0.3830  0.1576
18242W        W34316  12.158   6.680   4.097 -0.1704  0.0448  0.1070
18243W        W34317   4.452   0.704  13.246 -0.1104 -0.3160  0.3122
18244W        W34318   0.857   3.330   4.577  0.6262  0.2910 -0.1572
18245W        W34319   8.494   3.775   0.105  0.2922 -0.0446  0.1902
18246W        W34320   7.630   8.326   5.251 -0.0176 -0.0471  0.1115
18247W        W34321  15.786  12.255   1.692 -0.2484 -0.0534 -0.1593
18248W        W34322   4.060   1.881   1.340 -0.2428  0.2212  0.0652
18249W        W34323   2.655   6.304   1.609  0.0496 -0.1849  0.1735
18250W        W34324   7.603   6.205   5.277 -0.2326  0.2355 -0.0010
18251W        W34325  14.900  10.580   4.934  0.1183  0.0125  0.0830
18252W        W34326   3.568  10.773   2.369 -0.2060  0.0942  0.3154
18253W        W34327  11.408  13.781   4.897 -0.1163  0.2163  0.1536
18254W        W34328   9.791  12.590   2.714  0.0674 -0.0731  0.0346
18255W        W34329   2.622  12.772   2.134 -0.0625 -0.4658 -0.0029
18256W        W34330  15.465  18.591  10.001 -0.0846 -0.0544  0.0008
18257W        W34331   0.804   8.842   2.095  0.1147  0.1489 -0.0271
18258W        W34332  18.732  10.423  13.769 -0.0751 -0.0536 -0.3612
18259W        W34333  15.383   4.851   3.859  0.3703  0.0348 -0.1965
18260W        W34334  18.532  11.307  10.286 -0.3649  0.1649  0.0204
18261W        W34335   7.369  19.246   1.381 -0.0671 -0.1481 -0.1433
18262W        W34336  18.986  12.950  10.606 -0.0317 -0.1872  0.0281
18263W        W34337  16.318  10.625   3.068 -0.0397 -0.3974 -0.2835
18264W        W34338  11.515   1.290  12.528 -0.0253  0.0773 -0.0608
18265W        W34339  15.649  18.893  13.175  0.1355  0.4779 -0.1633
18266W        W34340   2.836  16.470  10.423 -0.2677  0.0627 -0.2900
18267W        W34341  18.139  14.345  11.382 -0.1504  0.0350  0.3459
18268W        W34342  14.013   5.832   9.850 -0.1385 -0.0677 -0.1182
18269W        W34343  12.343  15.955   0.811 -0.0899  0.1455  0.3633
18270W        W34344   8.937   7.631   4.272 -0.2781 -0.1938  0.1112
18271W        W34345   6.727  11.734  14.815 -0.2849  0.1377 -0.0850
18272W        W34346   0.019  13.556  14.243  0.0404  0.5230  0.0012
18273W        W34347   6.374   4.862   1.182 -0.4927 -0.2778 -0.1019
18274W        W34348   8.225   7.429   4.054  0.2713  0.0439 -0.0669
18275W        W34349   6.678  18.116   4.257  0.2518  0.0057  0.1688
18276W        W34350   3.118   2.424   1.508 -0.0410 -0.0136  0.2265
18277W        W34351   5.814   0.350  14.625 -0.1990 -0.0036  0.2598
18278W        W34352  12.992  15.459   3.583  0.0013  0.1455 -0.0052
18279W        W34353   9.188   7.309   2.519  0.1341 -0.0982  0.1414
18280W        W34354   7.493   9.434  13.037 -0.0054 -0.0109 -0.0815
18281W        W34355  16.365   5.090   1.299  0.3365 -0.1059 -0.0830
18282W        W34356  18.865   2.414  15.003  0.0451  0.1445  0.1838
18283W        W34357   1.546  14.549   0.671  0.6529 -0.0692 -0.2550
18284W        W34358  17.842  12.034   5.464 -0.2271  0.1647  0.3439
18285W        W34359   5.523   7.041   3.391 -0.1421  0.2847  0.1640
18286W        W34360   6.338  16.689   1.106  0.1964  0.3389 -0.0610
18287W        W34361   1.548   4.802   0.424  0.0786  0.2625 -0.0387
18288W        W34362   5.202   6.549  10.745 -0.1176 -0.0479 -0.0102
18289W        W34363   8.208   9.652   3.170 -0.2246  0.2801  0.0822
18290W        W34364   6.076  13.714   4.835  0.1686  0.1564  0.1543
18291W        W34365  19.186  18.491   2.851  0.4617 -0.2087  0.3620
18292W        W34366   3.737   4.820  11.827  0.4039 -0.1152  0.1247
18293W        W34367   7.473  16.508   3.034  0.2347 -0.3278  0.0811
18294W        W34368   8.560  13.423   4.122  0.3825 -0.1834 -0.4203
18295W        W34369  10.102   0.979  12.072  0.1674 -0.0545 -0.1945
18296W        W34370  13.097   7.421  11.246 -0.1785  0.2661 -0.0752
18297W        W34371  13.126  13.699  13.264  0.2019 -0.0195 -0.1650
18298W        W34372   2.402  14.363   3.659  0.0348  0.1415  0.2663
18299W        W34373   9.405   8.697  11.869  0.1570 -0.2589  0.0966
18300W        W34374  14.721   9.892   4.836  0.0092 -0.0868 -0.1049
18301W        W34375  10.356  15.896  13.071  0.1293 -0.2446  0.1812
18302W        W34376  16.521   4.844   3.797  0.1475 -0.1034  0.3813
18303W        W34377   8.002   7.172  11.669  0.0009 -0.0272 -0.0497
18304W        W34378   0.778   9.016   4.211  0.0230  0.2067  0.1351
18305W        W34379   1.150  11.946   1.797  0.0217 -0.1774 -0.1047
18306W        W34380   3.798  15.676  11.218 -0.1214 -0.0450  0.0828
18307W        W34381  16.053  11.775  15.022  0.3284 -0.0173  0.0123
18308W        W34382  12.752  10.651   2.154 -0.2543 -0.1586  0.0227
18309W        W34383  15.448  15.327  12.462 -0.2089 -0.2549  0.2534
18310W        W34384  17.978   5.822   2.283  0.0821 -0.1296 -0.1668
18311W        W34385   7.452   1.876  10.633 -0.0516 -0.1465 -0.1331
18312W        W34386   0.350  16.324  11.510 -0.1438 -0.3896  0.2377
18313W        W34387   9.578   3.170  10.747 -0.0141 -0.2328  0.0219
18314W        W34388   9.505   5.887  13.775  0.0754  0.0201  0.1566
18315W        W34389   9.827  18.869   0.336  0.0973  0.0748 -0.0899
18316W        W34390  18.664   6.384  10.571  0.1880 -0.0723 -0.2581
18317W        W34391  16.075   2.102  12.438 -0.0514  0.1035  0.3377
18318W        W34392  15.283   3.595  14.704  0.0362  0.1114  0.2906
18319W        W34393   3.629  17.448  14.974  0.0744 -0.4521 -0.3360
18320W        W34394  17.168  13.985  12.938 -0.0504 -0.0768  0.0575
18321W        W34395   1.437  12.541  14.805 -0.0558 -0.0135  0.2988
18322W        W34396  16.267   3.936   4.421  0.0502  0.0157 -0.3108
18323W        W34397  10.224   7.637   1.749  0.2003 -0.3470  0.1261
18324W        W34398  16.204  10.524   1.985 -0.0190 -0.0254  0.2987
18325W        W34399   5.969   2.879   0.889 -0.2530  0.0512 -0.1808
18326W        W34400   5.489   4.099  14.891 -0.3339 -0.2466  0.2098
18327W        W34401   3.505  18.514  13.117  0.0570 -0.1582  0.3054
18328W        W34402   6.614   8.515  11.917 -0.0602  0.3336 -0.0519
18329W        W34403   4.470  13.492  13.705 -0.3509  0.0269  0.3176
18330W        W34404  18.455  12.755   2.263  0.2036 -0.3264 -0.2154
18331W        W34405  12.030  13.550   4.182  0.0013 -0.0765  0.0782
18332W        W34406  10.552  11.650   0.776 -0.0969  0.0552  0.4005
18333W        W34407  17.244   1.885  10.822 -0.0823 -0.1903  0.1902
18334W        W34408   4.185  18.099  11.325  0.2479 -0.0313  0.2190
18335W        W34409  10.092   8.444  13.289  0.2420  0.3239 -0.4326
18336W        W34410   1.840   1.109  13.667 -0.1819  0.0933  0.0220
18337W        W34411   1.066   7.773   5.027  0.0207 -0.2955 -0.0475
18338W        W34412   9.723  13.264  12.019  0.0096 -0.0878 -0.3401
18339W        W34413   8.313   2.817   9.491 -0.0202  0.0656  0.0066
18340W        W34414   0.278   6.279   2.292  0.1142  0.0346  0.4604
18341W        W34415   2.720   9.662   1.250 -0.1211  0.4580  0.0997
18342W        W34416   4.116   0.331   0.325 -0.0269 -0.2388 -0.1509
18343W        W34417  14.671   2.216  11.317  0.0781  0.3358  0.1595
18344W        W34418  19.232   7.216   1.803 -0.0382 -0.1177 -0.3381
18345W        W34419  18.543   4.528  12.060  0.1118  0.0564  0.1462
18346W        W34420  17.998  18.705   2.898  0.2446 -0.0729  0.3038
18347W        W34421   7.551   1.991   1.426 -0.0055  0.4013 -0.2081
18348W        W34422  16.101  13.548  10.031 -0.2705  0.0763 -0.1224
18349W        W34423  17.840  11.177  13.005  0.0230  0.0397  0.0986
18350W        W34424  18.718   2.122  12.116 -0.3806 -0.1001  0.4162
18351W        W34425   6.295   7.169   3.428 -0.1640 -0.1076  0.1439
18352W        W34426  12.789   3.475   0.061  0.1704  0.1676 -0.3476
18353W        W34427  12.656  10.678   1.121  0.0270  0.1018  0.3431
18354W        W34428   5.386  13.888  13.391  0.1797  0.0627 -0.0052
18355W        W34429   5.271  15.495  14.472  0.0501  0.2418 -0.1424
18356W        W34430  18.113  11.656   5.241 -0.2431  0.1207  0.0994
18357W        W34431  17.064  17.995   2.103  0.0502 -0.0822 -0.2388
18358W        W34432   0.100  14.486   0.765 -0.1498  0.1749  0.3034
18359W        W34433  10.242  10.477  14.085 -0.1132 -0.0541 -0.1767
18360W        W34434  10.182   9.074  13.380 -0.1777 -0.4069 -0.0201
18361W        W34435  14.684   5.429   2.176  0.1368 -0.0417  0.0922
18362W        W34436   3.038  12.961  11.994 -0.1978 -0.0124  0.0814
18363W        W34437  18.689   4.107   4.959  0.2101 -0.2352  0.3532
18364W        W34438   7.300  13.537   2.130  0.1612  0.1312 -0.7089
18365W        W34439  16.841   2.055  13.332 -0.0069  0.2256  0.0076
18366W        W34440   0.201  12.475  10.281  0.0277  0.2038 -0.2656
18367W        W34441   8.596   4.275   2.469  0.0278  0.2493 -0.2304
18368W        W34442   6.246   2.198   1.367  0.1704 -0.2169 -0.1085
18369W        W34443  16.582  14.849  11.362  0.2676 -0.0043 -0.2630
18370W        W34444  11.814  11.368   1.356  0.0965 -0.1122 -0.0130
18371W        W34445   9.223   2.162   4.193  0.0377  0.0119  0.0897
18372W        W34446  18.499  10.905  11.170  0.1459 -0.1252 -0.1009
18373W        W34447   4.757   3.357  15.015  0.0113  0.0387  0.0905
18374W        W34448  10.267   6.096  13.389 -0.1220  0.0842 -0.0983
18375W        W34449  13.121   5.376  11.913 -0.2426 -0.0500  0.2505
18376W        W34450  15.787  17.099   1.623  0.0445 -0.0469 -0.2545
18377W        W34451   7.307  16.141  10.995  0.1459 -0.1577  0.0385
18378W        W34452  10.201  13.874  10.984 -0.0696 -0.0268 -0.0497
18379W        W34453   7.583   8.282  10.387 -0.5267  0.4093 -0.0231
18380W        W34454   8.021   3.330  14.348  0.2905  0.1703 -0.0776
18381W        W34455   1.398  16.477  12.028  0.1661 -0.1683 -0.2038
18382W        W34456  18.612   2.396   2.990  0.3532  0.1491 -0.1928
18383W        W34457  12.303   8.518  11.893  0.0836 -0.0035  0.0541
18384W        W34458  13.815  17.586   9.363 -0.4172 -0.3607  0.1267
18385W        W34459  16.050  14.003  14.399  0.0668 -0.0869 -0.4449
18386W        W34460   3.068   0.774  14.116  0.4375  0.1329  0.0226
18387W        W34461   5.068   5.329   0.315 -0.1859 -0.0281 -0.0321
18388W        W34462   1.375   8.071   4.123  0.0875  0.0374  0.0804
18389W        W34463   3.511  17.862   2.300 -0.0594 -0.2335 -0.2221
18390W        W34464   2.344  15.485   4.482 -0.0783 -0.3486  0.1706
18391W        W34465  13.077  14.340   1.507  0.0182  0.1637  0.3816
18392W        W34466  18.029   6.707   1.128 -0.1944 -0.0088  0.0254
18393W        W34467  11.812   3.022   0.384  0.0044 -0.4007 -0.1179
18394W        W34468   0.620  17.120   0.239 -0.0165 -0.1482  0.3589
18395W        W34469   8.116  14.898   2.550  0.0901  0.2210  0.4017
18396W        W34470   7.401   3.518   1.696  0.1953  0.0319 -0.2495
18397W        W34471   2.687  16.541   1.430  0.0324 -0.2990  0.2389
18398W        W34472   4.029   2.716  12.725 -0.1655  0.2072 -0.2853
18399W        W34473   1.629  16.920  12.061 -0.2878  0.0385  0.0878
18400W        W34474   2.616   3.620   2.278  0.1615  0.0700 -0.0546
18401W        W34475   2.026   4.393   3.394 -0.2225  0.4061 -0.2658
18402W        W34476  12.617   2.962   1.147 -0.0254 -0.1670  0.0583
18403W        W34477  11.764   2.104  11.445  0.3069  0.2272 -0.1508
18404W        W34478   7.177  12.984  11.619  0.0221  0.3192  0.1184
18405W        W34479  19.092  15.392   0.465 -0.1651  0.1603  0.3750
18406W        W34480   5.043   0.071   5.340  0.1093  0.1304 -0.1743
18407W        W34481   9.275  10.034  11.474 -0.2881  0.1642  0.2371
18408W        W34482   0.960   2.906  11.989  0.0787  0.0935 -0.0355
18409W        W34483  18.020   5.363  13.679 -0.5300 -0.0602  0.1411
18410W        W34484  13.764   4.641   3.887  0.2489 -0.1159 -0.0322
18411W        W34485  12.333   4.872   4.940  0.2748  0.0527  0.3337
18412W        W34486  13.123  10.518  10.474  0.1324  0.0212  0.2641
18413W        W34487   8.294  18.613  10.949 -0.2579 -0.0903 -0.4694
18414W        W34488   9.660   6.595   5.658 -0.3379  0.1873 -0.0767
18415W        W34489  19.200  13.357   4.235  0.3591 -0.6773  0.1294
18416W        W34490  13.739  15.903   0.368  0.1584  0.3160  0.3402
18417W        W34491  17.964   0.707   2.992 -0.1482  0.1559 -0.1072
18418W        W34492   2.785   3.619   0.775  0.1528  0.1737 -0.1858
18419W        W34493  13.785  12.005   0.240  0.1617  0.0263  0.1520
18420W        W34494   5.574   3.361   2.207 -0.0727  0.2857 -0.3262
18421W        W34495   0.619  10.869  15.045 -0.2584 -0.0432 -0.0632
18422W        W34496  11.907   6.475   2.340  0.1576  0.1088 -0.3628
18423W        W34497  13.411  18.696  13.951 -0.0552 -0.1395  0.2252
18424W        W34498   6.982  17.377   3.271 -0.4652 -0.1518 -0.0893
18425W        W34499  17.528  13.625  12.941 -0.5034  0.1565  0.1031
18426W        W34500  16.188   1.562  14.593 -0.0840 -0.1962 -0.1189
18427W        W34501   6.680   8.280   2.828  0.2050 -0.1871 -0.1083
18428W        W34502  19.246  16.766   1.607  0.0607  0.1292  0.1535
18429W        W34503  14.260  13.378  11.114  0.1791 -0.2211 -0.0164
18430W        W34504   6.678   6.845  13.190 -0.2602 -0.1907 -0.1159
18431W        W34505  12.744   0.050   1.434  0.3775  0.2067  0.1187
18432W        W34506  16.528  18.492  10.687 -0.3333 -0.3123  0.1640
18433W        W34507  18.018   7.973   4.397  0.1081  0.0889 -0.2152
18434W        W34508   6.561  12.893   0.484 -0.2548  0.2162  0.2360
18435W        W34509   9.741   5.867   1.642  0.2008 -0.0372  0.1001
18436W        W34510  17.506  15.642   0.214  0.0094  0.3473 -0.2543
18437W        W34511   3.500  16.796   2.429 -0.2504 -0.2655 -0.0603
18438W        W34512  15.301  12.185   4.329 -0.1053 -0.0290 -0.2013
18439W        W34513   7.324   3.703   5.580  0.0425 -0.2572 -0.0731
18440W        W34514   4.327   6.322   6.071  0.0050  0.1075 -0.0657
18441W        W34515  11.169   9.223   4.836 -0.1428 -0.2978  0.2051
18442W        W34516  13.618   7.196   3.833  0.0313 -0.0869 -0.0117
18443W        W34517   3.438  12.891  10.229  0.2988 -0.2658 -0.1156
18444W        W34518   9.772   1.164  14.478 -0.0441 -0.3042  0.2676
18445W        W34519  16.124   4.975  13.069 -0.1042 -0.3023 -0.0909
18446W        W34520  11.659   4.067   0.850 -0.0338  0.1178 -0.0154
18447W        W34521  10.130   9.003   0.200  0.0797 -0.0175  0.3577
18448W        W34522   1.115   7.115   0.610  0.1606  0.1025 -0.0243
18449W        W34523  16.185   4.190   5.521 -0.0814 -0.1502 -0.1382
18450W        W34524  17.981   3.484   4.527 -0.0709  0.1724 -0.1328
18451W        W34525  16.099   2.880   2.348  0.3466 -0.1461  0.2021
18452W        W34526  14.617   0.233  11.804 -0.0850 -0.1101  0.1951
18453W        W34527   4.201   5.828   0.843 -0.1776 -0.2190  0.2114
18454W        W34528  13.793  14.807  14.943  0.0035  0.1145  0.1993
18455W        W34529   5.873  12.001   1.841  0.0411  0.0562 -0.1981
18456W        W34530  13.342   7.462   1.573  0.0451  0.0859 -0.0985
18457W        W34531  17.583   7.742   4.620  0.0891  0.1125  0.1765
18458W        W34532   0.552  15.968  12.500  0.3019  0.3420  0.3330
18459W        W34533   2.438  19.071   1.030  0.0612  0.1534 -0.1530
18460W        W34534   9.422  18.595   2.351 -0.3018  0.0227  0.2591
18461W        W34535   4.903  16.226  12.748  0.2829  0.5406 -0.3618
18462W        W34536  18.449   2.533   0.741  0.1778 -0.4071  0.1424
18463W        W34537  16.209   9.261   2.666  0.1845  0.0336  0.0564
18464W        W34538   0.141   9.266  14.021 -0.0481 -0.1937 -0.0934
18465W        W34539  12.917  18.234   3.909  0.1771  0.1067 -0.2549
18466W        W34540   6.803  11.639  12.826 -0.0718 -0.5796  0.1768
18467W        W34541   6.140  13.153  13.548  0.0582 -0.2415 -0.1022
18468W        W34542  11.149   3.484   3.448  0.1850 -0.2969 -0.1489
18469W        W34543   3.978  13.677  10.641  0.2450  0.2484  0.2123
18470W        W34544  15.526  13.487   9.947 -0.1769 -0.1032  0.1024
18471W        W34545   0.832   6.250  13.703 -0.3289  0.6644  0.0003
18472W        W34546   1.122  12.386   0.388  0.0862 -0.3045 -0.3752
18473W        W34547  19.162   1.857  12.041  0.0257  0.0373 -0.0580
18474W        W34548  16.499  11.985  14.688 -0.1936 -0.0185 -0.4922
18475W        W34549  10.899  11.181   3.226 -0.0479 -0.0819  0.1956
18476W        W34550   5.533  11.451  10.717  0.3500  0.4873 -0.2627
18477W        W34551   5.466   0.365  11.293 -0.1749  0.0645  0.0396
18478W        W34552   0.976   2.828  10.930 -0.2773 -0.0302 -0.1518
18479W        W34553   1.447  12.980   0.628 -0.1682 -0.3498  0.1241
18480W        W34554  11.839  15.928   0.880 -0.2584  0.1498 -0.0765
18481W        W34555  14.043  15.544  14.288  0.0620 -0.1119 -0.1755
18482W        W34556   9.645   4.704   4.547 -0.0129 -0.1515  0.1938
18483W        W34557   7.519   6.847  14.858 -0.3196 -0.0703  0.2869
18484W        W34558  18.322  10.343  11.624 -0.1293  0.0145  0.3885
18485W        W34559   0.987  10.986   1.186  0.0429  0.1164 -0.0455
18486W        W34560   9.568  17.647   1.886 -0.3517  0.2124  0.0007
18487W        W34561  18.274   5.710  10.935 -0.1141  0.0317 -0.1885
18488W        W34562  10.858  19.164  14.387 -0.0668  0.0589 -0.0036
18489W        W34563  16.073   5.173   4.627 -0.2112  0.0107 -0.1030
18490W        W34564   0.222   8.695   0.321  0.0755  0.1152 -0.1606
18491W        W34565   0.487  13.339  12.101  0.0774  0.3523 -0.2993
18492W        W34566   4.028   2.045   3.231 -0.3598  0.1331 -0.2134
18493W        W34567   2.189   2.136  13.633  0.1110 -0.2516  0.0113
18494W        W34568  12.359  18.125   3.639  0.1657 -0.3071  0.1790
18495W        W34569   1.533  12.669  12.739 -0.1734 -0.3066  0.3388
18496W        W34570   8.644  12.232   4.857 -0.1615 -0.4233  0.2488
18497W        W34571   7.498   4.822  13.789 -0.0186 -0.2355 -0.0810
18498W        W34572  12.475  10.174  13.435 -0.1753 -0.2153 -0.4876
18499W        W34573   1.303  14.570   1.227 -0.2068  0.1975 -0.1213
18500W        W34574   3.638   2.909   0.677 -0.0232 -0.2360  0.3764
18501W        W34575   3.065  15.120  11.165  0.0179 -0.0155  0.2663
18502W        W34576  10.095   6.728   2.950 -0.2544 -0.1334 -0.0949
18503W        W34577  18.235  12.465  12.301  0.1706 -0.0590  0.0590
18504W        W34578  10.476   9.908   4.523  0.2804  0.1852  0.3061
18505W        W34579   3.978   4.773  13.203 -0.0192 -0.0430  0.0796
18506W        W34580  10.531   6.281   4.565 -0.0240 -0.1239 -0.0128
18507W        W34581   8.249   3.616   1.052 -0.2870 -0.2233 -0.3894
18508W        W34582  14.176   9.432  12.729 -0.2554 -0.2092  0.2084
18509W        W34583  18.119   8.061   1.486  0.0740 -0.1800  0.0292
18510W        W34584   6.501   5.254  13.601 -0.1850  0.1339 -0.1584
18511W        W34585  14.538  12.924   4.456 -0.1483  0.0126 -0.0830
18512W        W34586   8.389   3.210   4.232 -0.0729 -0.0054 -0.0512
18513W        W34587   1.187  10.016  13.356  0.2431  0.0665 -0.0320
18514W        W34588   7.750  15.049   2.893 -0.0433 -0.2302  0.1716
18515W        W34589  14.132  16.099  10.020  0.0322  0.0458 -0.4143
18516W        W34590   6.909   1.137  12.712 -0.1496 -0.0450 -0.1134
18517W        W34591  11.495  14.372  10.312 -0.0642  0.0626  0.2050
18518W        W34592   3.578  11.901   4.613 -0.3257  0.2762 -0.2201
18519W        W34593  13.591  15.164  12.950 -0.0814 -0.1337  0.0927
18520W        W34594  11.099  15.390   2.751 -0.3033 -0.1505 -0.0312
18521W        W34595   6.250  18.910   2.237 -0.1077  0.1438  0.2968
18522W        W34596  12.113   8.498   0.021 -0.0955  0.0644  0.2047
18523W        W34597  18.285  15.507   0.003 -0.2027  0.1989 -0.2168
18524W        W34598  11.963  17.484  11.602 -0.1142 -0.1163 -0.1174
18525W        W34599   9.315  16.070   2.450 -0.0806  0.0548 -0.2297
18526W        W34600   3.672   6.492  14.050  0.1025  0.0874 -0.1906
18527W        W34601  11.079  10.120   5.186 -0.1576 -0.2096 -0.3209
18528W        W34602   4.897  13.420  11.686  0.3554  0.2339 -0.1581
18529W        W34603   0.460  15.018   3.401 -0.1785  0.1476 -0.1825
18530W        W34604  13.884  18.137   1.592  0.0689 -0.1845  0.1018
18531W        W34605   8.221  18.032   1.825 -0.1999 -0.2235  0.0012
18532W        W34606  18.375   4.826  10.589  0.1305  0.0904  0.0293
18533W        W34607  16.103   2.796   1.853 -0.0039  0.2150  0.0685
18534W        W34608   0.492  10.429   0.041 -0.1867  0.4014  0.3134
18535W        W34609  12.033   7.118   3.743  0.0158  0.0872 -0.1350
18536W        W34610  14.696   4.453  13.178  0.1754 -0.2791 -0.0003
18537W        W34611   8.596   4.570  12.025 -0.0686  0.1583  0.2472
18538W        W34612  11.280   6.447   1.951 -0.0347  0.1523  0.3575
18539W        W34613   9.392  11.508   3.449 -0.1295 -0.2384  0.0916
18540W        W34614  16.581  16.200  10.080 -0.0826  0.2993 -0.1354
18541W        W34615   0.721  11.296  12.532  0.0903 -0.0227 -0.0602
18542W        W34616  11.898   5.847   4.516  0.5372  0.1560  0.0759
18543W        W34617  18.309  19.110   3.069  0.1054 -0.2794  0.0006
18544W        W34618  18.894   7.965  11.140  0.2622 -0.0430 -0.0780
18545W        W34619  12.443  16.189   0.397  0.2499  0.0776 -0.2284
18546W        W34620  17.790   9.853  14.919 -0.0417  0.3948 -0.1254
18547W        W34621   8.895  17.059  12.043 -0.0680  0.2415  0.0621
18548W        W34622   9.022   9.023  11.768 -0.2619  0.2022  0.2332
18549W        W34623   5.499   7.557  11.784  0.0517  0.0163 -0.3501
18550W        W34624  17.568   8.070  12.114 -0.0611 -0.2424  0.0033
18551W        W34625   1.071  10.620  11.234 -0.2521  0.1644 -0.2363
18552W        W34626  10.516   2.837  15.038 -0.1583  0.2582  0.1289
18553W        W34627   7.223   7.988  13.694 -0.0991  0.0814 -0.1475
18554W        W34628   6.085   2.610   1.916 -0.3358  0.0484 -0.2530
18555W        W34629  14.966  16.165   0.195  0.1427  0.0735  0.1399
18556W        W34630   4.497   8.796   2.398  0.1649  0.0855 -0.0465
18557W        W34631   3.238   5.328  14.282  0.3092 -0.0486  0.2111
18558W        W34632  10.540   8.094   4.882  0.1826  0.1163 -0.2819
18559W        W34633   3.202   7.860   5.552  0.1216 -0.0103 -0.2098
18560W        W34634  14.153  15.631  13.797 -0.1179  0.0975 -0.1418
18561W        W34635  15.283  14.544   0.542 -0.0806  0.0753 -0.4929
18562W        W34636   9.776  13.792  10.642  0.1022  0.1545 -0.4122
18563W        W34637  18.487   0.055   0.663  0.0121  0.1957  0.0966
18564W        W34638  11.641   4.442   0.520 -0.1468 -0.2836 -0.0073
18565W        W34639   9.463   4.209  12.003 -0.1331  0.1467  0.1607
18566W        W34640   7.328   3.753  12.993 -0.0907 -0.0899 -0.1168
18567W        W34641  17.214   4.134  11.653  0.0177 -0.1960  0.2472
18568W        W34642  17.675   3.194  12.627  0.2363 -0.1045 -0.0652
18569W        W34643  16.369  13.399  11.622 -0.2042 -0.2349  0.0829
18570W        W34644   1.438  10.645   2.301  0.1768 -0.0591 -0.2457
18571W        W34645   0.731  18.066  12.673  0.0096  0.1350 -0.0279
18572W        W34646   4.641  11.814  11.564  0.1186 -0.2573 -0.1629
18573W        W34647   2.446  12.632   1.201  0.0215  0.3511  0.0750
18574W        W34648   3.594  14.995  13.169 -0.1054  0.2284 -0.0311
18575W        W34649   5.543   4.207   5.524 -0.2393 -0.1688 -0.6108
18576W        W34650   2.702   1.100  14.835 -0.3306  0.1593  0.1774
18577W        W34651  18.787   5.232   0.835 -0.3326 -0.0831  0.2535
18578W        W34652  12.912  17.961   5.003  0.0437 -0.0851  0.2478
18579W        W34653  13.679  12.374  14.956  0.3262 -0.2934 -0.2079
18580W        W34654  18.555  13.166   0.257  0.0970 -0.0180 -0.2119
18581W        W34655   6.843  17.282  12.650  0.2737  0.0908 -0.1918
18582W        W34656   9.520  15.845   1.932  0.1187  0.4307  0.1482
18583W        W34657  10.500  13.477  13.228 -0.3379 -0.1739 -0.1539
18584W        W34658  14.943   6.155   4.267 -0.2319  0.0436  0.0595
18585W        W34659   7.034   2.486  11.165 -0.2358  0.1033 -0.3068
18586W        W34660   2.312  18.857   0.099 -0.0951  0.0235  0.0771
18587W        W34661  17.538   8.871  10.975  0.0630 -0.0236  0.0365
18588W        W34662  11.955  15.889   2.500  0.0678  0.2720 -0.1002
18589W        W34663  11.352   7.140   2.780  0.0198  0.0583  0.1745
18590W        W34664  10.897   8.359   1.664 -0.0569  0.3686  0.1138
18591W        W34665   4.966  12.709   1.100  0.0202  0.1107  0.3168
18592W        W34666  11.345  14.297  13.473  0.2016 -0.1056  0.1516
18593W        W34667  18.479   6.100   3.994 -0.2587 -0.1852 -0.0099
18594W        W34668  18.500   6.932   1.689 -0.4782  0.0701 -0.0201
18595W        W34669   6.364  15.698  14.811 -0.0649  0.0410  0.2481
18596W        W34670   4.721  12.339   0.854 -0.0883 -0.0181 -0.3416
18597W        W34671  13.900  18.291  11.708  0.3659  0.0313  0.2620
18598W        W34672  15.144   4.115  11.366 -0.0821  0.2265  0.0745
18599W        W34673   1.574   1.350  12.212 -0.1657  0.0530 -0.3491
18600W        W34674  11.988   1.798  13.237 -0.0681  0.4447 -0.0035
18601W        W34675   5.912   2.766   2.987 -0.2278  0.1695 -0.0389
18602W        W34676  16.329  13.518  15.008  0.0922  0.1277 -0.1196
18603W        W34677   7.250   5.497  12.840 -0.2743  0.3327 -0.0904
18604W        W34678   8.479   6.414  13.151 -0.0105 -0.0987 -0.1088
18605W        W34679   4.921   2.002  11.065  0.4718  0.2157  0.0906
18606W        W34680  19.057   3.363   3.320  0.2584  0.0776 -0.1183
18607W        W34681  15.931   8.500  12.546  0.1364 -0.4855 -0.0011
18608W        W34682  10.160  13.802  13.442 -0.1501  0.1015 -0.1495
18609W        W34683   6.528  18.185   5.467 -0.0414  0.1457 -0.1302
18610W        W34684   1.678  10.667   1.013 -0.4687 -0.2252 -0.0653
18611W        W34685  11.435   5.267   5.404 -0.0268 -0.0041 -0.0273
18612W        W34686   4.692  14.288  11.842  0.0793 -0.1725 -0.1510
18613W        W34687  11.245  11.579   3.577  0.0803  0.0207 -0.3077
18614W        W34688   4.136   7.451   2.584  0.0526 -0.1656 -0.0909
18615W        W34689   8.806  14.277  11.126  0.0812  0.0172  0.1177
18616W        W34690   2.711   9.141  13.398  0.2093  0.0570 -0.0563
18617W        W34691   9.374  17.026  14.836 -0.5283  0.0702 -0.0254
18618W        W34692   8.376   8.151  14.068 -0.2739 -0.0651 -0.0550
18619W        W34693  12.078  16.921   4.111 -0.1791  0.4309 -0.2915
18620W        W34694   0.951  10.892  12.716 -0.2861 -0.1634  0.1552
18621W        W34695  17.130   6.775   4.501 -0.0389 -0.0515 -0.2046
18622W        W34696  17.044  18.414   2.528 -0.1176  0.0852  0.0856
18623W        W34697   9.529  16.039  13.061  0.0973 -0.2602  0.0855
18624W        W34698   9.227   6.744  13.698  0.3987  0.2447 -0.0190
18625W        W34699  14.890   1.226  11.104 -0.0426 -0.0357  0.0453
18626W        W34700   2.199   7.546   1.716 -0.4031  0.4125 -0.1113
18627W        W34701  10.079  11.374  14.962  0.2492  0.2139  0.0308
18628W        W34702  12.624  14.544   3.352 -0.1215 -0.0747 -0.1182
18629W        W34703   9.831  10.610   4.353 -0.1639  0.3260  0.1654
18630W        W34704   2.166   1.353   3.311 -0.4034 -0.1813  0.0393
18631W        W34705   7.581   6.041   1.644 -0.3100 -0.0651 -0.1395
18632W        W34706   5.269  15.369  11.029 -0.2798  0.0215  0.0074
18633W        W34707  12.512   8.429   0.447  0.0897  0.1653 -0.2216
18634W        W34708  11.459   7.059   4.444  0.1130 -0.2154 -0.2694
18635W        W34709  12.598   5.587  11.263 -0.1371 -0.3950 -0.2113
18636W        W34710   2.418  16.205   1.762 -0.5306 -0.0725  0.0878
18637W        W34711   8.684   2.471   4.854 -0.1893 -0.1396 -0.0609
18638W        W34712   7.960  17.045  12.411  0.0720 -0.1281 -0.0042
18639W        W34713  15.845  15.086   2.682  0.0012  0.1141  0.0005
18640W        W34714  11.331   9.234  12.635 -0.5154  0.0616 -0.1439
18641W        W34715   3.768   0.779  12.549  0.2771  0.0979  0.0568
18642W        W34716  14.109  18.603  10.399  0.3072 -0.0933 -0.1176
18643W        W34717   0.527  14.955   0.030 -0.1132  0.0541 -0.0720
18644W        W34718   7.756  10.735   4.456 -0.3222  0.0040 -0.1838
18645W        W34719   6.006  14.838  14.045 -0.2460 -0.0384 -0.0693
18646W        W34720  11.032   4.696  12.620  0.1943 -0.3369  0.0734
18647W        W34721   8.918  17.834  10.107 -0.2934 -0.2010 -0.0684
18648W        W34722  13.634  12.703  11.481 -0.2037 -0.0165 -0.0074
18649W        W34723   0.760   0.727   4.262  0.2658 -0.0974 -0.1129
18650W        W34724  12.769  17.368   5.574 -0.2008  0.0911 -0.2676
18651W        W34725   4.328  15.305  15.057  0.1182  0.3608  0.1660
18652W        W34726   2.800   4.761  12.038 -0.1672 -0.2294  0.2715
18653W        W34727  13.105  10.380  14.666 -0.3342  0.0139  0.0785
18654W        W34728   9.550   9.405   1.640 -0.0467 -0.0005 -0.1660
18655W        W34729   6.788  12.890   2.679  0.2209 -0.0627 -0.0477
18656W        W34730   3.594   1.793   2.000  0.2980  0.1246  0.2886
18657W        W34731   4.894   1.537   0.641  0.0868 -0.1319 -0.2437
18658W        W34732  15.747  10.008   5.147 -0.1380 -0.1641 -0.0636
18659W        W34733   9.285  12.936  14.623  0.1890 -0.3202 -0.1236
18660W        W34734   9.221   3.801   3.057  0.3203  0.1152  0.2929
18661W        W34735  16.348  15.722   1.355 -0.4321  0.0163  0.1695
18662W        W34736   9.806  12.325   0.873 -0.2569  0.0004 -0.1766
18663W        W34737  12.650  14.727   1.646 -0.2088 -0.1294 -0.2069
18664W        W34738   2.673  17.630  11.797  0.0135 -0.0129  0.0341
18665W        W34739  10.449   8.920  12.297  0.0475  0.1217 -0.0819
18666W        W34740   8.097  12.570  11.170 -0.1939  0.0333  0.2356
18667W        W34741  12.574  15.172   3.498  0.1158  0.0773 -0.1379
18668W        W34742  12.831   7.479   1.491 -0.0659 -0.1605 -0.2026
18669W        W34743  11.870  14.064   1.121  0.0412  0.0548 -0.2007
18670W        W34744  10.372  10.743   1.421  0.0384  0.2109 -0.2481
18671W        W34745   2.601   0.626  15.028 -0.0932  0.2321  0.3200
18672W        W34746   8.932  11.052   3.170  0.3186 -0.0703  0.0659
18673W        W34747   7.633  12.630  13.118  0.1198 -0.3345  0.0224
18674W        W34748   3.021  19.082  10.624 -0.0117  0.3615  0.2022
18675W        W34749  18.676  12.094   8.920  0.0941  0.3273  0.0066
18676W        W34750   2.966  17.493  14.229 -0.1558  0.4094  0.0584
18677W        W34751  14.675   3.817  14.762 -0.1285  0.1762  0.2923
18678W        W34752  11.456   8.750  12.934 -0.0380 -0.0118 -0.1489
18679W        W34753  10.683  10.217   0.501  0.2229 -0.2467  0.0226
18680W        W34754  18.893  10.162  14.934 -0.0180 -0.1464  0.1284
18681W        W34755  18.837   6.002   3.122 -0.1629 -0.0252  0.1127
18682W        W34756   9.268   6.557   3.292 -0.0142  0.0643 -0.3264
18683W        W34757  13.508   7.591   3.560  0.2423  0.1514 -0.1697
18684W        W34758  10.678   2.982   2.883 -0.0874 -0.1844  0.3017
18685W        W34759  18.693  13.227   2.166  0.1848  0.1147  0.2955
18686W        W34760   2.500  17.384  14.079 -0.1573  0.3685  0.1578
18687W        W34761   9.671  17.096   4.558 -0.2351  0.1145 -0.1989
18688W        W34762  16.519   5.573  12.547 -0.0526 -0.0014  0.1757
18689W        W34763  16.743   4.197  14.895 -0.1043  0.3853  0.1974
18690W        W34764   0.154   2.067   4.231  0.6054  0.1170 -0.0011
18691W        W34765  15.601  17.329  12.949  0.0130 -0.1839  0.2530
18692W        W34766  11.641  10.115  13.060  0.0853 -0.2184 -0.2240
18693W        W34767   5.961   9.583   0.607 -0.0952 -0.1611 -0.1189
18694W        W34768  13.360   2.106  14.827  0.0453  0.2492  0.2289
18695W        W34769  16.223  15.206  14.101  0.0343  0.4353  0.2988
18696W        W34770  14.800  12.521  13.124 -0.4010 -0.1340 -0.0049
18697W        W34771  16.755  10.393   0.135  0.0212  0.1333 -0.5029
18698W        W34772  14.460   6.693   1.427 -0.1535 -0.0164  0.0280
18699W        W34773   3.864   2.452  10.860  0.1534  0.3991  0.0938
18700W        W34774  18.827   8.865  14.455  0.0508  0.1111  0.2077
18701W        W34775  18.684   0.868  10.938 -0.1161 -0.0795 -0.1056
18702W        W34776  12.926  12.786   2.033  0.2559  0.4287  0.0736
18703W        W34777   1.115  13.248   3.838 -0.1242  0.0397  0.0894
18704W        W34778   4.847  16.504   4.118  0.1144  0.2249 -0.3912
18705W        W34779  14.601   4.011   0.147  0.1206 -0.2301  0.1060
18706W        W34780  16.341   3.509   3.594 -0.1604 -0.0612 -0.2727
18707W        W34781   6.794   8.111   4.890 -0.0318  0.2902  0.1850
18708W        W34782   9.907   0.234   3.982  0.1359 -0.1163  0.0438
18709W        W34783  17.222   3.050   4.630  0.2038  0.2481 -0.1881
18710W        W34784   6.426   4.340   3.300 -0.4821 -0.1600  0.3636
18711W        W34785  13.944  15.223  14.630 -0.0010 -0.1428 -0.0111
18712W        W34786   0.074  11.405   5.239 -0.1439 -0.2667  0.0961
18713W        W34787   9.218   4.504   0.103  0.0202  0.2573  0.1359
18714W        W34788   2.237   0.374   3.154  0.3438 -0.4596 -0.0178
18715W        W34789   9.644  12.587  12.089  0.1547 -0.0301  0.0792
18716W        W34790   6.719   2.511   0.385 -0.0881  0.0919 -0.0558
18717W        W34791  18.386   6.299   4.968  0.4568 -0.4509  0.0942
18718W        W34792   1.619  16.858   2.327 -0.0922  0.1035  0.3875
18719W        W34793  13.402  15.463   0.400 -0.5697  0.1806 -0.3208
18720W        W34794   0.446  11.018  14.557  0.0198  0.4206 -0.0362
18721W        W34795   6.788   5.097  11.699 -0.0019 -0.0190  0.0270
18722W        W34796  10.308  14.452   0.435 -0.2966 -0.1699 -0.5089
18723W        W34797   6.364  19.235  11.767 -0.2674 -0.0649 -0.0723
18724W        W34798   7.806   2.701  10.788 -0.3200  0.1494 -0.0135
18725W        W34799  16.712  16.023  13.447  0.0062  0.2015  0.0715
18726W        W34800   6.956  13.134   4.031 -0.1424 -0.0442  0.2122
18727W        W34801  17.525   0.188   3.504  0.2129 -0.0204 -0.2942
18728W        W34802   7.647  15.885   0.972 -0.1019 -0.1278  0.0673
18729W        W34803   9.298   0.728   0.110  0.0764  0.0022 -0.1794
18730W        W34804   8.760  12.660   1.844 -0.0509 -0.3153 -0.1831
18731W        W34805  13.636   5.106  10.313  0.1395 -0.1532 -0.3266
18732W        W34806  15.340  11.112  13.204  0.1171  0.0725 -0.0418
18733W        W34807   9.974  17.693   3.401 -0.2588 -0.0578  0.1191
18734W        W34808   3.752  15.094   2.115  0.2125  0.0959 -0.2552
18735W        W34809  17.978  17.310   3.516 -0.0312 -0.4301  0.2557
18736W        W34810  16.770   7.430  13.410  0.3154  0.2067  0.5081
18737W        W34811  13.274  13.674   3.255  0.2555 -0.1681 -0.0903
18738W        W34812   1.979   8.035   0.049  0.2572  0.0699  0.0541
18739W        W34813   1.228   9.034   5.354  0.2339  0.0828  0.1160
18740W        W34814  18.316   0.719   9.752  0.2234 -0.0630 -0.0376
18741W        W34815  14.001   3.513   1.781  0.1672  0.3467 -0.2123
18742W        W34816   2.977   8.342  12.273  0.2164 -0.2322  0.4615
18743W        W34817   4.620   6.886   3.145  0.1182 -0.1761  0.1823
18744W        W34818  18.110  14.073  14.359 -0.1499  0.0258  0.1053
18745W        W34819  17.269   0.845   4.213  0.0051  0.1558  0.0531
18746W        W34820   4.247   1.376  12.726  0.1612 -0.1235  0.1849
18747W        W34821   5.128  16.719   5.722  0.0979  0.0183 -0.2436
18748W        W34822   1.200  13.757   1.579  0.3135 -0.0075  0.1041
18749W        W34823   3.050   6.650   0.793  0.2106 -0.1289  0.2294
18750W        W34824  11.959  10.086  11.685  0.0260  0.0780 -0.0082
18751W        W34825  10.041  14.663   0.964 -0.1326  0.1355  0.0427
18752W        W34826   5.850  18.309   1.651  0.1083 -0.0538 -0.1549
18753W        W34827  11.173   5.551   1.831 -0.0164  0.1097  0.1227
18754W        W34828  14.352  10.113  14.038  0.3113 -0.0898  0.2460
18755W        W34829  13.290   0.071  10.041  0.1913 -0.0296  0.2787
18756W        W34830  16.545   9.926  13.928 -0.0722  0.1401 -0.0414
18757W        W34831  19.110  14.439   2.731  0.2222 -0.3170  0.1900
18758W        W34832  16.266   2.064  13.810  0.0685 -0.2133 -0.2498
18759W        W34833  13.902   8.534  11.320 -0.0716 -0.1905 -0.0216
18760W        W34834   0.348  17.533   3.344  0.0900  0.1577 -0.0246
18761W        W34835   9.446   3.838   3.977  0.2833  0.1845  0.3022
18762W        W34836  13.091  13.184   2.251  0.1921 -0.1629 -0.1392
18763W        W34837  17.315   1.997  13.126  0.0640 -0.2386 -0.1010
18764W        W34838  16.227  15.736   0.351 -0.1667  0.0432 -0.1327
18765W        W34839  18.509  12.031   3.385 -0.2855 -0.3571 -0.1682
18766W        W34840   6.465  13.937   4.588 -0.0334  0.1007 -0.2759
18767W        W34841   1.253   1.242   1.140 -0.0712  0.0573 -0.0961
18768W        W34842   2.681  12.525   4.627 -0.2361 -0.0255  0.0895
18769W        W34843   9.361   1.480   3.462  0.2650  0.0136 -0.2792
18770W        W34844   9.746   2.498  11.432 -0.0742 -0.0653  0.0052
18771W        W34845  14.814  15.640  12.103  0.6334  0.0806 -0.0349
18772W        W34846   2.108   3.834   6.005 -0.0215  0.4114  0.1544
18773W        W34847   1.406   8.974  14.277  0.0414  0.2046 -0.3306
18774W        W34848   1.716   1.612   0.682 -0.3360 -0.0058  0.1687
18775W        W34849  12.826   3.942   0.257  0.0244 -0.1597  0.1756
18776W        W34850   8.250   3.554   1.528  0.1351  0.0542 -0.2184
18777W        W34851   7.377   9.892  11.825 -0.0471 -0.0019 -0.0300
18778W        W34852   6.542  17.105   0.731 -0.2250  0.1571 -0.0301
18779W        W34853  12.549  16.485  11.931 -0.1519  0.1225 -0.3529
18780W        W34854   9.098  18.797   3.843 -0.0002  0.2174  0.1414
18781W        W34855   9.113  16.484  14.887 -0.0840  0.3182 -0.5471
18782W        W34856  16.411   4.418   2.936  0.0272 -0.1573  0.2047
18783W        W34857   1.633  14.453  14.349  0.1670  0.1044  0.1764
18784W        W34858   7.302  15.927  12.608 -0.0945  0.1802  0.1966
18785W        W34859   7.906   3.248   1.729  0.0466 -0.1792  0.1626
18786W        W34860  18.348  10.687   4.942  0.2188  0.0299 -0.2162
18787W        W34861   1.896   5.650  12.430  0.1437  0.1820 -0.1742
18788W        W34862   7.088   4.724  12.072  0.0871 -0.0373 -0.0037
18789W        W34863   0.157   0.480  12.041  0.3191 -0.0151  0.4688
18790W        W34864  11.857   7.182   1.994  0.1374 -0.2264  0.2002
18791W        W34865   4.908   5.169  11.983 -0.1915  0.2891  0.1175
18792W        W34866   9.010   6.300  14.432 -0.2090 -0.0501 -0.0267
18793W        W34867   3.359  12.344   2.332  0.0119 -0.0268  0.1459
18794W        W34868   5.345   6.878   2.028  0.2987  0.3914 -0.4617
18795W        W34869   7.000   7.071   1.021  0.1382 -0.0205  0.1895
18796W        W34870  18.993   1.179   0.956  0.2901  0.2799 -0.1554
18797W        W34871  14.703   4.863  10.335  0.0917 -0.3042  0.0732
18798W        W34872   7.859   7.024   4.003  0.2705 -0.2696 -0.0240
18799W        W34873   3.527   0.405   1.063 -0.0552  0.0957  0.0332
18800W        W34874   0.525   4.389   2.915 -0.0130  0.0920  0.1900
18801W        W34875   8.028   4.058   1.584 -0.0080  0.0440  0.0072
18802W        W34876  11.239  13.094   3.679  0.0763 -0.0119 -0.0288
18803W        W34877   5.106   7.132   0.292 -0.0382 -0.0245  0.0377
18804W        W34878  17.523   6.580   4.764  0.1438 -0.1085 -0.5887
18805W        W34879   2.665   7.751  14.803  0.3094 -0.0430  0.0182
18806W        W34880   7.263  17.864  12.227  0.0756 -0.2431  0.2344
18807W        W34881   0.167  11.505  11.613 -0.0229  0.0863  0.3569
18808W        W34882   5.959   7.419  12.001  0.1588 -0.1307 -0.2735
18809W        W34883   8.772  12.908  14.228  0.0736  0.1803 -0.1907
18810W        W34884  17.202   7.182   1.349  0.4718  0.0021  0.0757
18811W        W34885   1.832  18.403  10.816 -0.2086 -0.2279 -0.1640
18812W        W34886  15.924   0.677   4.341  0.2106 -0.0914 -0.0101
18813W        W34887  15.958   4.522  14.347  0.0581  0.2799  0.2428
18814W        W34888  15.746  13.358   4.258  0.1062  0.0279  0.0609
18815W        W34889  18.247  14.793   4.480 -0.0403 -0.3804  0.3779
18816W        W34890   1.700   3.189  10.779  0.1382 -0.0694 -0.2102
18817W        W34891   4.978  16.419   4.700 -0.0262  0.0248  0.0495
18818W        W34892  14.414  15.311   1.293 -0.1795  0.0540 -0.2217
18819W        W34893   2.717  15.038   5.498  0.3181 -0.1405  0.1680
18820W        W34894  17.174  14.398   3.031  0.0100 -0.0431  0.0974
18821W        W34895  19.244  10.795   4.469  0.2071 -0.0935 -0.0448
18822W        W34896   2.336   7.349   2.189 -0.2087  0.1058  0.0026
18823W        W34897  10.284  10.032  14.329  0.0328  0.0511  0.0876
18824W        W34898   5.772   4.865  15.040  0.0922 -0.1767  0.3229
18825W        W34899   3.552   5.534   4.314  0.2392 -0.0594 -0.2929
18826W        W34900  14.452   3.394   2.928 -0.2920  0.3614  0.1035
18827W        W34901  12.211  16.673   0.460 -0.2207  0.0508  0.1112
18828W        W34902  11.189   3.127   2.974  0.1980 -0.0388  0.3208
18829W        W34903  11.680   3.137  10.571 -0.1121 -0.3109 -0.0631
18830W        W34904  19.035   6.331   2.283  0.0743 -0.1533  0.3981
18831W        W34905  17.023   0.777  10.729 -0.5746  0.0267 -0.1013
18832W        W34906   9.485   3.395  11.516  0.2194  0.1441 -0.3288
18833W        W34907  16.031   8.787   0.415  0.1647 -0.3690  0.1283
18834W        W34908   9.618  16.890   5.138  0.1434 -0.1648 -0.3441
18835W        W34909   7.985   2.370   2.718 -0.3485  0.1077  0.1771
18836W        W34910   8.219  12.168   0.133  0.0615 -0.0829 -0.1164
18837W        W34911  11.799   4.242  13.812  0.0243 -0.0471  0.0004
18838W        W34912  11.470  11.073   1.975  0.0211  0.0891 -0.1701
18839W        W34913   6.681   9.493  13.339 -0.0874 -0.1920  0.1626
18840W        W34914   2.656   2.826  12.049  0.3411 -0.1252  0.3447
18841W        W34915  10.318  12.334  12.353 -0.1586 -0.1144 -0.0349
18842W        W34916   2.776   2.203  12.957 -0.1822 -0.0062 -0.0254
18843W        W34917   6.150   1.224   3.342  0.0760  0.0090 -0.1915
18844W        W34918  12.854   4.213   5.299  0.1618 -0.4587 -0.1473
18845W        W34919   1.514  17.323   4.552 -0.0364  0.1492  0.1149
18846W        W34920   2.976  18.559   3.876 -0.1672  0.2084 -0.0786
18847W        W34921  13.744  10.051  13.163 -0.0089 -0.1568  0.1075
18848W        W34922  13.203  11.896  11.238 -0.2377  0.0111 -0.2986
18849W        W34923   3.979   6.706  11.554  0.0327 -0.2365 -0.0114
18850W        W34924   0.722   1.677   4.554 -0.3257  0.1237 -0.3737
18851W        W34925  14.833  13.970   1.056 -0.1494 -0.1297  0.0358
18852W        W34926  15.146  18.828  12.912  0.2111 -0.2059 -0.3149
18853W        W34927   4.568  10.479  11.026  0.0086 -0.0324  0.0161
18854W        W34928   0.862   0.487   1.151 -0.2486  0.0664  0.0836
18855W        W34929   5.104   3.882  12.649 -0.0418  0.2017 -0.1642
18856W        W34930  16.420  18.454   0.852 -0.0391  0.0958 -0.0871
18857W        W34931  13.478  12.313   1.824  0.2304  0.0674 -0.0982
18858W        W34932   4.568   5.834  10.298 -0.1192  0.0434 -0.3020
18859W        W34933   9.780   5.187   0.278 -0.1203  0.0235 -0.1352
18860W        W34934   6.043  14.432   4.307  0.0618  0.1776 -0.1092
18861W        W34935  12.953  17.952  14.384  0.0803 -0.2181  0.2826
18862W        W34936   1.772   3.785   3.955 -0.0497  0.0214  0.1908
18863W        W34937  16.119  13.980   3.963  0.1643 -0.0800 -0.1160
18864W        W34938   3.652  10.947  14.276  0.1234  0.1836  0.0275
18865W        W34939  14.201  14.128   9.766  0.2755  0.0656 -0.1815
18866W        W34940  10.449  10.702   0.936  0.0201 -0.1920 -0.2872
18867W        W34941   1.300   8.827   2.887  0.2175  0.1002 -0.1446
18868W        W34942   5.610  19.054  13.170  0.4149 -0.1069 -0.3103
18869W        W34943  16.870  14.820   2.516  0.1525  0.0066  0.1973
18870W        W34944   3.302   6.575  13.693  0.1298  0.1736  0.1790
18871W        W34945  15.384  16.559  12.453  0.1022 -0.0646 -0.2120
18872W        W34946   7.710   4.011  11.487  0.0196 -0.0660 -0.2800
18873W        W34947   2.376  10.851   3.173 -0.1278 -0.0255 -0.0307
18874W        W34948   3.544  10.411  12.067 -0.0305  0.4052  0.0703
18875W        W34949   9.600  16.124   1.433 -0.1803 -0.0188  0.2170
18876W        W34950   2.610   2.563   4.444  0.0616 -0.3580  0.0176
18877W        W34951   3.756   7.863   1.677  0.0004 -0.0795 -0.0641
18878W        W34952  17.297  13.701  14.897 -0.0050  0.3221 -0.1394
18879W        W34953  14.644   8.570   0.080 -0.3737 -0.0561 -0.0766
18880W        W34954   0.067   5.778   0.199  0.1261 -0.1664  0.3844
18881W        W34955   8.508   9.050  14.491  0.0508 -0.1476  0.5091
18882W        W34956   8.679   6.119  11.369  0.2394 -0.2999 -0.0154
18883W        W34957   4.007   3.841   4.325 -0.0280  0.0940 -0.0814
18884W        W34958  18.765   3.738  10.914 -0.0163  0.2126 -0.2423
18885W        W34959  17.609   6.036   1.969 -0.3096  0.1769 -0.3859
18886W        W34960   7.693  10.646  14.799 -0.0838 -0.0566 -0.4569
18887W        W34961   7.927  16.174   4.216  0.1211 -0.0202 -0.0216
18888W        W34962   2.589   8.312   2.249 -0.3664 -0.0477 -0.3229
18889W        W34963   9.048  18.682   2.860  0.0467 -0.1755  0.0152
18890W        W34964   8.040   2.455  12.790 -0.3607 -0.1207  0.2987
18891W        W34965  11.567   6.660  11.182  0.0933  0.1644 -0.3589
18892W        W34966  13.092   9.496  13.604  0.0535  0.2771 -0.1098
18893W        W34967   7.183   6.492   5.265 -0.1140 -0.1034 -0.0236
18894W        W34968  17.977  13.945   5.111  0.0982 -0.1905 -0.1732
18895W        W34969   9.694  18.580  12.151  0.0110 -0.0406 -0.2602
18896W        W34970   4.832  18.055  13.542  0.0838 -0.2373 -0.0575
18897W        W34971   4.510  17.705   2.361  0.3011 -0.1013  0.1796
18898W        W34972   2.185   5.496   3.184  0.3125  0.2008 -0.1944
18899W        W34973   0.631  17.997   3.787  0.0219 -0.2092 -0.2167
18900W        W34974  15.275  15.164  14.694  0.1412  0.2574  0.3035
18901W        W34975  13.686   7.053  14.843  0.2566  0.0873 -0.3157
18902W        W34976   5.678  13.741   3.435 -0.0261  0.0088  0.0594
18903W        W34977   6.298   9.688  11.669  0.0205 -0.2628  0.0618
18904W        W34978  13.221   6.379  12.081  0.1217 -0.0778  0.0020
18905W        W34979  13.222  13.035   1.117 -0.0751 -0.4128 -0.1650
18906W        W34980  10.275  13.649   2.982  0.0966 -0.1087  0.1726
18907W        W34981   8.046   3.819   5.625 -0.1225 -0.1062 -0.1050
18908W        W34982  14.389   5.364   1.262  0.1642 -0.0148 -0.0056
18909W        W34983   9.361   1.657  14.251 -0.1771  0.2529  0.2824
18910W        W34984  15.086   6.939  11.995 -0.4515  0.2678 -0.2844
18911W        W34985  14.664   4.091  11.283  0.1792  0.4302 -0.1296
18912W        W34986   0.628  17.415  13.874  0.0883 -0.1539 -0.0625
18913W        W34987  11.462  14.745   2.453  0.2053  0.1094  0.0099
18914W        W34988  14.538   4.304   1.979 -0.2335 -0.0335  0.3069
18915W        W34989  17.239   5.782   4.155  0.2765 -0.0769  0.2204
18916W        W34990  11.799   8.613  14.373 -0.3384  0.1552 -0.0809
18917W        W34991  15.444   4.305   5.388 -0.0263 -0.0841  0.2019
18918W        W34992   0.646   6.321  13.204  0.0554 -0.0019 -0.1777
18919W        W34993  18.818   0.661   3.805 -0.2398 -0.2870  0.3036
18920W        W34994   4.438  19.049  12.319 -0.2229  0.3223 -0.4514
18921W        W34995   1.308  13.459  13.766  0.1037  0.3823 -0.0676
18922W        W34996  16.246  16.348   2.284 -0.3218 -0.1446  0.1379
18923W        W34997   4.293  12.873  10.668 -0.1723 -0.0865 -0.1384
18924W        W34998  18.861  15.264   3.009  0.2102 -0.0988 -0.1293
18925W        W34999   7.781  16.757  12.884  0.1036  0.3638  0.0423
18926W        W35000   6.245   6.193   5.538  0.0876 -0.3173 -0.4481
18927W        W35001  19.143  12.370  13.246 -0.3416 -0.2928  0.0931
18928W        W35002   3.822   2.102  11.498  0.1481 -0.2366  0.0911
18929W        W35003   7.743  10.327  11.874 -0.1270  0.1347 -0.1531
18930W        W35004   7.907   2.492   5.891  0.0057  0.1017 -0.1971
18931W        W35005   3.677  17.970  14.133 -0.1344 -0.1587 -0.1647
18932W        W35006   7.255   1.507  14.830  0.1599 -0.1540 -0.0378
18933W        W35007   0.681  12.734  11.500 -0.0777  0.3142 -0.0228
18934W        W35008  13.583  19.034   9.854 -0.4067  0.1129  0.0300
18935W        W35009   2.333  13.579   3.228  0.2357  0.0806  0.0100
18936W        W35010  13.990   3.644   9.936  0.0693  0.2221 -0.0255
18937W        W35011   1.661  15.292  14.310 -0.3213 -0.3553  0.3382
18938W        W35012   9.472   5.042   1.305 -0.0811  0.0117  0.0675
18939W        W35013  18.498  16.044   2.792 -0.1601 -0.2942 -0.1365
18940W        W35014   9.154   4.680   1.114  0.1162  0.1812  0.0423
18941W        W35015  13.614   2.051   0.322  0.0197 -0.0337 -0.3638
18942W        W35016   2.622  12.782   9.811  0.1003 -0.0344 -0.4403
18943W        W35017   1.705  10.598   2.777  0.0493 -0.3491  0.3537
18944W        W35018  12.683  15.695   1.970 -0.0934 -0.3182  0.1438
18945W        W35019  13.531  16.188   4.341 -0.1696  0.1646 -0.0452
18946W        W35020  14.134  15.175   2.613  0.0086 -0.1336  0.0964
18947W        W35021   4.436   0.043   5.635 -0.2617 -0.0495 -0.0831
18948W        W35022  18.433  15.106  11.168  0.0781 -0.1414 -0.1044
18949W        W35023  15.613   6.911   5.742 -0.1933 -0.1022  0.2648
18950W        W35024   4.475   2.942  14.784  0.0387  0.1458 -0.0105
18951W        W35025   5.943   1.053  12.873 -0.2357 -0.2468  0.2358
18952W        W35026  15.561   2.853  14.326 -0.0722  0.1178  0.1851
18953W        W35027  12.214   0.642  10.449 -0.1946  0.1860  0.1832
18954W        W35028  12.611   0.951   9.874 -0.0797  0.3497 -0.0440
18955W        W35029   7.178  11.457  13.721  0.5328  0.0754 -0.1546
18956W        W35030   1.557  14.948  11.494 -0.3801  0.2805  0.2169
18957W        W35031   7.243   6.075  13.465  0.0367  0.1246 -0.2030
18958W        W35032   4.416   3.696   4.536  0.2861  0.3499 -0.0924
18959W        W35033   3.386  14.101  13.919  0.2441 -0.1020  0.0225
18960W        W35034   5.806  11.822  12.794 -0.0197  0.2465  0.1899
18961W        W35035   0.277   9.216  12.701 -0.1833 -0.1197  0.2406
18962W        W35036   6.880  14.586  13.104 -0.1436  0.1835 -0.4191
18963W        W35037   7.216   7.267   6.560 -0.0748 -0.0926  0.2306
18964W        W35038   0.140  11.517  10.613 -0.4935 -0.0444 -0.2557
18965W        W35039  12.100  14.461   1.223  0.1237 -0.0034 -0.0425
18966W        W35040   1.287  19.251   1.815 -0.0444 -0.2109 -0.0540
18967W        W35041  12.289  18.841   4.231  0.1050  0.1700 -0.1159
18968W        W35042   1.557  13.964   3.246 -0.2756  0.2939 -0.0778
18969W        W35043  11.762   7.963   4.381  0.0174  0.1213  0.0760
18970W        W35044   0.574   1.011   1.860  0.0597  0.2503 -0.0678
18971W        W35045   6.919  10.642   2.169  0.2470 -0.0449 -0.1539
18972W        W35046  17.669  14.813  10.538  0.1694  0.3620 -0.0926
18973W        W35047  11.118  11.055   0.854  0.2796  0.1089  0.0494
18974W        W35048  14.533   6.873   4.975  0.3353  0.3375  0.1445
18975W        W35049   4.303  16.957  11.581 -0.1277  0.0269  0.2678
18976W        W35050   1.315   6.508  11.229 -0.0584  0.1993 -0.0237
18977W        W35051  16.071   9.529   3.206  0.1093  0.0082  0.0249
18978W        W35052   7.864   0.530   0.012  0.2183  0.1313 -0.1021
18979W        W35053  18.486  12.368   4.824  0.1403  0.0897 -0.0716
18980W        W35054   8.360  16.319   2.173 -0.0499 -0.0643  0.1336
18981W        W35055  17.919   6.305  11.335  0.3102  0.0218 -0.2293
18982W        W35056   1.316  15.977  12.896 -0.1718  0.1624 -0.1284
18983W        W35057   3.568  11.285   1.532  0.1374  0.1864  0.1098
18984W        W35058  12.892   4.146   4.198 -0.0519 -0.1057  0.0957
18985W        W35059   5.136  11.020  14.351 -0.1258 -0.3982  0.2174
18986W        W35060   5.201  12.830  12.521 -0.2323  0.0290  0.1295
18987W        W35061  19.252   4.560   3.705  0.0248 -0.0115  0.4157
18988W        W35062   4.113  11.610   2.116  0.0771  0.0444 -0.2964
18989W        W35063   8.653  15.949   4.405 -0.1319  0.3604 -0.1767
18990W        W35064  19.129   5.571  12.524 -0.0013 -0.0609 -0.1440
18991W        W35065  11.006   3.933   3.516  0.0999 -0.2796 -0.0466
18992W        W35066   1.728  14.437   3.442 -0.2104 -0.1986  0.0199
18993W        W35067   8.251  13.557   0.968 -0.0297 -0.2549  0.0517
18994W        W35068  12.547   8.118  10.482  0.0694  0.1184 -0.0811
18995W        W35069   1.684  15.415   0.952 -0.0578 -0.1236 -0.0869
18996W        W35070  13.527   9.044   2.480  0.1139 -0.3594  0.0577
18997W        W35071   2.329   9.455  10.393  0.0189  0.4083 -0.0000
18998W        W35072  10.162   2.642   4.001  0.0074  0.5584  0.2240
18999W        W35073   9.469   7.094   5.830 -0.1380 -0.1070 -0.2662
19000W        W35074  13.870   1.220   4.238  0.0082  0.0806  0.0772
19001W        W35075   8.072  16.688  11.992 -0.0972  0.0506 -0.4015
19002W        W35076   2.921   1.131   0.978  0.1737 -0.0001 -0.1772
19003W        W35077   3.366   3.620  14.942  0.1104  0.0703  0.1890
19004W        W35078   8.153  17.606  12.349  0.4180  0.0819  0.2141
19005W        W35079   6.518  18.653   3.915  0.0326 -0.0021 -0.0173
19006W        W35080  15.076   2.480   3.194  0.1443 -0.0860  0.1031
19007W        W35081  12.480  16.171   3.008  0.1117  0.0557  0.0082
19008W        W35082   9.518   7.054  11.067 -0.3223 -0.4607 -0.1887
19009W        W35083   9.751   8.057   0.622  0.1226  0.0267  0.0360
19010W        W35084   1.381  15.808  11.304  0.1162 -0.0366  0.1940
19011W        W35085  11.402  18.931   3.146  0.1123  0.0495  0.1738
19012W        W35086   0.022  10.716  12.699  0.0175 -0.1173 -0.2546
19013W        W35087   7.920   0.673  11.799 -0.0165 -0.1211 -0.2402
19014W        W35088  18.925  13.149   0.644 -0.0284  0.4999 -0.0251
19015W        W35089  13.277   7.716  10.865 -0.1799 -0.1812  0.0701
19016W        W35090  18.226   5.128  14.064 -0.0710 -0.4107 -0.0204
19017W        W35091   4.810  17.321  10.827  0.1995 -0.0735  0.0440
19018W        W35092  15.158  14.895   0.058 -0.1492  0.1895  0.0374
19019W        W35093   4.772   3.807   5.867 -0.1499  0.3683  0.1038
19020W        W35094   5.013   3.202   4.780 -0.3224  0.1912 -0.0281
19021W        W35095  15.291  16.961  11.668  0.0463 -0.0523  0.3517
19022W        W35096  15.698  14.700  11.011  0.1558 -0.0384 -0.0139
19023W        W35097  19.286   0.093  10.156  0.0220 -0.2757 -0.1607
19024W        W35098   0.140   9.606  15.016 -0.2660  0.1058 -0.1729
19025W        W35099   6.885   2.977  13.516 -0.1247  0.0740  0.0943
19026W        W35100  11.667  13.771   1.539 -0.2192  0.1014 -0.0079
19027W        W35101   1.664  14.339   1.595  0.0664  0.0506  0.0870
19028W        W35102  12.373  18.666  11.044  0.1848 -0.1938  0.2327
19029W        W35103   8.852  14.360   3.632 -0.1877  0.1432  0.0332
19030W        W35104   3.015  13.518  11.948  0.2360 -0.0991  0.3447
19031W        W35105   9.393  18.795   0.554  0.0649 -0.0719 -0.2570
19032W        W35106   4.354   8.649   0.296 -0.0515 -0.1103 -0.0270
19033W        W35107  10.300   6.670   0.106  0.0929  0.1465  0.2911
19034W        W35108  16.474  11.086   2.540 -0.1611  0.0110  0.4032
19035W        W35109  10.816   1.683   2.146 -0.0602 -0.1560  0.2529
19036W        W35110   6.104   7.257  14.126 -0.1503  0.1062 -0.3638
19037W        W35111   8.099   1.695  14.957 -0.0669  0.4323  0.1415
19038W        W35112  18.262   3.747   3.650 -0.2691  0.0478  0.2248
19039W        W35113  14.199   3.362  10.787 -0.2224  0.1241 -0.2755
19040W        W35114  18.784  10.344  10.530  0.0382 -0.2706  0.3257
19041W        W35115   8.447   3.441   2.001 -0.2548  0.3429 -0.2014
19042W        W35116  11.804  11.144   3.021  0.0655  0.3151  0.3708
19043W        W35117   0.602   1.039   2.392  0.0674  0.0361  0.0793
19044W        W35118   1.207   0.555   5.102  0.1518  0.3714 -0.1289
19045W        W35119   7.473  11.624  12.281 -0.2945  0.0399  0.1259
19046W        W35120  10.516  12.459   0.394  0.1309 -0.1345 -0.3335
19047W        W35121   2.686   7.448  12.491 -0.2176  0.1566  0.1370
19048W        W35122  13.608   7.003   2.658  0.0130  0.3812  0.0921
19049W        W35123  17.936   8.042   2.387  0.1619 -0.0206  0.0574
19050W        W35124  14.743  14.909   3.137 -0.0091  0.0277  0.2529
19051W        W35125   7.553  13.953   2.238  0.1312  0.5224  0.0864
19052W        W35126  18.652   1.554  12.925 -0.0932 -0.2137  0.3578
19053W        W35127  17.970   3.256  11.307  0.0222  0.1541  0.0434
19054W        W35128   1.286  12.240  12.094  0.1756  0.2107  0.1164
19055W        W35129  13.678   5.123  10.791  0.1175  0.0224 -0.2363
19056W        W35130  17.183  14.638   1.116  0.2483  0.0588 -0.0466
19057W        W35131   7.213  11.457   4.656  0.0986 -0.0178 -0.2675
19058W        W35132  15.626   7.981  12.661  0.0259 -0.0982 -0.0863
19059W        W35133   0.036   9.550   4.517 -0.2413 -0.4168 -0.0826
19060W        W35134   4.747  15.754   1.323 -0.0489  0.2815  0.3304
19061W        W35135   9.788  12.393  13.193  0.1050 -0.0971 -0.2272
19062W        W35136  16.256   0.604   2.514 -0.1153  0.0855  0.3183
19063W        W35137   1.184  16.678   2.537  0.2140 -0.2342  0.0868
19064W        W35138   9.066   5.745   0.417 -0.2016  0.5387 -0.2061
19065W        W35139  12.558  14.949  11.729  0.0195 -0.2846 -0.0691
19066W        W35140  13.293  16.838  13.124  0.0361  0.1359 -0.1095
19067W        W35141   7.626   4.156   2.074  0.0111 -0.3550 -0.1875
19068W        W35142   6.603  16.834   5.419  0.1035  0.1335  0.1757
19069W        W35143   6.433  12.679   2.270  0.1258  0.2656 -0.1181
19070W        W35144   2.733   8.865  13.892  0.2911 -0.0757 -0.0201
19071W        W35145  14.402   0.904   1.538  0.1198 -0.0431  0.2152
19072W        W35146   9.063  15.574   0.713 -0.1458 -0.4384 -0.2935
19073W        W35147  17.588  19.148   4.623 -0.3642 -0.0312 -0.2626
19074W        W35148  17.658   2.141  11.033  0.2903  0.2372  0.1936
19075W        W35149   5.564  16.155  14.578  0.1541  0.4434  0.0518
19076W        W35150  16.835  10.326   0.615 -0.0151 -0.1486  0.0238
19077W        W35151  11.548   7.966  12.700 -0.0550 -0.0019  0.0383
19078W        W35152  12.984  15.937   2.894 -0.1094 -0.2470 -0.0101
19079W        W35153   2.859  18.019  13.558  0.0237  0.0159  0.0326
19080W        W35154   5.625  16.164  11.935 -0.2493 -0.0270 -0.2159
19081W        W35155  10.093   1.296  14.972  0.2359 -0.3609 -0.2491
19082W        W35156   4.471   0.319   2.459 -0.0296  0.0130 -0.2712
19083W        W35157   3.577  15.703  15.059  0.0633  0.3055 -0.0112
19084W        W35158  16.453   7.087   2.473  0.3244 -0.0634  0.0004
19085W        W35159   5.374   7.360  13.516  0.0026 -0.0604 -0.1576
19086W        W35160  17.118   6.259   4.080 -0.2235 -0.3658  0.0900
19087W        W35161  14.534  10.982  14.001 -0.0738 -0.2463  0.1296
19088W        W35162   7.687   8.583   2.892  0.0307  0.0323 -0.3506
19089W        W35163   3.278  16.214   3.724  0.2765 -0.0355 -0.0220
19090W        W35164  16.566   3.725   0.200 -0.2140  0.3186 -0.0764
19091W        W35165   0.445   7.198   2.763 -0.1383 -0.2167 -0.1089
19092W        W35166   4.472  19.106  14.788  0.0647  0.1288  0.0869
19093W        W35167  15.203   1.207   0.143  0.2124  0.2681 -0.3273
19094W        W35168  18.374  16.466   1.672  0.0372 -0.0927  0.3890
19095W        W35169  14.926  14.866   9.453  0.2239 -0.1128  0.0621
19096W        W35170   0.674  10.450  12.691 -0.1378 -0.2041  0.2098
19097W        W35171   3.347   9.013  11.288 -0.1445  0.0363  0.2841
19098W        W35172  16.688  17.976   1.223  0.2987 -0.0199  0.2506
19099W        W35173  10.975   9.828   4.635  0.0934  0.3308 -0.1702
19100W        W35174   7.221   5.528  14.326 -0.3263 -0.1849 -0.1722
19101W        W35175   6.589  15.449  10.955 -0.1206  0.0844 -0.1011
19102W        W35176  17.840   4.050   3.719 -0.1196 -0.3758  0.1168
19103W        W35177  16.417  11.260   9.514  0.1011 -0.1816  0.0247
19104W        W35178   5.951   6.596  10.284  0.1433  0.0645 -0.1097
19105W        W35179   7.631   4.039   4.679 -0.0149  0.3661  0.0408
19106W        W35180   7.609  18.226  14.046 -0.2037 -0.0106  0.1195
19107W        W35181  12.506   1.063   4.234  0.1368  0.2851 -0.1736
19108W        W35182   6.565   1.723   0.383 -0.0548 -0.3104  0.0567
19109W        W35183  14.369  18.562  14.192  0.1746  0.0296  0.1492
19110W        W35184   6.786  18.024   3.770  0.0481  0.4305 -0.0600
19111W        W35185   3.207  14.934  12.117  0.0996  0.2235  0.1639
19112W        W35186  19.159  12.422   1.540  0.4374  0.1535  0.0486
19113W        W35187   4.694   6.116   0.628 -0.2564 -0.1251  0.0445
19114W        W35188   8.781   1.928   4.142  0.2475  0.0704  0.2305
19115W        W35189  15.647  13.960   2.968 -0.1000  0.1104 -0.0863
19116W        W35190  13.742  11.854  12.393  0.5427 -0.0126  0.3693
19117W        W35191   6.640  16.033   4.249  0.3726 -0.5150 -0.0076
19118W        W35192  11.080   3.686   2.202 -0.0071  0.3086 -0.0517
19119W        W35193   1.070  17.828   0.045  0.1971  0.0954  0.6091
19120W        W35194   2.409  16.106  14.139 -0.2742  0.1738 -0.1189
19121W        W35195  11.983  18.332   1.435 -0.0950  0.1792 -0.0749
19122W        W35196   2.343  12.656  14.403 -0.2263 -0.0142  0.2410
19123W        W35197   7.581   3.337  11.573 -0.0706  0.0581 -0.0063
19124W        W35198  10.307  10.040  13.825  0.0165  0.3154  0.3450
19125W        W35199   9.059  14.596  14.083  0.3961  0.1613  0.0357
19126W        W35200  14.325   2.836  11.454 -0.0097 -0.0966  0.1395
19127W        W35201  11.111   2.756   0.068 -0.0853  0.2514 -0.0301
19128W        W35202   0.102  16.330  12.429 -0.1295 -0.0551 -0.3266
19129W        W35203   1.363  17.837  13.976 -0.1012  0.2186  0.2855
19130W        W35204  16.540   4.985  11.799  0.1329  0.1081  0.0037
19131W        W35205   1.264  11.495  14.970  0.2484 -0.1191 -0.0548
19132W        W35206   8.170  15.210  14.907  0.1339  0.1660  0.3799
19133W        W35207   2.952   9.899   1.657  0.0498 -0.1241  0.2981
19134W        W35208  14.140  14.707  13.705 -0.2489 -0.0377  0.1320
19135W        W35209   4.573   8.214   4.336 -0.0913 -0.2107  0.1320
19136W        W35210  12.676  15.862  11.289  0.0106  0.3065  0.2033
19137W        W35211   0.025  17.299  12.663 -0.0463 -0.1317  0.2363
19138W        W35212   6.384   0.543  10.852 -0.0129 -0.0395  0.1090
19139W        W35213  10.849   5.013   2.660 -0.0887  0.1131 -0.0156
19140W        W35214   3.497   9.595   0.939  0.0036  0.0345  0.1592
19141W        W35215   2.458   5.813  14.173  0.1160 -0.2658  0.1844
19142W        W35216   4.544   7.296   2.214  0.1993  0.2739  0.1268
19143W        W35217  19.188   4.739  14.373  0.1852 -0.2752  0.0923
19144W        W35218  10.765  17.283   1.248 -0.0668 -0.1793 -0.3038
19145W        W35219  18.620   9.058   5.438 -0.1613 -0.2244 -0.2020
19146W        W35220   3.566  12.464  12.401  0.2321  0.0122 -0.0186
19147W        W35221  12.263   4.987  14.410  0.1069  0.0391  0.2215
19148W        W35222   4.126   0.658   4.537  0.2716 -0.1214  0.1750
19149W        W35223   3.870   2.549  11.843 -0.3404 -0.1193 -0.0373
19150W        W35224  12.235   9.339  12.340 -0.2852  0.1620 -0.2100
19151W        W35225   0.095  16.433  10.137  0.1804 -0.0528 -0.2699
19152W        W35226   5.832   1.346   1.086 -0.2454  0.4647  0.0704
19153W        W35227   2.013   5.857   2.388 -0.3146 -0.2925 -0.0985
19154W        W35228  11.416   7.955   4.016  0.3343 -0.1141 -0.1018
19155W        W35229   8.190   1.978  11.090 -0.0978 -0.1934 -0.1819
19156W        W35230  10.478  17.445  12.513  0.1788 -0.1476 -0.0782
19157W        W35231  15.067   9.080  14.825 -0.0711 -0.2316 -0.2088
19158W        W35232   1.205   8.652   0.452  0.2728 -0.1978  0.3099
19159W        W35233  15.922   2.280  10.798  0.1766  0.1630  0.0082
19160W        W35234   6.216  16.980   4.640  0.0012  0.1250  0.1587
19161W        W35235   0.051   6.363  14.573  0.4489 -0.2979  0.1806
19162W        W35236   7.496   8.456  13.626 -0.1556  0.1579 -0.2411
19163W        W35237   9.087  16.997   0.744  0.4047 -0.1003  0.1621
19164W        W35238  16.755  15.315   0.894 -0.2008 -0.3475  0.2805
19165W        W35239   1.758  11.642   0.094  0.3250  0.2141  0.0532
19166W        W35240  10.719  16.540  11.996 -0.0511 -0.0794  0.0909
19167W        W35241  18.939  15.652  10.558 -0.0317  0.0341  0.2029
19168W        W35242  16.043  14.700  12.491  0.1289  0.3009  0.1023
19169W        W35243  14.260   3.981  12.496  0.0070 -0.0927 -0.2293
19170W        W35244   5.159  16.587   0.310 -0.2037 -0.1075  0.1138
19171W        W35245  14.298  13.085  12.653  0.0776  0.0771 -0.1249
19172W        W35246   8.809   4.983   0.754 -0.0316  0.0967 -0.1678
19173W        W35247   1.420  14.094   0.515 -0.1994 -0.2703 -0.0133
19174W        W35248   8.727   2.526  12.430 -0.1092 -0.4815  0.1184
19175W        W35249   3.790  14.594   4.759  0.0578  0.2583  0.0460
19176W        W35250   2.033   1.194   0.634 -0.2835 -0.1943 -0.3024
19177W        W35251   5.557  18.332  14.218 -0.3336  0.1186 -0.1848
19178W        W35252   0.784  10.090   1.151  0.0582  0.0807  0.0354
19179W        W35253  19.142   8.398   0.524 -0.3180 -0.1401 -0.0652
19180W        W35254   9.367  18.692   5.169 -0.2539 -0.0782  0.0129
19181W        W35255  14.959   4.542   3.482  0.1070 -0.3116 -0.1083
19182W        W35256   8.795   8.885  11.198 -0.0726  0.0155 -0.2915
19183W        W35257   5.561   6.341   0.076  0.0027  0.1703  0.1163
19184W        W35258  15.425   4.197   0.885  0.1549  0.0363 -0.1470
19185W        W35259  18.068   0.438  12.720  0.0323 -0.1944 -0.1788
19186W        W35260   2.804  12.219   0.791  0.0664  0.1997  0.0890
19187W        W35261  18.504   1.850   4.343 -0.0430  0.0752 -0.1283
19188W        W35262  10.243  15.018   9.594 -0.0725 -0.1314 -0.1267
19189W        W35263   3.083   3.179   1.238  0.1998 -0.1923 -0.3679
19190W        W35264   7.463  14.700  14.184  0.2128  0.2171 -0.0645
19191W        W35265  10.304  13.218   4.380 -0.3413 -0.3569  0.4430
19192W        W35266   9.212   5.481   1.777 -0.0762 -0.1080  0.1742
19193W        W35267   7.006  16.525  11.310  0.3952 -0.1563  0.2126
19194W        W35268   7.199  10.404  11.070 -0.0769 -0.0704  0.1261
19195W        W35269  12.102   7.336  14.455 -0.0465 -0.1804  0.2205
19196W        W35270   0.779   9.385  12.940 -0.0481  0.3490  0.3199
19197W        W35271  13.517   0.980  10.130  0.1496  0.4205 -0.1993
19198W        W35272  16.339   1.304   1.987 -0.3265  0.0616  0.0605
19199W        W35273   8.445   7.133   2.045 -0.3081  0.1170 -0.2462
19200W        W35274  10.310  12.493   2.714  0.0300 -0.3707  0.2168
19201W        W35275  16.926   0.513   1.322  0.1311  0.0075 -0.1410
19202W        W35276  10.524  16.372  11.536 -0.2026  0.3108  0.1167
19203W        W35277   8.263   9.899   1.847  0.0619 -0.1041  0.1356
19204W        W35278  10.336   1.006   1.224 -0.2740 -0.0162 -0.2134
19205W        W35279  14.399  11.463  14.171 -0.1109  0.1867 -0.0205
19206W        W35280   5.275   5.418   1.771 -0.1351 -0.1280  0.0174
19207W        W35281   6.192  14.359  13.143  0.0209 -0.0755 -0.3594
19208W        W35282  10.628  11.140   0.806  0.1994  0.0672  0.2699
19209W        W35283   5.646  17.578  13.662 -0.1575  0.2286  0.2952
19210W        W35284  15.870   7.644   0.068  0.1709  0.1017  0.3753
19211W        W35285  10.759   4.580  11.073  0.2563 -0.0307 -0.1641
19212W        W35286   2.856  10.943   0.437 -0.0126  0.2387  0.0573
19213W        W35287   0.513   7.575   1.192 -0.2183  0.1859 -0.0861
19214W        W35288  10.493   0.099  14.133  0.0341  0.3743  0.2540
19215W        W35289   2.117  15.086   0.278 -0.2257  0.3015 -0.0749
19216W        W35290  13.993  10.745  12.340 -0.1580 -0.2099  0.1949
19217W        W35291  13.285   4.255   3.467 -0.0317 -0.1172 -0.1649
19218W        W35292   3.071   6.010   3.520 -0.1518 -0.2701  0.0750
19219W        W35293   6.446   1.329  11.352  0.0921  0.1012 -0.0399
19220W        W35294   9.020  10.864   4.620 -0.1937 -0.1041  0.0954
19221W        W35295   0.862  17.506  12.710  0.2794  0.0303 -0.3275
19222W        W35296  10.776  15.273   4.939 -0.2785  0.0461 -0.0728
19223W        W35297   3.922  12.722  13.716 -0.1008  0.2200 -0.1137
19224W        W35298  17.625  16.860   4.523 -0.1143 -0.0240  0.1265
19225W        W35299   1.676  13.591  12.397  0.1305 -0.1787  0.2075
19226W        W35300  18.452   1.636   3.149 -0.1921 -0.0844 -0.2382
19227W        W35301   6.525   5.233  14.892  0.2984 -0.1959  0.1889
19228W        W35302   5.930   1.581   4.581 -0.2816 -0.1322 -0.0810
19229W        W35303  11.004  15.398  12.391 -0.2823 -0.0251  0.3321
19230W        W35304   7.031   4.562   2.841  0.0137 -0.0365 -0.0376
19231W        W35305  11.780  18.414   2.737  0.1687  0.0368 -0.2274
19232W        W35306  11.986  17.658  12.324  0.4439  0.0875 -0.0032
19233W        W35307   0.869   2.071  14.154 -0.1112  0.0530  0.0644
19234W        W35308   3.236   5.572  11.504 -0.1797 -0.3282  0.1158
19235W        W35309  12.153  16.252  12.156  0.2933  0.1561 -0.0033
19236W        W35310   6.827   7.890  11.921  0.1506  0.0417  0.1532
19237W        W35311   7.624   0.141   4.236  0.1594 -0.1676 -0.1820
19238W        W35312  10.429  13.759  14.922 -0.2808  0.2729  0.0285
19239W        W35313   1.616   7.285  13.634  0.1903 -0.0801  0.2684
19240W        W35314   3.003  14.994  13.081  0.2671 -0.0578  0.0090
19241W        W35315   0.159   2.312   3.584 -0.0841  0.2019  0.0482
19242W        W35316   8.896   9.263   2.148 -0.3181 -0.0434  0.0155
19243W        W35317   1.029  12.574  13.718  0.2041 -0.1963  0.1079
19244W        W35318  13.790   8.049   2.866 -0.0495  0.0271  0.2172
19245W        W35319  14.613   8.138  10.022 -0.1537 -0.1497  0.1043
19246W        W35320  10.921   7.096  13.694 -0.0619  0.3255  0.2995
19247W        W35321   8.328   2.492  13.239 -0.3145 -0.0114  0.3020
19248W        W35322  15.465  19.259  10.038 -0.2371 -0.5797  0.2108
19249W        W35323  17.926   9.796  13.607 -0.3444  0.0172  0.1957
19250W        W35324   1.525  17.779   9.864 -0.1088  0.0482 -0.1796
19251W        W35325  16.156   9.967  11.468 -0.0279 -0.0339 -0.0735
19252W        W35326   8.814   6.287  15.057 -0.0667 -0.2356 -0.2756
19253W        W35327   3.291   7.971  13.952 -0.3341 -0.2230  0.0790
19254W        W35328   7.339   0.565   3.920  0.0462 -0.1950 -0.0655
19255W        W35329  18.141   3.927   2.847 -0.0595  0.0247  0.1676
19256W        W35330   8.440   9.480   2.178  0.4050 -0.2448 -0.2644
19257W        W35331  12.581  18.236  13.669 -0.2787 -0.1643  0.0790
19258W        W35332  10.539   6.376  14.248  0.4377  0.0241  0.2518
19259W        W35333   2.242   6.821  14.462 -0.0715 -0.3444  0.1121
19260W        W35334  14.081   5.791   3.835 -0.1946  0.1807 -0.0381
19261W        W35335   3.249   2.811   0.264 -0.0277 -0.1035 -0.2084
19262W        W35336   5.591   7.254  14.001 -0.0772  0.0096  0.0787
19263W        W35337  15.051   9.541   4.587  0.2303  0.0877  0.1027
19264W        W35338   0.927  14.838   5.529  0.0102 -0.2944 -0.0475
19265W        W35339   9.569   8.622   2.072  0.2183 -0.1346 -0.0273
19266W        W35340  18.406   5.766   2.874  0.0879  0.0758 -0.0836
19267W        W35341  14.777  16.785  11.019 -0.1125  0.2963  0.0218
19268W        W35342   3.654  14.024   0.791 -0.1275  0.1154 -0.0369
19269W        W35343  16.192   2.138   4.484  0.0283  0.3696 -0.2221
19270W        W35344   2.377  10.899   1.032 -0.1202 -0.0312  0.2559
19271W        W35345  18.779   3.278  14.457 -0.0045 -0.0911 -0.0527
19272W        W35346   6.251   1.501   1.683 -0.0617 -0.4071 -0.4157
19273W        W35347   3.012   2.462  12.378  0.0767 -0.0698  0.2414
19274W        W35348  18.978  11.976   3.440 -0.2164  0.0583 -0.3290
19275W        W35349   7.761  12.070   5.299 -0.3429  0.2149 -0.0544
19276W        W35350   8.066  17.186  11.076  0.0302  0.3257 -0.5047
19277W        W35351  17.063   4.936   4.083 -0.3211  0.1049  0.1303
19278W        W35352   6.396  14.004   4.138 -0.3569  0.0495 -0.0337
19279W        W35353   0.483  12.049  10.116 -0.1207 -0.3036 -0.1611
19280W        W35354   2.356  16.758  11.600  0.1457 -0.1980 -0.1469
19281W        W35355   2.287   1.506  12.056  0.0080 -0.2450 -0.0015
19282W        W35356   3.746   2.863   4.301  0.2365 -0.0733 -0.2480
19283W        W35357   7.337  13.983   3.930  0.2889 -0.2415 -0.0302
19284W        W35358  19.180   1.279   9.911  0.1355 -0.1701 -0.1228
19285W        W35359  12.244  14.444  14.279 -0.0471 -0.0071 -0.1437
19286W        W35360  15.342  13.545   4.570 -0.0221 -0.0633 -0.0781
19287W        W35361   2.534   7.723   4.481  0.0159  0.0197 -0.0552
19288W        W35362  15.784   3.479   3.636  0.3045 -0.4157  0.0128
19289W        W35363  19.058  17.689  11.236  0.1337 -0.2394  0.3521
19290W        W35364   8.755   0.212  12.518  0.3124  0.3616  0.2598
19291W        W35365  10.354  12.688   4.422 -0.1026  0.2418 -0.0982
19292W        W35366  17.734   6.763   3.783 -0.2781 -0.3162 -0.0736
19293W        W35367   9.816  13.539   2.696  0.0611 -0.0353 -0.1706
19294W        W35368   0.320  12.173  14.130  0.2020 -0.0061 -0.2429
19295W        W35369  14.435   5.123  14.109 -0.2948 -0.0335 -0.2813
19296W        W35370   1.602  15.476  11.669  0.1247 -0.1271  0.2487
19297W        W35371  18.611   0.453   4.193 -0.1656 -0.0132  0.2110
19298W        W35372  15.365   5.846   4.864 -0.0782 -0.0781  0.1833
19299W        W35373   6.727   5.647   3.414 -0.0279  0.2759  0.0052
19300W        W35374  18.664  14.545  12.985 -0.0822  0.1921 -0.2476
19301W        W35375  10.953   3.560  11.291  0.0119  0.0089  0.0594
19302W        W35376   8.998  15.945   2.903  0.0008  0.1058  0.1709
19303W        W35377   2.447   0.212  10.683 -0.4525 -0.2237 -0.3107
19304W        W35378  17.699  12.931  14.705  0.3419  0.0795 -0.1650
19305W        W35379  18.170   5.371   2.525  0.0427 -0.2330  0.0961
19306W        W35380   3.452  16.648   0.012 -0.2122 -0.0678 -0.2722
19307W        W35381  13.521  15.539   0.913 -0.2464  0.2163  0.2924
19308W        W35382   3.083  13.325  13.886  0.0238  0.1617 -0.5294
19309W        W35383  14.391  17.169   2.569 -0.1304 -0.0564  0.3155
19310W        W35384  11.128   9.850  14.972  0.1635  0.1760  0.2171
19311W        W35385   8.151  17.960  13.886 -0.0478 -0.1383  0.1292
19312W        W35386  13.620   5.852  13.441  0.0482  0.0241  0.1219
19313W        W35387  18.918  18.100   1.661 -0.0248 -0.1042 -0.0119
19314W        W35388   4.923  11.203   2.241  0.1493 -0.2360  0.1514
19315W        W35389   9.492   9.149  11.668 -0.1283  0.1296  0.1326
19316W        W35390   1.567  18.162  11.247  0.3892  0.0328  0.0270
19317W        W35391  18.754  17.675   2.547  0.0943  0.0999 -0.1492
19318W        W35392  12.137  15.683  12.074 -0.2893 -0.1190 -0.0109
19319W        W35393  12.156   5.384  10.972  0.1348 -0.1365  0.0512
19320W        W35394  15.067   3.503   4.774  0.1716 -0.0369 -0.5397
19321W        W35395  13.684   2.491  10.700 -0.1074 -0.2664 -0.0146
19322W        W35396   8.305  16.330   0.713 -0.4135 -0.0017  0.2107
19323W        W35397   6.472  14.978  14.465  0.0143 -0.4365  0.1878
19324W        W35398  17.604   0.777   0.767 -0.2650  0.0703 -0.1460
19325W        W35399   3.928   6.717  12.845 -0.0863  0.0314  0.0894
19326W        W35400   3.889   4.223  11.738 -0.0696 -0.0758 -0.1647
19327W        W35401  13.753   2.511  14.571 -0.2750 -0.1055  0.0269
19328W        W35402  16.231   2.708   4.545 -0.0681  0.3476  0.0571
19329W        W35403  18.471   2.240  10.320  0.1299  0.3631  0.1751
19330W        W35404   8.666   0.315   1.547  0.0566  0.2380 -0.3744
19331W        W35405  11.319   2.268   5.334 -0.1401  0.2650  0.1233
19332W        W35406  18.265  16.096   0.675  0.3622  0.0212 -0.2283
19333W        W35407   3.505   6.198   1.255 -0.0503  0.2852 -0.0900
19334W        W35408  15.817  16.598   1.367  0.2385 -0.1456  0.2410
19335W        W35409   1.881  18.170   4.547  0.1650  0.2516 -0.0154
19336W        W35410  12.948   2.414   2.286  0.2345 -0.2144  0.1373
19337W        W35411   3.615  14.963  14.438 -0.0171 -0.3107 -0.2778
19338W        W35412   4.204   3.080   0.750  0.0456  0.0085  0.0709
19339W        W35413  16.316  12.046   4.007 -0.0885 -0.1993  0.1496
19340W        W35414  12.420  18.056   1.547 -0.2591  0.2272 -0.0310
19341W        W35415  12.129  14.008  12.873  0.0118  0.0072  0.0766
19342W        W35416   3.343  18.128  13.704 -0.4986 -0.1721 -0.1930
19343W        W35417  15.285   7.162   3.016  0.0187  0.2313 -0.0641
19344W        W35418   1.428   7.711  12.134 -0.0941 -0.3102 -0.0610
19345W        W35419  13.880   3.034   1.151 -0.1440 -0.1379  0.1120
19346W        W35420   3.705  11.603   0.551  0.3282 -0.1268 -0.2058
19347W        W35421  16.071   4.654   0.352  0.2569  0.2613 -0.1538
19348W        W35422  14.565  15.390  10.282  0.0911 -0.0287 -0.0205
19349W        W35423   0.881   8.533   4.004  0.0817 -0.3124  0.1113
19350W        W35424   9.975   8.090   3.492  0.2435 -0.1358  0.2967
19351W        W35425  10.860  12.534  10.177  0.1081  0.1053  0.0011
19352W        W35426  12.223   2.496  11.749  0.1553  0.1179 -0.2789
19353W        W35427   3.528   1.836  11.880  0.2701  0.1445 -0.0950
19354W        W35428  16.757  18.179   0.578  0.1622  0.1098  0.1420
19355W        W35429  15.340   8.231   3.631 -0.0984 -0.2680  0.0880
19356W        W35430   7.977   2.728  14.878 -0.2555  0.1209  0.0881
19357W        W35431  13.033   1.312   5.456  0.2582 -0.0789  0.1652
19358W        W35432  11.885   7.080  13.106  0.2052  0.1152 -0.3119
19359W        W35433   4.462  17.863   0.020 -0.1105 -0.3608  0.2314
19360W        W35434  17.463   9.566  13.254 -0.0964  0.1786 -0.0629
19361W        W35435  11.228  12.371  11.175  0.3244  0.1536 -0.4124
19362W        W35436   1.509   6.707   0.323  0.3579 -0.3980  0.0542
19363W        W35437  14.367  16.563   2.222 -0.3400  0.0357  0.0400
19364W        W35438  19.258  15.412   1.404  0.2914 -0.1026 -0.0038
19365W        W35439   6.029  10.289  13.839  0.0670 -0.4452 -0.5075
19366W        W35440  10.519  16.068   1.059  0.0924  0.2465 -0.3343
19367W        W35441   1.526   0.871   2.008  0.1833 -0.0656  0.0469
19368W        W35442  16.958   8.327   3.872 -0.0585  0.2790  0.0350
19369W        W35443   6.862  18.752  14.948 -0.1688 -0.1776  0.2923
19370W        W35444   4.935   0.200   2.472  0.2655 -0.0776  0.0401
19371W        W35445   8.349   5.489   4.085 -0.3152  0.2373 -0.2079
19372W        W35446  10.042   1.592   4.549 -0.0467  0.1126  0.0935
19373W        W35447  18.028   3.077   2.490 -0.0343  0.1044 -0.0817
19374W        W35448  15.968  12.314  13.587 -0.2270 -0.0617  0.0760
19375W        W35449   7.404   5.882   5.963  0.0473  0.3365  0.0787
19376W        W35450   0.087   7.178  12.160 -0.0041  0.2543 -0.1671
19377W        W35451  13.901  11.824  11.077  0.3531 -0.1313 -0.2723
19378W        W35452   1.988  13.470  14.164 -0.1377 -0.0224 -0.0203
19379W        W35453  13.461   1.443  13.190 -0.2143 -0.1907  0.0864
19380W        W35454  10.119  13.579   0.638  0.1335 -0.3324 -0.2029
19381W        W35455   8.323  13.018   1.042 -0.1679 -0.2979 -0.0557
19382W        W35456   3.481  14.695   2.159 -0.1633 -0.3085  0.0690
19383W        W35457   2.496   4.378   2.725  0.1957 -0.1962  0.1930
19384W        W35458   7.473   7.627   3.160 -0.3404  0.0391 -0.0077
19385W        W35459   0.649   9.612  14.617 -0.1503 -0.2233  0.1321
19386W        W35460   5.282   8.539   0.797 -0.2194 -0.0161  0.2021
19387W        W35461   6.747  10.297  11.212  0.1985 -0.1166 -0.0297
19388W        W35462   4.288   7.300  11.598  0.1013  0.2943  0.0011
19389W        W35463   0.218  13.297   3.464  0.0724 -0.2032 -0.1073
19390W        W35464  11.042   6.865   2.038  0.0929  0.1780  0.1368
19391W        W35465   1.012   6.550  11.781  0.1334 -0.0874  0.0452
19392W        W35466   0.593   0.453  11.456  0.2554  0.0411  0.1259
19393W        W35467   3.527  18.247  12.007  0.4152  0.1687  0.0308
19394W        W35468   8.867  13.163   1.805  0.2656  0.1078  0.5193
19395W        W35469   8.147   3.593  13.624  0.2226 -0.0933  0.2877
19396W        W35470  10.205  18.535  11.052  0.1421 -0.1356 -0.0104
19397W        W35471   6.942   6.139   3.537  0.1561 -0.4392  0.2121
19398W        W35472  16.860   4.066  11.376 -0.0146  0.4573  0.3948
19399W        W35473  11.847   4.649  13.546 -0.0826  0.3438  0.2156
19400W        W35474  11.569   5.903   4.942 -0.1517  0.0446  0.1105
19401W        W35475  11.974  10.134   4.357 -0.1177  0.1201 -0.3292
19402W        W35476   0.940   9.446  13.417 -0.0335  0.0716 -0.0261
19403W        W35477   1.050  11.788  14.584 -0.2742  0.2719  0.2280
19404W        W35478   2.835  18.871  14.435  0.1573  0.0480  0.0433
19405W        W35479  19.018  11.719  13.615 -0.1822  0.0497  0.1776
19406W        W35480  12.009   5.417   3.495 -0.0408 -0.2036  0.1338
19407W        W35481  11.291   1.344  11.111  0.1516  0.0449 -0.0725
19408W        W35482   0.877  12.178  14.095 -0.2523  0.1357  0.0320
19409W        W35483  17.871   1.438   5.486 -0.2737  0.0376  0.1414
19410W        W35484   0.655   2.851   2.939 -0.0916  0.2775 -0.2009
19411W        W35485   4.434  13.499  10.800  0.0377  0.0766  0.0531
19412W        W35486   4.815  12.490  13.737 -0.1532 -0.1361  0.0154
19413W        W35487   0.022  16.113  13.852 -0.2775 -0.1064  0.0182
19414W        W35488  18.599   4.432   1.298 -0.1931 -0.1746 -0.0714
19415W        W35489   0.345   0.906   5.045  0.2293 -0.0971  0.0346
19416W        W35490  18.476   3.627   9.773 -0.0643  0.0837 -0.0258
19417W        W35491  12.839   9.773   1.513  0.1664  0.0482 -0.2482
19418W        W35492   4.067   9.023  15.053 -0.0963  0.3072  0.2544
19419W        W35493  10.320  17.422   1.005  0.1525 -0.0710  0.1089
19420W        W35494  10.333   9.024  13.920 -0.0917 -0.1113 -0.0880
19421W        W35495  12.783  10.102  10.704 -0.1039  0.1227 -0.0214
19422W        W35496  12.751  13.113   2.899  0.0472 -0.0414 -0.2156
19423W        W35497  14.283  18.984  13.944 -0.0202 -0.1289 -0.1566
19424W        W35498  18.400   2.155   0.285 -0.0374  0.3140  0.0980
19425W        W35499   2.513   7.342   3.679 -0.1469  0.0709 -0.5131
19426W        W35500  16.241  11.033  10.777  0.3994  0.1843 -0.2116
19427W        W35501  11.569   1.215  11.968  0.1814  0.2587 -0.1851
19428W        W35502   0.899   9.346  11.394  0.0754 -0.2534  0.0298
19429W        W35503  11.541   6.727  14.774 -0.0302 -0.1827  0.0923
19430W        W35504   1.636  12.828  13.218  0.0377 -0.2630  0.0423
19431W        W35505  12.580  10.707   4.470  0.1725  0.1844  0.1945
19432W        W35506  14.588   0.716  13.306  0.1940  0.1772 -0.0378
19433W        W35507  11.055   3.168   3.918 -0.0821 -0.2252 -0.3202
19434W        W35508  13.472  13.752  14.229  0.0984 -0.2829  0.1185
19435W        W35509  11.268   9.290   1.831  0.6407  0.2206 -0.1337
19436W        W35510  12.671   9.042  14.838 -0.0026  0.2096 -0.4283
19437W        W35511  13.396   9.091  13.287 -0.0377  0.2992  0.0748
19438W        W35512  15.943   0.096   1.238  0.3255 -0.0124 -0.1244
19439W        W35513   8.013  12.019   5.697 -0.0260 -0.1126  0.3228
19440W        W35514   1.800   1.037   2.448  0.2470 -0.3981  0.1019
19441W        W35515   4.978  19.282   0.662 -0.1050 -0.0901  0.0279
19442W        W35516   7.616  12.818   3.376  0.0739  0.0360 -0.2811
19443W        W35517  16.189   0.390  12.529  0.1421  0.0709  0.1874
19444W        W35518  15.304  18.520  13.349 -0.0185  0.0081  0.0238
19445W        W35519  16.417  12.765   0.669  0.3530  0.1872  0.0659
19446W        W35520   9.570   2.210  10.998  0.2226 -0.2096 -0.4283
19447W        W35521  18.953   9.604  11.852 -0.0571  0.0405 -0.1342
19448W        W35522  14.595   8.864  14.738  0.1191  0.1975 -0.0726
19449W        W35523  11.239   4.047   0.558  0.0911  0.0746 -0.2067
19450W        W35524   9.582   4.585  14.712 -0.1842 -0.0602 -0.4039
19451W        W35525   3.998   7.713   4.889 -0.0019 -0.0642 -0.2487
19452W        W35526  12.916   4.514  13.073 -0.1869 -0.0400  0.0752
19453W        W35527   5.670  11.341   2.442 -0.1023  0.4304 -0.0497
19454W        W35528   5.239   9.008  14.135  0.1965 -0.2453  0.1847
19455W        W35529   5.057  17.679   0.776  0.4868 -0.3167  0.1642
19456W        W35530   9.680   4.790   3.647 -0.3779 -0.0590 -0.3263
19457W        W35531  18.580   2.515  13.709 -0.0220  0.0430 -0.1961
19458W        W35532  11.579  14.667  10.826 -0.1017 -0.4589 -0.0069
19459W        W35533  18.545   2.227   1.514 -0.0715  0.0155  0.0416
19460W        W35534  18.853   6.444   5.105  0.0469 -0.0782 -0.0205
19461W        W35535  12.589  15.113  13.113 -0.3845 -0.0910  0.0152
19462W        W35536   4.506  11.789  12.866 -0.1963  0.0969 -0.0881
19463W        W35537  18.492   6.462  14.093 -0.2035  0.4090  0.3576
19464W        W35538  14.853  13.744   1.898 -0.2012  0.2417  0.0309
19465W        W35539  14.229   6.888  11.036  0.2225  0.2732  0.0234
19466W        W35540  12.129  16.793  12.084  0.0712  0.0593 -0.2965
19467W        W35541   4.245   1.596  14.249 -0.2413 -0.1986 -0.2672
19468W        W35542   6.105  17.684  13.672  0.2935 -0.1682  0.0971
19469W        W35543   4.893   8.641   0.343 -0.2753  0.1635 -0.3766
19470W        W35544   4.389   3.812   5.045  0.0581 -0.4081 -0.0773
19471W        W35545   3.067   3.310  11.447  0.3507 -0.1307 -0.3540
19472W        W35546  14.329   3.289  11.676 -0.1966  0.2724 -0.4863
19473W        W35547  14.300  11.657   2.769 -0.0189 -0.1910  0.2480
19474W        W35548  19.059  12.017  10.550 -0.3572  0.3740 -0.0925
19475W        W35549   8.719  13.107  14.731 -0.1072 -0.0270 -0.2862
19476W        W35550  14.711  15.730   0.472  0.0426 -0.1259 -0.0068
19477W        W35551   3.726   9.588  12.954  0.0617 -0.0812  0.2316
19478W        W35552  17.606  10.086   4.817  0.1263  0.0387  0.0399
19479W        W35553   3.707  16.683   3.756 -0.1412  0.0524 -0.0723
19480W        W35554  17.258   6.430  10.745  0.0566 -0.1795  0.0249
19481W        W35555  11.978  13.649  11.159 -0.3323 -0.1991 -0.0558
19482W        W35556   0.184   0.641   1.948 -0.0647 -0.2361  0.2205
19483W        W35557   6.085   7.566   1.130  0.0562  0.2505  0.0984
19484W        W35558  12.172   6.199  14.420  0.1902  0.0335 -0.1227
19485W        W35559  18.854  14.869  11.045 -0.4083  0.0216  0.1540
19486W        W35560  13.545   1.123  12.761  0.0537 -0.1554  0.0333
19487W        W35561  18.593   8.903  11.632 -0.0475  0.2096  0.0007
19488W        W35562   4.499  11.053  13.741  0.1934 -0.0786 -0.0446
19489W        W35563   7.106   2.591   4.648  0.2340  0.1223 -0.1638
19490W        W35564   6.685   6.123  13.383  0.1161 -0.0184 -0.1053
19491W        W35565   6.826   3.246  11.668 -0.1582 -0.2834  0.2324
19492W        W35566   4.587   4.145  12.268 -0.1517 -0.0063 -0.1184
19493W        W35567   1.973  15.262   2.049 -0.2951  0.0896  0.4066
19494W        W35568  10.299  14.020   1.246  0.1189 -0.2843 -0.3561
19495W        W35569   8.839  11.790  13.836  0.2380 -0.2187 -0.3016
19496W        W35570   0.433   4.666   4.077  0.1549 -0.1302 -0.4888
19497W        W35571   4.084  12.647   1.085  0.2171 -0.0441  0.0738
19498W        W35572   8.127  18.746   2.927  0.1547 -0.1130 -0.2129
19499W        W35573  14.706  13.078   0.494 -0.1779 -0.0943 -0.0238
19500W        W35574   4.732   2.475  14.873  0.0403 -0.1751 -0.3787
19501W        W35575   5.297   0.567   3.671  0.1827 -0.2578 -0.1450
19502W        W35576   2.692   2.240   1.190  0.0198 -0.0263 -0.0709
19503W        W35577   4.017  11.100   0.657  0.2137 -0.1654  0.2684
19504W        W35578   6.700   2.284  15.021  0.1375  0.1026  0.0399
19505W        W35579  16.367  14.789  10.363  0.0620  0.0330 -0.1115
19506W        W35580  10.891   7.226   4.432  0.1096  0.0892 -0.2750
19507W        W35581  10.052  16.115  14.066  0.0017  0.0257 -0.0440
19508W        W35582   2.592  13.064  11.307 -0.0596  0.2630 -0.1379
19509W        W35583  12.900   7.547  13.300  0.0010 -0.2316 -0.3022
19510W        W35584   8.482   2.694   1.380  0.0589 -0.0820 -0.3991
19511W        W35585   1.332  10.615  12.592 -0.3842  0.1071 -0.1252
19512W        W35586   3.096   9.302   3.446  0.1426 -0.0901  0.1432
19513W        W35587   4.864  17.918  12.597 -0.5227 -0.0463 -0.0511
19514W        W35588  10.675   3.027  10.763  0.3364 -0.1796  0.2975
19515W        W35589  15.615   4.639   2.367  0.1859 -0.0576 -0.2878
19516W        W35590  17.447   0.190   0.038  0.1110 -0.2008 -0.4511
19517W        W35591  15.861   1.999   1.462 -0.1415  0.1876 -0.2587
19518W        W35592  13.304  11.410   1.706 -0.2859 -0.4602 -0.1289
19519W        W35593   9.343  18.630   0.091 -0.1848 -0.1778  0.4623
19520W        W35594  10.470   2.267  14.804  0.2569  0.1581  0.0255
19521W        W35595  11.428  13.525   4.102  0.0251  0.0249  0.0841
19522W        W35596  10.417   8.469   4.600 -0.2731 -0.3606 -0.1189
19523W        W35597   5.427  11.096   4.449  0.1089 -0.2874 -0.0308
19524W        W35598   8.344  12.997   3.810 -0.1442  0.0834  0.2108
19525W        W35599   0.716   7.869  11.323 -0.1939  0.0951 -0.2415
19526W        W35600   0.177   3.925  12.294 -0.0566  0.1610 -0.2279
19527W        W35601  14.410  15.630  14.607 -0.0307  0.1315  0.3158
19528W        W35602   8.171   8.742  14.098 -0.0648  0.0592 -0.1670
19529W        W35603   1.433  12.919  10.894  0.1241 -0.0888 -0.0281
19530W        W35604  10.740   9.717  12.104 -0.1164 -0.1062  0.2559
19531W        W35605  15.402  17.743   2.642 -0.0418 -0.1113  0.0069
19532W        W35606   8.718   8.276  12.200  0.1563  0.1060 -0.2601
19533W        W35607  15.241  11.661   2.347  0.0385  0.1542 -0.0786
19534W        W35608   3.975  14.712  14.767 -0.0208  0.3943 -0.0268
19535W        W35609   9.261   5.996  15.008 -0.1386  0.1366 -0.1596
19536W        W35610  18.696  18.019   0.909 -0.0711 -0.1441  0.0249
19537W        W35611  14.460   4.405   4.379  0.4782  0.2271  0.1202
19538W        W35612   0.729   3.024  11.325  0.2374 -0.0557 -0.1274
19539W        W35613  12.308  17.346   1.129 -0.3129 -0.1369  0.1490
19540W        W35614  15.188  16.585  13.307 -0.3091  0.0753  0.1219
19541W        W35615   4.350   0.962   1.205 -0.0012  0.0933 -0.0808
19542W        W35616  12.783   0.526   2.802 -0.3695  0.1321  0.0558
19543W        W35617   2.489   0.907   3.825  0.2440  0.1502  0.3820
19544W        W35618  16.847  16.412  14.196 -0.2644  0.1683  0.1094
19545W        W35619   5.017   2.794   4.462  0.3099  0.1632  0.3920
19546W        W35620   3.652   1.776  12.363 -0.0235  0.1953 -0.0650
19547W        W35621   2.549   1.418   1.877 -0.0586 -0.0128  0.1442
19548W        W35622   5.233  12.893   5.994  0.1400 -0.1781  0.0272
19549W        W35623  13.767  17.619   1.435  0.0665  0.3608 -0.2553
19550W        W35624   0.060  15.861   3.883 -0.1191 -0.2262 -0.3411
19551W        W35625  11.114   5.130   4.443 -0.2938 -0.1651  0.1110
19552W        W35626  13.419   0.516   9.934 -0.1371 -0.3343 -0.2247
19553W        W35627  13.642   0.476  11.788  0.3593 -0.1251  0.0912
19554W        W35628  10.021   1.968   0.934 -0.2665  0.1862 -0.1513
19555W        W35629   1.870   8.082   2.586  0.0236 -0.1234  0.1721
19556W        W35630  15.060  15.943  12.538 -0.2164  0.1000  0.0072
19557W        W35631   9.747  12.537   4.798  0.1781  0.2770 -0.0345
19558W        W35632  17.699   5.037  14.928 -0.3202 -0.0633  0.4435
19559W        W35633  10.631   2.752  11.744  0.4218 -0.1313 -0.0803
19560W        W35634   6.861   2.154  13.001  0.0016  0.0152 -0.2149
19561W        W35635  14.731   6.292  13.163 -0.0343 -0.2570 -0.2574
19562W        W35636  15.860  12.998   2.224 -0.1670 -0.1501  0.2321
19563W        W35637  18.952   1.280   2.193  0.2929  0.2536  0.4286
19564W        W35638   4.919   0.955   1.346  0.0036  0.0906 -0.1516
19565W        W35639   1.164   4.930  13.367 -0.0961 -0.0506  0.1881
19566W        W35640  17.428  13.690  11.994 -0.0147  0.3631  0.1728
19567W        W35641  15.369  15.571   4.304  0.1213  0.2449 -0.0069
19568W        W35642   5.246   3.463  13.301 -0.2758  0.0230 -0.2217
19569W        W35643  15.829  15.388   4.426  0.0363  0.1561  0.0014
19570W        W35644   9.718   2.468   1.681 -0.0254  0.1071 -0.2193
19571W        W35645  15.147   3.321   1.248  0.1372 -0.1564  0.0746
19572W        W35646  17.882   6.082  12.536 -0.0021  0.2150 -0.1183
19573W        W35647   5.501  11.614   3.174  0.0940 -0.3565 -0.1020
19574W        W35648   5.962   3.255  12.823  0.1888 -0.0669  0.0494
19575W        W35649   4.979   8.984   2.898 -0.0264  0.0898  0.3661
19576W        W35650   7.140  19.285   0.945 -0.1347 -0.1217 -0.2043
19577W        W35651  11.159   7.350   3.216 -0.0845 -0.1841  0.0416
19578W        W35652   1.753   2.032  11.088 -0.1330  0.0970  0.0662
19579W        W35653  16.422   9.111   0.544 -0.1686 -0.2784  0.0418
19580W        W35654  10.904  15.675  10.392 -0.1245  0.0732  0.0462
19581W        W35655  14.985  16.466   1.079 -0.0885  0.0227  0.1270
19582W        W35656   6.499  12.824  11.522 -0.1944 -0.0403  0.0750
19583W        W35657   9.434   6.102   5.603 -0.2375  0.0346 -0.6522
19584W        W35658   0.983   2.048   0.468 -0.1855 -0.0673  0.6049
19585W        W35659   7.651   2.117  12.792  0.2463  0.1190 -0.0001
19586W        W35660   0.501   8.533  13.757  0.1984  0.0021 -0.2510
19587W        W35661  17.085   2.224   0.610  0.0645  0.1952  0.1084
19588W        W35662   4.786   4.239  13.507 -0.1110  0.3793  0.0044
19589W        W35663   7.652  11.935  13.892  0.0972 -0.3236  0.1802
19590W        W35664  18.000  11.313   3.022  0.0562  0.0968  0.0836
19591W        W35665  10.736  15.684   4.013 -0.3626 -0.0550 -0.1243
19592W        W35666   1.059   0.906   0.788  0.4236  0.0668  0.1834
19593W        W35667  12.271   7.499  11.633 -0.0882  0.3414  0.2460
19594W        W35668   3.613  11.175  11.263  0.0940 -0.1826 -0.1406
19595W        W35669   5.878  13.294   3.625 -0.1903  0.0353 -0.0385
19596W        W35670  13.912  15.939  12.539  0.1089  0.2449  0.0763
19597W        W35671  11.518   4.665   1.430  0.0088 -0.0638  0.3417
19598W        W35672   1.740  14.263   4.512 -0.2376  0.1262  0.0993
19599W        W35673   1.626   8.054  14.338  0.0884 -0.3479 -0.1409
19600W        W35674   8.704   0.559  13.732 -0.3647 -0.4824  0.0537
19601W        W35675  10.686  16.769  11.128  0.0476  0.0132  0.0683
19602W        W35676  13.450  15.752   3.062  0.0686 -0.1860  0.0454
19603W        W35677  17.540   5.374  13.678  0.0131 -0.0013 -0.2094
19604W        W35678   6.553   6.475   5.744  0.4697 -0.1846 -0.2491
19605W        W35679   2.643   4.557  14.045  0.0568  0.2527  0.0358
19606W        W35680   8.200  10.103  11.973  0.0862  0.2188 -0.1055
19607W        W35681  10.707   2.409  14.267 -0.0944 -0.3882  0.3886
19608W        W35682   7.250   5.778  10.921 -0.0168 -0.2052  0.2027
19609W        W35683  17.031   4.702   1.661 -0.3442  0.3563  0.1505
19610W        W35684  10.823   5.330   4.794  0.2420 -0.0895  0.2934
19611W        W35685   0.885   7.098   2.244  0.1076 -0.0552  0.2645
19612W        W35686   7.973   3.308  12.537  0.1416  0.1815 -0.1124
19613W        W35687   6.534   3.920   1.394 -0.2356  0.0716  0.3713
19614W        W35688   9.602  17.492   4.905  0.0121  0.2563 -0.1287
19615W        W35689  12.556   6.904   3.759 -0.1825 -0.1853 -0.1638
19616W        W35690   1.527  15.277   1.745 -0.2125  0.3032 -0.1646
19617W        W35691   5.440   0.274   0.665 -0.0303 -0.2048 -0.0386
19618W        W35692  14.631  18.242  12.724  0.1966 -0.1009  0.0592
19619W        W35693   5.557   5.787  14.956  0.1790 -0.2567 -0.1466
19620W        W35694   1.261  14.754   4.952  0.1502 -0.2705  0.2471
19621W        W35695  19.068   2.490   3.895 -0.1190 -0.2117 -0.2199
19622W        W35696   3.208  14.418  11.748 -0.1349 -0.0946 -0.1926
19623W        W35697  16.124  17.470  12.467 -0.2405  0.3005  0.0073
19624W        W35698  18.787   2.120   3.965 -0.0390 -0.1889 -0.0059
19625W        W35699   8.087   2.420  14.361 -0.1622 -0.0962  0.3797
19626W        W35700  16.672  10.747   2.141  0.1382  0.2146 -0.1527
19627W        W35701   7.799   5.569   4.082 -0.0507 -0.0254 -0.1147
19628W        W35702  10.091   0.374  10.235 -0.0202  0.2059  0.1160
19629W        W35703   3.314   6.217   0.689 -0.1512  0.0988  0.1033
19630W        W35704   9.558   8.747   5.006 -0.1430  0.3115 -0.0860
19631W        W35705  18.831   1.990  12.621  0.1618 -0.4677 -0.0560
19632W        W35706   4.843   2.301   4.240  0.1097 -0.1524  0.1973
19633W        W35707   0.534   8.109  13.214 -0.0700 -0.4981  0.1070
19634W        W35708   5.717   6.382  12.508  0.1543  0.1736 -0.1212
19635W        W35709  16.864  13.902  12.174 -0.2916 -0.1780  0.1195
19636W        W35710  17.461   2.337  10.598  0.1261 -0.1273 -0.4859
19637W        W35711   3.410   2.942  11.364 -0.1761 -0.0078  0.0417
19638W        W35712  17.522   0.419  13.634 -0.1461 -0.1452  0.1259
19639W        W35713  18.581   6.399   0.372  0.0462  0.0226 -0.1894
19640W        W35714   2.818   0.347   0.339 -0.1363 -0.1616 -0.2264
19641W        W35715  16.368  18.850   9.835  0.0689  0.0671 -0.0775
19642W        W35716   5.923   6.371  14.017  0.1036 -0.0014  0.1507
19643W        W35717  15.914  14.205  12.289  0.1891 -0.0489  0.0214
19644W        W35718  13.826   9.817   1.683 -0.0518  0.0673  0.0430
19645W        W35719  10.596   7.027   5.552  0.0851  0.0344  0.0101
19646W        W35720  17.863   5.769   4.976 -0.0606 -0.1276 -0.0618
19647W        W35721  11.151   7.386  11.691 -0.1567  0.0541 -0.1919
19648W        W35722  18.622   0.513   2.539 -0.3141 -0.0511  0.1350
19649W        W35723  18.507  15.294   4.271 -0.2015 -0.0983  0.0041
19650W        W35724   0.111   0.615   2.759 -0.2280  0.0801 -0.0245
19651W        W35725  10.933   5.362   5.437 -0.1800 -0.1518 -0.0428
19652W        W35726   5.074   8.190   3.112 -0.2216  0.2504 -0.0069
19653W        W35727  10.466  15.985   2.917 -0.1520  0.0972  0.0907
19654W        W35728  10.434  14.208  11.326 -0.1522 -0.0167  0.4315
19655W        W35729  10.806   2.238  12.995  0.1732 -0.1675  0.1122
19656W        W35730   8.699  14.950  13.945  0.1319 -0.0129 -0.2384
19657W        W35731   7.146   4.542  13.596  0.0907 -0.4592 -0.1509
19658W        W35732   7.522  12.337   1.598 -0.2333  0.3595 -0.1545
19659W        W35733   4.422  13.110   2.505  0.0320  0.1379  0.2744
19660W        W35734  17.290   9.358   2.260 -0.0143  0.0721  0.0794
19661W        W35735   2.040  10.007   0.676 -0.0026 -0.1163  0.1423
19662W        W35736  12.362   7.229   0.287 -0.1200  0.2151 -0.1357
19663W        W35737   3.693  18.285  11.506 -0.0193 -0.2105  0.1511
19664W        W35738  14.894   5.300  12.192 -0.1456  0.0683  0.2183
19665W        W35739   1.574   5.851   4.666 -0.3131 -0.1432  0.2112
19666W        W35740  11.729  14.956   1.929 -0.0251  0.0689 -0.0933
19667W        W35741   0.583   2.519  11.126 -0.1310  0.0839 -0.0617
19668W        W35742  17.810   0.407  11.838 -0.1127 -0.0662 -0.0072
19669W        W35743  18.662  13.103  11.653 -0.1133 -0.2339  0.1260
19670W        W35744  15.000  10.374   1.926  0.0897  0.1405  0.3641
19671W        W35745   0.501  14.337   1.954  0.0623  0.3259  0.0825
19672W        W35746  10.833   5.683   2.958  0.0203 -0.0545  0.5614
19673W        W35747   0.382   6.502  12.836 -0.1618  0.1736 -0.1969
19674W        W35748  14.366  18.631   2.715  0.0750  0.0911 -0.1005
19675W        W35749   5.742  13.567  13.530  0.0247  0.2671 -0.0112
19676W        W35750   1.154  18.308  13.844  0.5073  0.2394  0.0093
19677W        W35751   5.533   6.796   6.201  0.3225  0.3744  0.0030
19678W        W35752   2.261   2.280  12.706  0.0001  0.1062  0.3036
19679W        W35753   4.020   1.874  15.023 -0.1872 -0.0979 -0.0376
19680W        W35754   0.052  14.016  10.952  0.0548  0.0353  0.3917
19681W        W35755  18.939  15.069   1.588  0.1959  0.0864  0.1691
19682W        W35756  10.364   1.016   2.046 -0.0306  0.2520 -0.1547
19683W        W35757   1.333  15.292   0.064 -0.1117 -0.2206  0.1029
19684W        W35758   9.581   6.115   1.288 -0.2084 -0.1229  0.0124
19685W        W35759   4.720  15.651   4.167 -0.1848  0.0187 -0.0462
19686W        W35760  13.011   1.578   3.591  0.1257 -0.3021 -0.2714
19687W        W35761  16.661  17.400  11.908 -0.2861  0.1819 -0.2152
19688W        W35762  14.745   1.174   4.292  0.1824 -0.0459 -0.1396
19689W        W35763  10.337   4.385  10.856  0.0002  0.1780 -0.4926
19690W        W35764   2.562  13.883  11.754  0.0692 -0.2188  0.1734
19691W        W35765  19.258   1.187   4.888 -0.3409  0.0690  0.5139
19692W        W35766   5.305   0.819   0.678 -0.4434 -0.0028 -0.0671
19693W        W35767  16.076  18.796   2.073 -0.1377  0.2122 -0.2735
19694W        W35768   4.795  12.199  14.222 -0.1852 -0.4682 -0.2419
19695W        W35769   2.711  15.207  14.285  0.0131  0.3996  0.0255
19696W        W35770  18.514   6.001   2.433  0.1242 -0.2920 -0.1035
19697W        W35771  15.415  19.029   0.358  0.0680 -0.6158 -0.1048
19698W        W35772   4.088   9.461   2.267  0.0721  0.3000 -0.1709
19699W        W35773  18.831   0.094   3.845  0.0256  0.1966  0.3596
19700W        W35774   7.763  16.979   3.786  0.3473  0.3188  0.1443
19701W        W35775   9.767   5.680  10.617  0.1545 -0.2132  0.1157
19702W        W35776  15.719  15.538   3.389 -0.0281  0.2474  0.1661
19703W        W35777   2.504   0.242  11.656  0.1683 -0.0104 -0.3165
19704W        W35778  19.230  10.093  10.999  0.0062 -0.1845 -0.1270
19705W        W35779  16.828  15.107  10.273  0.1717 -0.0188  0.0009
19706W        W35780   9.817  11.474  12.649  0.1103  0.0704  0.1985
19707W        W35781   6.393   6.279   4.772  0.0931  0.2368 -0.0768
19708W        W35782   9.591   6.624   1.047  0.3518  0.0490 -0.1007
19709W        W35783   9.490  16.981   2.500 -0.1580  0.0199 -0.0117
19710W        W35784  16.963   9.634  13.015 -0.0667 -0.6051 -0.1222
19711W        W35785  16.508   0.494  10.822 -0.4215 -0.5493 -0.0669
19712W        W35786   0.614  18.763  13.976  0.2538  0.0069  0.2430
19713W        W35787  17.117  16.562  10.870  0.0240 -0.2626  0.0337
19714W        W35788  16.421  16.990  13.245 -0.1399 -0.0763 -0.2645
19715W        W35789   2.960   4.016  12.554  0.1229 -0.1157  0.1997
19716W        W35790   4.848   7.339  12.454 -0.0871 -0.0085  0.4152
19717W        W35791   6.119  13.267   5.200  0.0751 -0.0574 -0.0140
19718W        W35792   8.496   0.862  11.932 -0.1277  0.3463  0.1049
19719W        W35793  11.736   4.725   0.983  0.3555  0.0423  0.0398
19720W        W35794   9.796   1.690   5.049  0.3821  0.1492  0.3670
19721W        W35795  17.160   0.113  13.777 -0.0249  0.1047  0.3731
19722W        W35796   6.883  11.858   0.798  0.2387  0.4120 -0.3714
19723W        W35797  12.045   0.926  12.661 -0.1138  0.0096 -0.0188
19724W        W35798   7.135   5.766  15.037 -0.2197  0.2535  0.1059
19725W        W35799   6.889  14.609   5.016 -0.1024 -0.1543 -0.1240
19726W        W35800   9.642  15.531  12.847 -0.0727  0.0745  0.0830
19727W        W35801   5.999   8.369   1.914 -0.1666 -0.2313 -0.1314
19728W        W35802   1.247   5.416   0.120  0.0122  0.0069 -0.0257
19729W        W35803  12.114   1.343  13.424  0.0848  0.2398 -0.1760
19730W        W35804  16.061  11.556   2.742 -0.0738 -0.1251 -0.1222
19731W        W35805  15.533   4.784   3.371  0.2301  0.0447 -0.0819
19732W        W35806  18.260  10.103   2.397  0.1200 -0.1669  0.1400
19733W        W35807   1.199   0.728  10.847  0.2053  0.1554 -0.0689
19734W        W35808   8.508  14.551   4.085 -0.1271 -0.0367  0.0061
19735W        W35809  12.055   2.198   2.832  0.1202  0.1009 -0.2175
19736W        W35810  12.139   1.211  11.225 -0.2632  0.3498 -0.0846
19737W        W35811   0.738   0.734  14.862 -0.0108 -0.0093 -0.1337
19738W        W35812  13.290  14.646  12.725  0.1725 -0.3000  0.3238
19739W        W35813  14.028   7.311   0.627  0.0201 -0.2883 -0.3251
19740W        W35814  14.870  16.904   2.701 -0.2070 -0.1181 -0.0808
19741W        W35815  15.330  15.738   9.880  0.2283 -0.1154  0.1572
19742W        W35816   9.907  17.158   1.278 -0.2443 -0.1292 -0.1680
19743W        W35817   5.188  18.826   3.378  0.0079 -0.1795  0.0223
19744W        W35818   6.434   8.870   1.016 -0.0905 -0.1347  0.0937
19745W        W35819   7.139   7.546  13.582 -0.1543  0.6595  0.1804
19746W        W35820   5.110   6.623  11.774 -0.1008 -0.3750 -0.1191
19747W        W35821  18.330   7.560   2.956 -0.1813 -0.1057 -0.2697
19748W        W35822  17.441  13.332  14.110  0.4379  0.0273  0.0758
19749W        W35823   3.737  11.832  11.733 -0.0782 -0.0373 -0.0619
19750W        W35824  13.175  13.795   4.688 -0.0417  0.1250 -0.1457
19751W        W35825   5.391   9.907  13.205  0.0341  0.1857  0.0472
19752W        W35826   0.541  10.029   2.557  0.0038  0.0507 -0.0964
19753W        W35827   3.728   0.938   1.072  0.3170  0.2154 -0.1545
19754W        W35828  13.036   4.572   1.694 -0.2701  0.1865 -0.1596
19755W        W35829  15.179  17.430  12.684 -0.1923 -0.0598 -0.1705
19756W        W35830  15.307   9.586  14.771  0.0785  0.0797  0.2794
19757W        W35831   7.699  10.536  12.827  0.1671 -0.0946 -0.0345
19758W        W35832  13.817   4.854  14.662  0.1032 -0.2819  0.1410
19759W        W35833  10.364  15.318  13.361  0.1930 -0.0628  0.4415
19760W        W35834   0.882  18.745   0.584  0.3732 -0.2642 -0.0272
19761W        W35835   4.968  11.473  10.656  0.1052  0.1738  0.0079
19762W        W35836  10.720  12.894   0.230 -0.1321  0.1394 -0.1692
19763W        W35837  11.993  13.928  13.945 -0.0619 -0.2321 -0.2827
19764W        W35838   4.247   4.535  11.852  0.1099 -0.0086  0.3947
19765W        W35839   6.546  16.218   2.398 -0.0388  0.0813 -0.1846
19766W        W35840  13.703   1.601   2.482  0.0050  0.1308  0.0351
19767W        W35841  13.144   8.630   0.481  0.0915 -0.2353  0.0806
19768W        W35842  11.058   6.091   4.783  0.0499  0.1905  0.0729
19769W        W35843  12.710   8.648  12.480 -0.0307 -0.0380  0.2609
19770W        W35844   8.962   6.935  12.578 -0.2959 -0.0012 -0.2382
19771W        W35845  15.607  13.487   1.287 -0.1969 -0.1686  0.0518
19772W        W35846  14.279   0.628  14.067 -0.4447  0.0587  0.0939
19773W        W35847   9.741  13.557   1.990  0.0237  0.1003  0.0083
19774W        W35848  14.253  18.342   2.338 -0.1478  0.3747  0.1345
19775W        W35849   3.336   3.145   2.939 -0.0702  0.1228 -0.2313
19776W        W35850  17.849   6.376   6.168 -0.0449  0.2390  0.0087
19777W        W35851  12.903   0.002  11.430 -0.1253 -0.1120  0.1969
19778W        W35852  18.536   7.947   3.197 -0.2559 -0.1971 -0.1021
19779W        W35853  10.169   5.611   1.792 -0.3813  0.4285  0.0366
19780W        W35854  17.044  13.051   3.029  0.0500  0.1968  0.0409
19781W        W35855  13.698   0.197   4.108 -0.1602 -0.1993 -0.0317
19782W        W35856  13.836  13.363  14.413  0.1336 -0.3130  0.1339
19783W        W35857  18.469   6.933   2.350  0.1762 -0.0310 -0.4112
19784W        W35858   6.708  11.445  14.339  0.3781 -0.3290 -0.2107
19785W        W35859   3.951  14.853  12.798  0.2178  0.3021 -0.2174
19786W        W35860   4.694   4.678   4.710  0.1084  0.3247  0.0543
19787W        W35861  16.857   8.061   3.283  0.0510  0.0300 -0.3572
19788W        W35862   5.144   8.547  11.443 -0.0040 -0.0471 -0.0515
19789W        W35863   9.093   5.228   3.306 -0.3806  0.0363 -0.3062
19790W        W35864   0.868  19.223  12.174  0.2604  0.1394 -0.0446
19791W        W35865   9.769   0.675  10.512  0.0753  0.2298  0.2079
19792W        W35866  14.886  16.675   0.413  0.1640  0.0440  0.1675
19793W        W35867   1.138  14.197  13.395  0.3410  0.0054  0.0487
19794W        W35868  18.590  18.198   4.405 -0.0188 -0.1097  0.1524
19795W        W35869   1.518  16.906  12.584 -0.0760  0.1094  0.0433
19796W        W35870  16.157   8.209  14.365  0.2233  0.2505 -0.0322
19797W        W35871  16.208   6.219  13.606 -0.1565 -0.0801 -0.0240
19798W        W35872   1.501  12.018   4.301  0.2064 -0.0033 -0.1467
19799W        W35873   4.333  13.591   2.774  0.2597  0.0451  0.0154
19800W        W35874  14.180   4.575  11.909 -0.0300  0.2705  0.0686
19801W        W35875  17.981   0.588  13.449  0.1319 -0.5660  0.1379
19802W        W35876  19.078  15.917  12.506 -0.1270  0.2183  0.2394
19803W        W35877  17.051  12.917   0.817 -0.1523 -0.0612 -0.1882
19804W        W35878   7.313   2.433   4.009 -0.1981  0.0886 -0.1393
19805W        W35879   8.749  10.554  12.983 -0.2105 -0.4506 -0.2034
19806W        W35880  15.911  13.694  11.965  0.1042  0.6520  0.0201
19807W        W35881   4.795  16.934   0.029  0.3457  0.0268 -0.1154
19808W        W35882  17.673   2.596   5.448  0.2021  0.1610  0.1939
19809W        W35883   8.338  19.042   3.335  0.2011  0.1150 -0.1181
19810W        W35884   6.913  16.467   4.317 -0.0612 -0.1756  0.0060
19811W        W35885   0.769  18.682  12.028  0.0498 -0.0253  0.1135
19812W        W35886  10.484   8.509  12.632  0.3519 -0.6688  0.0167
19813W        W35887  19.246  16.220   4.514  0.4054 -0.4072  0.1698
19814W        W35888   4.421   9.925  14.065  0.1399  0.3345  0.0076
19815W        W35889   1.477  16.423  14.604  0.1087  0.0688  0.0320
19816W        W35890   7.717  16.075   0.111  0.2993  0.4692 -0.3244
19817W        W35891   4.496  19.107   0.317  0.0823  0.0970 -0.2955
19818W        W35892  17.860  15.741   1.762  0.0894  0.0179  0.0954
19819W        W35893  11.712   7.531  14.193  0.0698 -0.0685  0.0570
19820W        W35894  12.176   9.726   3.270  0.3081 -0.3877 -0.3328
19821W        W35895   8.543  15.415   9.572  0.3427 -0.0362 -0.3076
19822W        W35896   9.516   3.793   4.481  0.1742  0.2610  0.2220
19823W        W35897   9.983  15.935  12.786 -0.1640 -0.1354 -0.1164
19824W        W35898  18.851   5.177   3.865 -0.0460  0.4256  0.2161
19825W        W35899   2.137   2.643  13.916 -0.0646 -0.2422 -0.0913
19826W        W35900   0.139  11.314   3.045 -0.3104 -0.2266 -0.3639
19827W        W35901  18.095   7.947  11.237  0.1016 -0.0323 -0.3173
19828W        W35902   1.848  17.452   1.771 -0.0443 -0.1889  0.0968
19829W        W35903   2.959   3.581   4.222  0.1522  0.0133 -0.1265
19830W        W35904   6.046   9.183  14.188 -0.0425 -0.0617 -0.4279
19831W        W35905  15.756  11.112  12.945 -0.2038  0.1875 -0.0198
19832W        W35906  13.907  19.159  13.381 -0.0907  0.0963 -0.0558
19833W        W35907   3.619  10.416   3.610  0.1283  0.0780  0.0787
19834W        W35908  19.201  18.467   3.884  0.1380 -0.3252 -0.3136
19835W        W35909  18.765  12.279   1.093 -0.0799  0.2444  0.2158
19836W        W35910  12.336   9.596   3.777  0.2282 -0.2254 -0.0036
19837W        W35911   3.624  14.420   3.146 -0.1339  0.0180  0.2387
19838W        W35912  13.330   6.072  11.595 -0.0146  0.2827 -0.2474
19839W        W35913  11.348   9.135   1.036 -0.0936  0.6791 -0.0928
19840W        W35914  16.415  12.302  10.426  0.0310  0.0229  0.1249
19841W        W35915   3.526  17.184  12.785 -0.1466 -0.2058 -0.0251
19842W        W35916   8.643   7.623  13.456  0.2128 -0.1473  0.1303
19843W        W35917   0.133  13.828   4.280  0.3254 -0.1776 -0.1466
19844W        W35918  17.063  16.323  13.146 -0.0468 -0.3450  0.2114
19845W        W35919   4.171   0.580  12.200  0.1011  0.1173 -0.0545
19846W        W35920   7.139  18.697  14.089  0.2909 -0.1264 -0.3242
19847W        W35921   7.384   4.770  14.911  0.1882 -0.0881  0.2420
19848W        W35922   3.080  13.014   1.870 -0.1205  0.0214  0.0116
19849W        W35923  11.569  18.193  12.583  0.0718 -0.0010 -0.0070
19850W        W35924  15.163  15.595   3.775  0.0314 -0.0558 -0.0452
19851W        W35925   5.515   1.816   5.562 -0.2910  0.2032 -0.0516
19852W        W35926   1.590  11.067  15.057 -0.2874  0.1938 -0.4293
19853W        W35927   6.808   4.965   5.250  0.3462 -0.0164  0.0501
19854W        W35928  16.938   6.200   3.550 -0.0386  0.0039 -0.1930
19855W        W35929  17.267  18.570   1.384  0.0963  0.0006 -0.0725
19856W        W35930   6.730   3.628   2.689 -0.1063 -0.1922  0.3625
19857W        W35931   1.910   3.054  14.208  0.1906 -0.0261  0.3127
19858W        W35932   2.229  11.685   4.814  0.1888 -0.0819 -0.1742
19859W        W35933   7.062  11.911   0.306 -0.4891 -0.0749  0.0457
19860W        W35934   0.628  12.851  12.048  0.4100  0.0521 -0.0044
19861W        W35935   7.041   4.085  13.344  0.1629  0.0642 -0.1967
19862W        W35936  19.021   0.524   1.683  0.5963  0.0363  0.1888
19863W        W35937  13.439  18.224  14.722  0.1340  0.0665 -0.3353
19864W        W35938  16.879   5.925  14.120  0.1960  0.0912  0.1771
19865W        W35939  14.160  10.562   3.577 -0.0947 -0.0515 -0.4030
19866W        W35940   8.852  18.399  11.861 -0.1973  0.1301 -0.1511
19867W        W35941  13.323   7.879   2.049  0.0851 -0.1403  0.0842
19868W        W35942  17.038   0.624  14.378  0.0814 -0.1941  0.1637
19869W        W35943  14.760  15.219  14.699 -0.0061  0.1382  0.0915
19870W        W35944   6.711   3.451  15.045  0.1304 -0.2154  0.1160
19871W        W35945   5.785   8.745   4.024  0.0018 -0.1982 -0.2945
19872W        W35946   7.724  15.678  11.789  0.0721 -0.1799  0.1879
19873W        W35947  12.939   0.760   0.190 -0.2620 -0.1245  0.0587
19874W        W35948  12.471  15.782  14.986 -0.2270 -0.5360 -0.2809
19875W        W35949  14.206   7.116   1.517  0.2959 -0.4105 -0.2615
19876W        W35950   4.027  11.647   1.353 -0.1130 -0.0363  0.2506
19877W        W35951  12.267  10.227  11.073 -0.0586  0.1154 -0.3971
19878W        W35952  16.919  16.032  12.605  0.0734  0.1630  0.0057
19879W        W35953  19.013   0.075   1.433  0.0090 -0.0377 -0.0916
19880W        W35954  13.068   0.618   3.649  0.1567 -0.0726 -0.1264
19881W        W35955   4.246   9.238  11.777 -0.5269 -0.2237 -0.0069
19882W        W35956   5.356   7.300  12.659 -0.0904  0.1358  0.1664
19883W        W35957  15.307  10.670   1.608  0.1593  0.4674 -0.2255
19884W        W35958   2.939   2.542  14.207  0.3019  0.3574  0.1548
19885W        W35959  15.313  17.228  14.766  0.0270 -0.1797  0.3128
19886W        W35960  18.109  12.183  14.024  0.1256  0.0275  0.1943
19887W        W35961   3.590   2.498  12.540  0.0044  0.0648 -0.0805
19888W        W35962  10.262   4.106   0.931  0.0960  0.1216 -0.0578
19889W        W35963  11.588  11.030  11.768  0.1651 -0.2919  0.0063
19890W        W35964   0.162   2.803   3.225 -0.1831 -0.2249 -0.1401
19891W        W35965  16.854   8.017   4.757 -0.2147  0.0549 -0.0653
19892W        W35966   0.542   6.856  12.554 -0.2454  0.0375  0.1302
19893W        W35967  14.451  18.784   0.997  0.4106 -0.4233 -0.1381
19894W        W35968   6.127   4.400  12.064  0.0132 -0.0630  0.0990
19895W        W35969   8.011   4.958   1.934  0.0956  0.1545 -0.0054
19896W        W35970  18.764   1.784   2.460  0.1915  0.0610 -0.0215
19897W        W35971   6.316  12.610  13.784  0.1768  0.0765 -0.0703
19898W        W35972   2.687   5.755   3.154 -0.1973 -0.0053  0.2341
19899W        W35973  12.559  13.960   1.915 -0.2694 -0.1053  0.2696
19900W        W35974  16.135   8.023  12.453  0.0949 -0.0190  0.2444
19901W        W35975  12.150   7.659   4.310  0.0367 -0.1265  0.2241
19902W        W35976  12.040  16.214  12.831 -0.1758 -0.2175  0.2751
19903W        W35977   3.090   7.183  11.115 -0.1578 -0.2095  0.3070
19904W        W35978  13.401   8.332   1.576 -0.3231  0.0882  0.1567
19905W        W35979   6.000  16.218   1.806  0.0146 -0.2568 -0.1383
19906W        W35980   6.898   4.593  10.633 -0.2026 -0.0720 -0.0157
19907W        W35981   0.159   0.215  13.781  0.2601  0.0898  0.1379
19908W        W35982   1.635  12.608   0.247  0.2037 -0.3353 -0.1176
19909W        W35983  15.041   6.714   0.864  0.2377 -0.0004 -0.0772
19910W        W35984   4.614   2.043   5.375 -0.1375 -0.1161  0.1225
19911W        W35985   6.715   7.750   2.844  0.0912  0.1763 -0.2421
19912W        W35986   4.871   3.568   3.767  0.0025 -0.3111 -0.0637
19913W        W35987   7.581   9.534  12.482 -0.0304  0.1477  0.3197
19914W        W35988  12.543  14.017  12.087 -0.0664  0.2130  0.0972
19915W        W35989   9.848   5.553  11.098  0.0173 -0.1561  0.1007
19916W        W35990   4.206  18.974  11.243 -0.2436 -0.3005  0.3759
19917W        W35991  13.515   1.376   2.081  0.0063  0.0525 -0.0192
19918W        W35992  18.381  14.084   2.000 -0.1395 -0.0438  0.2915
19919W        W35993  15.286   5.504  14.893  0.0136  0.1478  0.1569
19920W        W35994  13.076  17.703   2.631  0.2631  0.0192  0.2018
19921W        W35995  19.251  13.087  14.861 -0.1009  0.3708  0.0368
19922W        W35996   0.632  15.686   5.005 -0.0531  0.0374 -0.2795
19923W        W35997   8.997  15.380   4.911 -0.4320  0.0235  0.1856
19924W        W35998  15.414   0.542   2.001 -0.0114  0.3173 -0.0031
19925W        W35999  14.424   1.965   3.912  0.1831  0.1111 -0.5333
19926W        W36000  14.263   2.405  14.720  0.2360  0.1370  0.1244
19927W        W36001  18.498   7.171   5.634 -0.0634 -0.3358  0.2569
19928W        W36002   4.697   1.338   1.071  0.1008 -0.0581 -0.0988
19929W        W36003  15.863   1.727  11.179  0.2096  0.2235 -0.1424
19930W        W36004   6.930   0.723  13.089 -0.4236 -0.4304 -0.0136
19931W        W36005  15.273  12.713   0.960  0.1281  0.1273  0.1586
19932W        W36006   5.625  17.952  11.316  0.4152 -0.0260  0.3101
19933W        W36007  10.894  10.708  14.285  0.0564 -0.2814  0.3861
19934W        W36008  13.462  15.555  11.446 -0.1820  0.4514 -0.2222
19935W        W36009   9.076  13.393  14.509  0.2123  0.2403  0.0287
19936W        W36010   5.069  18.568   1.436  0.6738  0.2303 -0.0236
19937W        W36011   5.285   9.429   4.889  0.3928  0.2092 -0.1576
19938W        W36012  18.568  13.723   1.648  0.0952  0.0377  0.2958
19939W        W36013  15.373  11.250   1.602 -0.0723 -0.0350  0.1467
19940W        W36014  13.439   0.332   0.197 -0.1595  0.0498 -0.1975
19941W        W36015   4.862  17.106   0.887 -0.1761 -0.0815 -0.0928
19942W        W36016  19.050  10.537   3.402 -0.0426  0.0515  0.0241
19943W        W36017   9.863  18.741  11.449 -0.0350 -0.0542 -0.0239
19944W        W36018   8.398  16.934   0.012 -0.0260  0.2708  0.0806
19945W        W36019   4.432   0.753  11.719  0.1814  0.2084 -0.0188
19946W        W36020  17.059  11.768   3.654  0.4037  0.2285 -0.1529
19947W        W36021   9.685   7.253   2.355 -0.3703 -0.0701  0.0365
19948W        W36022   5.758   0.170   0.241 -0.1233  0.1180 -0.1691
19949W        W36023   4.078  14.122  13.976  0.1996  0.0920  0.1618
19950W        W36024  12.261   3.185   2.959 -0.1372 -0.1878  0.2766
19951W        W36025  10.816   0.393   5.592  0.2105 -0.1285  0.0576
19952W        W36026  16.959   7.351  14.851 -0.0672 -0.0910 -0.3189
19953W        W36027   0.255   2.899  10.999 -0.0517 -0.4545 -0.0587
19954W        W36028  16.064   1.890  15.031  0.3002 -0.3176 -0.1877
19955W        W36029   6.118   4.454   2.847  0.1228  0.1586  0.0031
19956W        W36030   5.389   8.336   2.170 -0.0811  0.1527  0.2254
19957W        W36031  18.879   6.354  13.726  0.2545 -0.2852  0.2116
19958W        W36032   6.514  16.271  11.659 -0.2616 -0.0141 -0.0534
19959W        W36033   3.141   2.137  11.526 -0.3035  0.2939 -0.1458
19960W        W36034  11.722   0.151  11.708 -0.0674  0.2174  0.1783
19961W        W36035  14.264   7.897  10.702 -0.1807 -0.1358 -0.0723
19962W        W36036   6.196   7.903   0.220  0.2412 -0.2831 -0.0922
19963W        W36037   5.036  15.350  11.939 -0.0997 -0.0832  0.2085
19964W        W36038  10.115   2.193   3.035  0.0329 -0.0963 -0.0076
19965W        W36039   2.565  16.313  13.040  0.0784 -0.2823 -0.1211
19966W        W36040   1.687   2.446   5.066 -0.1589  0.0528 -0.1890
19967W        W36041  12.347   8.322   2.511 -0.0580 -0.0478 -0.2953
19968W        W36042   4.540  18.701   0.018 -0.4240  0.0016  0.3651
19969W        W36043  15.094   2.070  12.421  0.2105  0.0139 -0.0445
19970W        W36044   5.461  13.577   1.235 -0.0588  0.2966 -0.3978
19971W        W36045   8.128   0.013   3.738 -0.0458  0.3659  0.0564
19972W        W36046  11.657  13.449  10.789  0.1871 -0.2675 -0.0036
19973W        W36047  16.818  12.615   3.230  0.0430 -0.0951  0.2281
19974W        W36048  17.002   4.944   0.397 -0.0639 -0.0590  0.3348
19975W        W36049   5.376  12.288   3.738  0.1292  0.1684  0.0346
19976W        W36050   7.186  15.930   0.124 -0.0637 -0.0216  0.1356
19977W        W36051  11.402  15.286  13.646  0.0142  0.2871 -0.4108
19978W        W36052  13.283   4.223   0.455 -0.2465  0.2895  0.0826
19979W        W36053  13.894  16.968   3.607 -0.3053 -0.1622 -0.0091
19980W        W36054  12.546   4.705   3.313 -0.1438  0.1188 -0.0481
19981W        W36055   5.362   5.112   1.327 -0.3379 -0.2415 -0.1240
19982W        W36056   9.516  11.267  11.310 -0.2539 -0.2008  0.2658
19983W        W36057   1.332  16.197   1.375  0.0932 -0.1550  0.1158
19984W        W36058   6.597   4.980  10.776  0.1180  0.0705 -0.2008
19985W        W36059   3.971  16.187   0.773  0.0438  0.0615 -0.2079
19986W        W36060   4.752  14.362  12.727  0.0368  0.1440  0.0874
19987W        W36061  18.130   0.253   1.870 -0.0039  0.0388 -0.0169
19988W        W36062   0.904  16.227   2.963  0.0260  0.0174 -0.1064
19989W        W36063   8.344   1.026   0.400 -0.1013  0.2522  0.3784
19990W        W36064   3.537   0.944  13.282 -0.1147  0.0293  0.1926
19991W        W36065   6.256  12.670  10.651  0.1223 -0.2299  0.0256
19992W        W36066   3.941  12.850   2.592  0.3889  0.2184 -0.1274
19993W        W36067  17.527  15.092   4.478  0.3103 -0.1928 -0.4325
19994W        W36068   8.431  12.076  13.597  0.1066  0.2969  0.3957
19995W        W36069  16.365  18.893  11.011 -0.0502 -0.0569  0.2576
19996W        W36070  12.377   4.194   1.109  0.0174 -0.3596  0.2470
19997W        W36071   5.386  16.477  14.847 -0.0824  0.0248  0.1491
19998W        W36072   7.971  14.209   3.146  0.1468  0.0327  0.0467
19999W        W36073  13.629   1.850   2.060 -0.1012 -0.1300  0.4894
20000W        W36074  16.554  13.623   0.395 -0.0684  0.0378  0.1189
20001W        W36075  11.200   6.897  11.465 -0.0430  0.2779  0.2365
20002W        W36076   4.852   7.915   0.382  0.1177  0.0350 -0.0040
20003W        W36077   5.097  15.348   3.500  0.1712  0.1455 -0.0057
20004W        W36078  11.513  17.671   5.213 -0.0994 -0.1181  0.1488
20005W        W36079  17.219  18.626   4.493 -0.0502  0.0685 -0.1719
20006W        W36080  11.818   7.235   1.508  0.0319  0.0654  0.1573
20007W        W36081   4.489   0.666   1.560 -0.0937 -0.0855  0.1817
20008W        W36082   6.479   9.777   0.594  0.3122  0.0015  0.0843
20009W        W36083   7.528  15.084  12.502  0.0984  0.1563 -0.0847
20010W        W36084  15.495  16.088  12.333 -0.3664 -0.0214 -0.3271
20011W        W36085   5.673  13.398   4.864  0.2240  0.0589 -0.0697
20012W        W36086   2.420   2.528   5.444 -0.2472 -0.1304 -0.1469
20013W        W36087  10.234  10.586   5.719  0.0077  0.0882  0.1425
20014W        W36088   3.103  18.198  10.517 -0.0284 -0.1143 -0.0855
20015W        W36089   6.287   6.738  12.856  0.0407 -0.0774 -0.0460
20016W        W36090  11.089   7.921   2.964  0.2281 -0.2198  0.2484
20017W        W36091  17.548  13.768  14.391 -0.1001  0.1163  0.0092
20018W        W36092  11.219   2.340  14.048  0.3651 -0.0652  0.0865
20019W        W36093   3.917   0.746  14.049  0.1617  0.0894 -0.2126
20020W        W36094   7.234   0.435  10.567  0.0467  0.0070  0.1058
20021W        W36095  13.089  12.017   2.948  0.0251 -0.0185  0.0933
20022W        W36096  13.334  11.006   3.972  0.0018 -0.3370 -0.1016
20023W        W36097  17.513  17.391   3.910 -0.0150 -0.1103 -0.0508
20024W        W36098  11.071   7.385   1.805 -0.0399 -0.3446  0.1732
20025W        W36099  17.261   1.885  11.961 -0.0364  0.3262  0.1018
20026W        W36100   0.008   1.307   3.975 -0.2470  0.2700 -0.1709
20027W        W36101   4.936  18.499  13.395  0.1136 -0.2427  0.2635
20028W        W36102  16.101   6.670  11.603  0.0723 -0.0601 -0.0854
20029W        W36103  16.721  10.898  10.472 -0.0253 -0.1449 -0.0445
20030W        W36104  12.398   9.622   1.286  0.0695  0.2173 -0.0857
20031W        W36105  13.067   8.618  14.686 -0.0538  0.1029  0.0122
20032W        W36106   9.263  14.673  10.767 -0.1197  0.0704 -0.0824
20033W        W36107  10.777  12.469   4.306  0.1206 -0.0056  0.0324
20034W        W36108  10.503  13.889   5.095 -0.0675  0.0121  0.0570
20035W        W36109   9.131   2.850   3.148  0.0142  0.3213  0.0058
20036W        W36110  15.212  15.913  11.561  0.0847 -0.2046  0.1960
20037W        W36111   0.905   3.328  12.737 -0.1808 -0.1543 -0.0465
20038W        W36112  14.839   4.854   4.735  0.0453 -0.2741  0.0801
20039W        W36113   4.006   1.542   4.792  0.0892 -0.0050  0.0062
20040W        W36114   0.266  15.553   4.656  0.0016 -0.2684  0.0133
20041W        W36115  17.135   0.987   3.609 -0.3304  0.0244  0.3395
20042W        W36116   1.056  11.389   0.782 -0.3550 -0.3095 -0.1235
20043W        W36117   6.871  15.810  12.175 -0.1433 -0.3879 -0.1862
20044W        W36118   4.228   8.276   3.838  0.1501  0.0174 -0.2411
20045W        W36119  11.818  17.096  12.610 -0.1785 -0.1279  0.0103
20046W        W36120  10.326  16.121   2.111  0.0317 -0.2131 -0.1618
20047W        W36121   4.442  13.154   4.688 -0.1832 -0.4489  0.3838
20048W        W36122   3.355  11.645  14.337 -0.0497  0.0561 -0.0771
20049W        W36123   2.798   7.543   1.390 -0.1145  0.0081 -0.2660
20050W        W36124  12.609   8.324   4.722  0.0701 -0.5995 -0.1233
20051W        W36125   1.364  11.072   2.814  0.0341 -0.1538 -0.2065
20052W        W36126   9.449  11.485  11.842  0.1561  0.3119  0.0845
20053W        W36127   8.937  17.870   3.571 -0.0527  0.0190 -0.2062
20054W        W36128  11.838  11.433  12.693 -0.0205 -0.0005  0.3088
20055W        W36129  10.597  15.441  13.953  0.2346 -0.2648  0.4390
20056W        W36130  14.439   8.963   0.593  0.2532 -0.0134  0.2035
20057W        W36131  18.505   1.543  13.447 -0.1687 -0.5163 -0.2468
20058W        W36132  10.306   9.526  14.361 -0.1308  0.1131 -0.1231
20059W        W36133   0.892  16.631  11.807 -0.1360  0.0225 -0.2195
20060W        W36134  10.285  16.828  10.482 -0.1917 -0.0107  0.0692
20061W        W36135   9.630  10.944  12.816  0.0509  0.1739  0.0511
20062W        W36136   7.523   7.570  14.018 -0.4490 -0.0974 -0.1112
20063W        W36137   0.196  13.485   1.637 -0.0438  0.1140  0.1755
20064W        W36138   7.121   9.450  11.640 -0.0210  0.2125 -0.0898
20065W        W36139   3.366   7.114   4.290 -0.1270  0.3347 -0.2559
20066W        W36140   2.511  12.951   4.361 -0.1326  0.0751 -0.0480
20067W        W36141   7.929   2.047   0.242 -0.2143 -0.2531  0.1747
20068W        W36142   8.189  13.851   1.751  0.1119 -0.0705 -0.0732
20069W        W36143   6.039  14.916   0.856  0.0896  0.2966 -0.2985
20070W        W36144   3.533  13.124  11.967 -0.0066  0.2572 -0.4247
20071W        W36145   6.217  16.764   2.551 -0.1298  0.1215  0.1110
20072W        W36146  18.691   0.076   3.290 -0.3205  0.3538 -0.3480
20073W        W36147  12.685   2.315  10.667 -0.0858 -0.3922 -0.1119
20074W        W36148  13.681   2.316  13.261 -0.1305  0.0309 -0.1899
20075W        W36149   7.577  16.962  14.878  0.2134  0.0390 -0.4584
20076W        W36150  13.441   5.081  12.818  0.0980 -0.2872 -0.0762
20077W        W36151   6.330   7.163  14.548  0.2213 -0.1304  0.0983
20078W        W36152   3.228  15.789  14.721  0.0267  0.0112  0.2683
20079W        W36153  13.841  18.500   3.790 -0.1496 -0.0454 -0.2346
20080W        W36154   6.154  13.035  14.125 -0.0096 -0.1267 -0.1107
20081W        W36155   7.212  18.244   0.299  0.0272  0.1556 -0.2013
20082W        W36156   8.326   1.630  11.588  0.1645  0.4472 -0.1488
20083W        W36157   2.945  12.775  12.693 -0.3181  0.1493 -0.0604
20084W        W36158   3.639   5.913   4.758 -0.1403  0.0530  0.2787
20085W        W36159   2.282   7.072  11.827 -0.0258  0.0768  0.0682
20086W        W36160  17.095   8.115   1.879 -0.1579  0.3286 -0.0327
20087W        W36161  14.841  17.401  14.661 -0.0872 -0.2038 -0.0388
20088W        W36162   3.173   0.036   0.241  0.0817 -0.4846 -0.0971
20089W        W36163  13.440  17.376  12.961  0.1202 -0.0105  0.0646
20090W        W36164  14.778   5.255  14.988 -0.1456  0.0441  0.3271
20091W        W36165   3.135  12.826   3.845  0.1276 -0.1762 -0.3633
20092W        W36166  14.181  15.149   2.138  0.1779 -0.0362  0.2220
20093W        W36167  15.040   2.181  13.150  0.0706 -0.1785  0.1245
20094W        W36168   2.782   6.540   4.345  0.2802 -0.1210 -0.1056
20095W        W36169   5.197  14.186   2.411  0.1171 -0.2368 -0.2279
20096W        W36170   8.236   0.248  13.190  0.0885  0.0943 -0.1347
20097W        W36171  14.545  16.553  13.438  0.4448  0.1637 -0.0603
20098W        W36172  13.683  13.038   9.844  0.0322 -0.1055  0.1501
20099W        W36173   8.460  11.575  13.562 -0.0428 -0.1050 -0.0005
20100W        W36174  13.664   0.581   4.488  0.0472  0.1176  0.2753
20101W        W36175  17.705   0.122   1.127 -0.0747 -0.1909 -0.0182
20102W        W36176   1.181   3.507  13.667 -0.0658  0.0708  0.2103
20103W        W36177   7.255   7.955   5.764 -0.0110  0.0588  0.0117
20104W        W36178   9.882  13.676  14.270 -0.2223  0.0668 -0.0722
20105W        W36179  11.830  16.023  10.195 -0.1668 -0.0070 -0.1508
20106W        W36180   9.708  11.761  13.851  0.0564  0.1028  0.1962
20107W        W36181   0.158   1.266  13.764  0.1346 -0.0320 -0.1024
20108W        W36182   4.706  11.311  14.124 -0.1429  0.0614 -0.1222
20109W        W36183   0.640  10.339   3.963  0.0952  0.1288  0.0036
20110W        W36184   5.319   9.795   3.997  0.1175  0.3513  0.2785
20111W        W36185   0.394  12.446   4.532  0.3751 -0.0718  0.2252
20112W        W36186  17.736  15.632  13.074  0.1671  0.0318 -0.4084
20113W        W36187  16.418  15.395   8.932  0.0856 -0.2779 -0.1514
20114W        W36188  17.212   5.108  13.950  0.2460  0.0519  0.0064
20115W        W36189   7.746   7.606  11.905  0.1985  0.2418  0.0675
20116W        W36190  16.754  18.037  10.445 -0.0311  0.3160 -0.2388
20117W        W36191   2.026   2.641   4.288 -0.0270 -0.2015 -0.5038
20118W        W36192  11.442   3.878   4.306  0.0003  0.2186 -0.3071
20119W        W36193  12.855   8.984   0.752 -0.0209 -0.2210  0.2227
20120W        W36194   0.221   0.903  11.062  0.0289 -0.0082  0.1615
20121W        W36195   3.328   0.571  12.474 -0.4255  0.0682 -0.0282
20122W        W36196  11.502  17.183   3.030 -0.1544  0.2073  0.1467
20123W        W36197  14.802   3.955   4.714  0.1571  0.2179  0.0392
20124W        W36198  11.131   1.268   0.398 -0.2596 -0.0476  0.1317
20125W        W36199   7.766   0.594  13.660  0.0051  0.0009  0.1295
20126W        W36200  15.051  11.691   4.451  0.2319  0.0053  0.0330
20127W        W36201   7.508   7.842   5.276  0.1770 -0.2323  0.1647
20128W        W36202   7.107  19.163  14.646  0.0033 -0.2182  0.0099
20129W        W36203   5.545  10.348  13.020  0.3101  0.2412  0.0681
20130W        W36204  18.049  18.107  11.128 -0.2895  0.0831  0.0001
20131W        W36205   2.552  11.965  14.554  0.2189  0.0638 -0.0020
20132W        W36206   4.309   7.875   1.573  0.3266  0.1774  0.1639
20133W        W36207  17.827   8.878   3.588 -0.2194  0.1893 -0.0292
20134W        W36208  14.720  14.441   2.762  0.1284 -0.0067  0.3939
20135W        W36209  14.380   4.942  14.957  0.0780  0.0434  0.1940
20136W        W36210  15.214   6.868   2.091 -0.2661 -0.0374  0.2807
20137W        W36211  16.975  10.740   4.645  0.1441  0.0926 -0.1274
20138W        W36212   7.649  14.166   5.197 -0.0066 -0.0173  0.4222
20139W        W36213   0.457   3.235   3.197 -0.3839  0.2587 -0.0391
20140W        W36214  14.804  10.064   2.768  0.1726  0.3045  0.0676
20141W        W36215  14.104   4.500   1.576 -0.5874 -0.0563  0.2590
20142W        W36216   3.136  16.804  10.768 -0.1231 -0.1032  0.0251
20143W        W36217   3.990   3.475   1.752 -0.0409 -0.2156 -0.3111
20144W        W36218   8.765  16.956  13.929 -0.2645  0.0600 -0.0729
20145W        W36219   3.120   7.826  10.177 -0.1740  0.1091  0.2989
20146W        W36220   7.227  12.760   2.500 -0.0038 -0.0092  0.4781
20147W        W36221   0.971   7.401   1.024 -0.3819  0.0683 -0.0004
20148W        W36222   1.258  12.433   1.908 -0.2115 -0.1469 -0.0087
20149W        W36223  13.957   7.611  14.836  0.4344  0.2417 -0.1727
20150W        W36224   9.071  10.594   4.239 -0.1066  0.1136  0.0118
20151W        W36225   0.136  10.948  13.223 -0.1546  0.1214 -0.1737
20152W        W36226  16.228  12.085  13.981 -0.1143  0.2134  0.1327
20153W        W36227  17.210  13.183  11.932 -0.2526  0.3793 -0.0215
20154W        W36228   3.214   9.692   3.124  0.0409 -0.0138  0.2061
20155W        W36229  10.469   3.959  12.688 -0.2604 -0.0722 -0.1165
20156W        W36230   2.899  15.613  10.974  0.0924  0.0309 -0.0379
20157W        W36231  12.311  18.785   3.440 -0.0794  0.1179 -0.1429
20158W        W36232   4.291  18.679  12.930  0.1084  0.2221 -0.0609
20159W        W36233   7.026   6.250  14.590 -0.0900 -0.0488 -0.1823
20160W        W36234   6.633   6.943  12.542  0.0513  0.2278 -0.0531
20161W        W36235  17.450   0.354  14.128 -0.2062  0.4922  0.0514
20162W        W36236   6.944   3.269   4.481 -0.2013  0.0117 -0.0083
20163W        W36237   6.611  10.173  13.772 -0.0143  0.3254 -0.0966
20164W        W36238   5.046   5.061   5.540  0.1632 -0.2561  0.1448
20165W        W36239  10.099  13.732   2.324 -0.2317 -0.0993  0.0392
20166W        W36240  19.286   9.002  10.393 -0.1576  0.2562  0.1254
20167W        W36241   3.079   3.860  14.073  0.0880 -0.2615  0.2600
20168W        W36242  18.294  16.202   4.045  0.2344 -0.1042  0.2743
20169W        W36243  13.035  10.991   1.406  0.0332 -0.4009 -0.0227
20170W        W36244   5.338   0.698   1.239 -0.2111  0.0852  0.0306
20171W        W36245  15.522   2.483  10.740  0.0447 -0.0645  0.0172
20172W        W36246  12.427   1.873  12.910  0.3206 -0.1502  0.0165
20173W        W36247   0.152  10.048   0.212 -0.3066 -0.0803 -0.0357
20174W        W36248   0.420  16.286   2.966 -0.0694  0.0687  0.2641
20175W        W36249   2.674  19.195   0.622 -0.0439  0.0450 -0.1136
20176W        W36250  10.376   9.666  13.434  0.2257 -0.3991  0.1504
20177W        W36251  14.001   0.937  11.193  0.1420  0.1468  0.1121
20178W        W36252   2.782  16.361   0.927 -0.1190  0.0193 -0.3337
20179W        W36253  11.493   9.797  12.622 -0.2060  0.2118  0.3602
20180W        W36254  11.297  17.448  11.436  0.1169 -0.0628  0.0348
20181W        W36255  16.475   2.368   4.835 -0.1125  0.0870 -0.0600
20182W        W36256  11.517  16.974  12.234  0.1637 -0.3281  0.1907
20183W        W36257   7.438   0.018   0.004 -0.3106 -0.0988  0.1401
20184W        W36258   6.838   9.035   4.908 -0.0230 -0.2169 -0.3738
20185W        W36259   5.466   7.090   0.614  0.0015  0.2006 -0.1673
20186W        W36260   5.238  16.785   2.458 -0.0438  0.1715 -0.1217
20187W        W36261   9.148   4.614   0.571 -0.1672  0.0648 -0.0953
20188W        W36262  12.592  11.290  14.933 -0.1763  0.0628 -0.1785
20189W        W36263   5.725   8.343   0.022 -0.2789  0.1452  0.2488
20190W        W36264  18.941   7.667  11.612 -0.2226  0.0901 -0.0835
20191W        W36265   1.252   5.632  10.736  0.1350  0.4524 -0.0445
20192W        W36266  13.195   5.674  13.272 -0.0682  0.1202 -0.1802
20193W        W36267   7.228  12.515   1.935 -0.2350  0.1463 -0.0293
20194W        W36268  13.131   3.077   5.050 -0.2131 -0.1886 -0.2395
20195W        W36269  15.539  10.366  14.722 -0.1189 -0.0541  0.4227
20196W        W36270  10.172   1.428  12.256 -0.0317 -0.2776 -0.2620
20197W        W36271   5.121   3.708  11.412 -0.3650 -0.2276 -0.3657
20198W        W36272   5.627   2.878   1.323 -0.0508 -0.1971  0.0444
20199W        W36273   4.248  13.122   4.133  0.0903  0.4058  0.1340
20200W        W36274   2.308  16.670  11.012  0.0146  0.2246 -0.3276
20201W        W36275   1.855   9.269  14.838 -0.0869 -0.1210 -0.1131
20202W        W36276  14.774   8.338   0.991  0.0478 -0.1819  0.6469
20203W        W36277  19.302   2.696  14.924 -0.0850  0.0954  0.1672
20204W        W36278  12.036  19.116  11.677 -0.2321  0.0089  0.0297
20205W        W36279  13.434   9.526   4.482 -0.0720  0.0553 -0.3201
20206W        W36280  11.926  14.608   2.296 -0.0974  0.1141  0.1324
20207W        W36281  15.489  16.746  12.905 -0.0562 -0.1021  0.2032
20208W        W36282   9.268  13.252   5.155  0.0083  0.3085 -0.1736
20209W        W36283  16.175  15.802   3.198 -0.0398  0.3005  0.2013
20210W        W36284  18.799   9.358   4.237  0.2447 -0.1722 -0.0842
20211W        W36285  13.228   7.224   0.098 -0.1424 -0.0240 -0.0698
20212W        W36286  11.821  13.945  13.418 -0.0331  0.1091 -0.2905
20213W        W36287   2.014   6.555   1.028  0.0213 -0.1464  0.1334
20214W        W36288  16.159   8.514   2.027  0.1797  0.1641  0.2135
20215W        W36289   2.472  14.569  12.537 -0.2221 -0.1844 -0.3691
20216W        W36290  15.574  13.949  11.765 -0.0479  0.3074  0.1906
20217W        W36291   8.028  14.656   4.106  0.0082 -0.0605  0.1668
20218W        W36292  16.072  17.856   2.605  0.0517  0.0677 -0.1475
20219W        W36293  13.711  10.084   5.102  0.1314 -0.0542  0.0159
20220W        W36294   4.112  11.553  11.607 -0.0586 -0.1636  0.1264
20221W        W36295   2.325   9.089  14.130  0.1237  0.0660  0.0591
20222W        W36296   3.552  12.137  13.332  0.1539 -0.0092  0.1721
20223W        W36297  11.038  18.802   2.292 -0.0134  0.2323 -0.2419
20224W        W36298  10.500   5.973   1.897 -0.2782  0.0649  0.1325
20225W        W36299   1.495  13.634  14.299 -0.1174 -0.1599 -0.0786
20226W        W36300  17.047   9.257  13.442  0.1008  0.0913 -0.2701
20227W        W36301  14.365   9.865  11.338 -0.1992 -0.2705  0.2429
20228W        W36302   5.205  10.525  14.312 -0.0354 -0.0812 -0.0866
20229W        W36303  13.514  10.591   9.300  0.0764  0.0639 -0.0913
20230W        W36304   4.202  15.902   9.851  0.0596  0.0409 -0.4789
20231W        W36305   5.222   1.233  12.644  0.4705 -0.2553  0.1192
20232W        W36306   6.463   4.488   3.951  0.2950 -0.2496 -0.1820
20233W        W36307  17.772  13.292   3.419  0.0073  0.1656 -0.1955
20234W        W36308  16.547   2.502   2.157 -0.0427  0.3547 -0.2568
20235W        W36309   9.929  17.924  15.014 -0.3697  0.0498 -0.1860
20236W        W36310  10.267  14.889   4.619 -0.1924 -0.2870 -0.1893
20237W        W36311   1.963   0.815   2.914 -0.0351 -0.0815 -0.2235
20238W        W36312   5.797   2.035  11.198 -0.1288 -0.2049 -0.1056
20239W        W36313  17.212   8.459   0.336  0.0086  0.3330  0.0657
20240W        W36314  17.017   6.164  11.792  0.0619  0.0672  0.2285
20241W        W36315  11.540   7.071  11.819 -0.2686  0.1027 -0.0527
20242W        W36316   5.885   4.125   4.080  0.0343  0.3234  0.1167
20243W        W36317  18.035  11.266  14.705  0.1170  0.0698 -0.1063
20244W        W36318  13.984   7.297   2.398  0.1264  0.1706 -0.0772
20245W        W36319  16.988  14.243  10.600  0.0947 -0.1215  0.1232
20246W        W36320  11.440   9.699   0.872  0.0570  0.2663  0.0859
20247W        W36321   4.236   8.136   6.103  0.0612 -0.1886  0.2757
20248W        W36322  14.738  15.095   0.956 -0.0291 -0.0452  0.1842
20249W        W36323   1.147   0.837   4.584 -0.0217  0.2936  0.1205
20250W        W36324   6.851   8.672   1.356  0.2301  0.0011  0.1331
20251W        W36325   5.157  14.373  10.740 -0.0018 -0.0320  0.1371
20252W        W36326   0.878  15.287   9.912 -0.4467 -0.0201 -0.0997
20253W        W36327  12.807   2.028   4.375  0.0348  0.3721 -0.1267
20254W        W36328   2.252   5.879  10.816  0.2206 -0.2913 -0.0432
20255W        W36329  11.234  11.393   2.290 -0.0381  0.2339  0.0855
20256W        W36330   3.239   2.077   3.420  0.1509  0.1685  0.1419
20257W        W36331   5.341  12.847  10.669 -0.3070  0.0798  0.2128
20258W        W36332  17.822   0.015  12.766  0.2727  0.0359  0.0650
20259W        W36333  11.799   7.674  14.688 -0.2289  0.2796  0.1370
20260W        W36334   6.362   6.542   3.434 -0.1242 -0.1301 -0.0331
20261W        W36335   0.190  11.704  13.935 -0.0633 -0.1018 -0.0641
20262W        W36336   7.453  16.837   2.272 -0.0677 -0.1968 -0.0269
20263W        W36337  11.555   8.051  11.065 -0.1963  0.0556  0.2319
20264W        W36338   1.599  17.266   0.993 -0.0767  0.1875  0.1572
20265W        W36339  18.798   6.369  14.442  0.1398  0.0005 -0.3713
20266W        W36340   3.064   8.052   0.547 -0.0276 -0.0744  0.0976
20267W        W36341   5.047   1.610   0.159 -0.0593  0.0373  0.0471
20268W        W36342   6.142   7.752  14.356 -0.0625 -0.1626  0.2669
20269W        W36343   2.325  11.636   9.984 -0.0345 -0.3116  0.1618
20270W        W36344   2.804   1.552   0.397 -0.2393  0.1563 -0.0751
20271W        W36345  12.673   6.152   3.859 -0.0190  0.1393  0.0480
20272W        W36346   5.411   7.456   0.943  0.1947 -0.0326 -0.1033
20273W        W36347  12.833   0.602  13.123  0.0385 -0.0821 -0.0805
20274W        W36348  13.360   1.859  13.916 -0.3520 -0.1527  0.3470
20275W        W36349   4.380   9.275  12.225 -0.1380 -0.1205 -0.1686
20276W        W36350  14.069  10.567   4.326 -0.3179  0.3720  0.1863
20277W        W36351  16.694  18.569   9.587  0.0181  0.0054  0.1334
20278W        W36352  13.478  17.042  10.457 -0.1455 -0.0725  0.0931
20279W        W36353   2.089   0.675   2.441 -0.4368  0.0668  0.0571
20280W        W36354  10.016  15.485   3.921  0.0800 -0.4049 -0.2782
20281W        W36355  15.412   5.725   1.304  0.2249  0.2892  0.1669
20282W        W36356   3.424   1.707  11.344  0.0714  0.2626 -0.0483
20283W        W36357  16.946  19.022  14.640 -0.3878 -0.1527  0.0174
20284W        W36358   0.191  19.239   0.142  0.2077  0.1413  0.0372
20285W        W36359   1.860   3.527  11.824  0.3502 -0.0002 -0.2554
20286W        W36360   0.966  14.537  10.658 -0.0120  0.0341  0.0287
20287W        W36361   0.036   1.912   1.775 -0.1195 -0.0221 -0.1534
20288W        W36362   4.201  13.005  14.294  0.1937  0.1648 -0.0196
20289W        W36363  11.768  16.023  12.363 -0.0096 -0.1118  0.3080
20290W        W36364  16.682   4.561   1.326  0.1307 -0.0407  0.1829
20291W        W36365   3.655   5.417   4.836 -0.1997  0.2716  0.1580
20292W        W36366   9.227   8.050  13.611 -0.1163  0.3277 -0.1376
20293W        W36367  14.273   1.193  10.892  0.0291  0.0168 -0.1348
20294W        W36368  12.609  11.645   4.197 -0.0315  0.0340  0.1116
20295W        W36369   5.618  12.774  12.857  0.1275 -0.2186  0.0488
20296W        W36370  13.068   6.281   2.398  0.0313 -0.1367 -0.5043
20297W        W36371  17.180   7.512   0.372  0.0430 -0.1388  0.0457
20298W        W36372  14.182   0.337   4.035  0.3145  0.0412  0.0671
20299W        W36373   7.187  19.165   4.528 -0.1906 -0.4879 -0.0644
20300W        W36374  19.109   7.595  14.127 -0.1843 -0.2093 -0.2703
20301W        W36375   8.712  19.010  14.015 -0.0365 -0.2618  0.1053
20302W        W36376  19.004   1.960   0.050 -0.1651  0.0205  0.2031
20303W        W36377  13.886   8.153  12.096 -0.1569 -0.1084  0.0098
20304W        W36378  16.528  15.101  12.644 -0.0409  0.0863 -0.0806
20305W        W36379   9.434   4.276   0.979  0.1393  0.1050  0.0165
20306W        W36380  15.697   1.414  14.482  0.0113  0.1963  0.1572
20307W        W36381  10.074  16.198  11.215 -0.1121 -0.0630 -0.0068
20308W        W36382  11.458  16.329  10.923  0.1337 -0.1406  0.1154
20309W        W36383  11.142   1.765   0.172  0.3240  0.1432 -0.1164
20310W        W36384   5.878   8.102   0.645 -0.1181  0.3065  0.3115
20311W        W36385   5.804   9.006  10.440 -0.0728  0.0400 -0.0185
20312W        W36386  17.904  17.229  10.854  0.0048 -0.1013 -0.0668
20313W        W36387   3.945   3.856  11.408  0.1660  0.4443 -0.1322
20314W        W36388  18.363  10.126   3.833  0.0230 -0.1246 -0.1589
20315W        W36389  16.703  11.709   2.330 -0.1789  0.0612  0.0632
20316W        W36390  10.722   0.233   3.358  0.1128  0.0180  0.1432
20317W        W36391  16.607  11.224  13.459  0.0619 -0.0035  0.0014
20318W        W36392   5.555  17.635  12.161 -0.3352  0.1746 -0.0286
20319W        W36393   0.887  14.027  11.561 -0.3559 -0.1570 -0.0025
20320W        W36394  11.280  10.059   6.128  0.1366 -0.2043 -0.3133
20321W        W36395  11.960  14.363   5.090 -0.5546  0.1086 -0.0462
20322W        W36396   3.173   2.900   3.478 -0.2090  0.1204 -0.1047
20323W        W36397  19.202  13.630  14.783  0.0496  0.1104 -0.4662
20324W        W36398   1.613  15.260  10.671  0.2553 -0.0190  0.1155
20325W        W36399   3.561   6.473  11.315  0.1933  0.2579  0.2639
20326W        W36400   8.601  15.469  13.988  0.0027 -0.0512  0.0149
20327W        W36401  11.369  13.976   0.270 -0.0273  0.1178  0.0571
20328W        W36402   8.969  10.182   2.737  0.4261 -0.0088 -0.1861
20329W        W36403   7.301  13.900  10.354 -0.1796  0.0641 -0.2554
20330W        W36404  15.346  12.102   1.284  0.2151 -0.1838 -0.0597
20331W        W36405   1.886   0.562  12.116  0.1677  0.3654 -0.0459
20332W        W36406   8.408   8.331  15.036  0.2220  0.0159  0.3263
20333W        W36407   6.527   5.999   5.174 -0.0600  0.3548  0.1215
20334W        W36408   9.500   2.155   4.793  0.1557 -0.4846  0.0994
20335W        W36409  11.924   2.310  13.067 -0.1721  0.0394  0.0330
20336W        W36410   1.930  10.983   3.030  0.1273 -0.2098 -0.1012
20337W        W36411   3.960   8.801   1.411  0.4281 -0.1227  0.1481
20338W        W36412   3.815  16.487  14.600 -0.0904  0.1444  0.2333
20339W        W36413   1.516  15.937   1.851 -0.3660  0.0746  0.0472
20340W        W36414   2.169   8.323  10.239 -0.0430  0.4202 -0.0524
20341W        W36415  18.883  12.207  13.658 -0.2648 -0.0252  0.2810
20342W        W36416  13.203  14.413  11.096  0.2548  0.1249 -0.2285
20343W        W36417  13.735  12.528  10.973  0.3634 -0.1411 -0.0459
20344W        W36418  11.110  10.112   1.704  0.2421 -0.1961  0.3411
20345W        W36419  15.235   0.718   0.881 -0.1178  0.1745 -0.1610
20346W        W36420  17.894  11.983   0.148  0.1564 -0.0506 -0.1218
20347W        W36421  17.537  14.348  13.162  0.0511  0.0401 -0.2094
20348W        W36422  16.042  16.850  11.775  0.1096  0.0160  0.0960
20349W        W36423   0.802  17.663   3.372 -0.0156 -0.1607  0.1361
20350W        W36424  19.278  14.125  14.966  0.1210  0.0326 -0.0008
20351W        W36425  17.274   3.585   1.920  0.1242  0.0486  0.2615
20352W        W36426   8.527  12.817  12.672 -0.1338 -0.0640  0.1108
20353W        W36427   0.853  11.674   0.049 -0.1084  0.0337  0.0281
20354W        W36428  12.297  16.654  12.541 -0.0518  0.0059 -0.0216
20355W        W36429   5.641   8.647   1.437 -0.0710  0.3046  0.0488
20356W        W36430  11.877   4.518  12.277 -0.0269 -0.0162  0.0575
20357W        W36431   8.912   1.968  14.082 -0.1670 -0.1913  0.0074
20358W        W36432  17.706   4.796   3.248 -0.1331  0.3769  0.1266
20359W        W36433   7.066   9.990  10.808 -0.4565  0.1293 -0.0380
20360W        W36434  12.414   2.378  12.731  0.2176  0.0592  0.0606
20361W        W36435   9.493  11.883  14.316 -0.0799  0.1141  0.2357
20362W        W36436   0.967   0.647   3.198  0.1030 -0.0946  0.1319
20363W        W36437   3.466  12.586  11.884 -0.1731 -0.1304 -0.0499
20364W        W36438   6.006  13.221   0.640 -0.1392 -0.0894  0.0684
20365W        W36439   3.142  15.894  12.579  0.2536  0.0528 -0.2477
20366W        W36440  11.592  18.885  11.677  0.0209  0.1424  0.0435
20367W        W36441   6.620   4.596  12.098  0.0569  0.1866 -0.0284
20368W        W36442   2.728   0.276  12.435  0.2451  0.1239 -0.2183
20369W        W36443  10.330  17.609  13.166 -0.0950 -0.1805  0.3095
20370W        W36444   9.163   6.789  14.443 -0.4437 -0.0207  0.1598
20371W        W36445  10.929  18.419  13.112  0.0214 -0.0141  0.1120
20372W        W36446  11.769  10.953  14.645  0.1122  0.1528  0.1493
20373W        W36447   5.938   6.489  14.752 -0.2042 -0.0333  0.0949
20374W        W36448  13.459  11.537   0.278  0.0466  0.1988 -0.2129
20375W        W36449   9.377  18.161   2.761  0.0926 -0.1428 -0.0094
20376W        W36450   5.502   8.394   3.802  0.1376  0.1252 -0.1004
20377W        W36451   2.880  19.105  11.993 -0.0045 -0.0946 -0.1672
20378W        W36452  11.314  17.897   4.309 -0.0606  0.0304  0.2371
20379W        W36453   8.604   0.200  10.586  0.0198 -0.1010  0.0102
20380W        W36454  17.354  15.008  10.068  0.1815  0.0134  0.2298
20381W        W36455   9.523   3.158   3.545  0.0382 -0.0712  0.0328
20382W        W36456  17.818   3.976   0.897 -0.1793 -0.2722  0.0108
20383W        W36457   6.563   2.005   4.609  0.2324 -0.0237 -0.3825
20384W        W36458   6.062   3.641  11.196  0.1150  0.1628 -0.1571
20385W        W36459  10.067  18.217  11.940 -0.0961  0.0169 -0.0726
20386W        W36460  13.345   3.399  12.880 -0.1998  0.3863 -0.2505
20387W        W36461   3.091  19.078   1.131  0.2919  0.0367 -0.0268
20388W        W36462   9.975  13.314   0.210  0.0386  0.0650 -0.1459
20389W        W36463   8.576  16.955   4.041  0.3296 -0.0883  0.3000
20390W        W36464  13.290  15.877  13.199  0.0342  0.4571  0.3386
20391W        W36465  12.048   8.006   0.995  0.1438 -0.0270 -0.3271
20392W        W36466  18.282   6.479  12.256 -0.2428  0.2712 -0.0341
20393W        W36467  16.353  11.976   2.928  0.2466  0.1236 -0.0713
20394W        W36468   5.745   7.807   1.993 -0.3549 -0.1050 -0.0778
20395W        W36469   4.265   9.705  11.977 -0.2897  0.0461  0.1509
20396W        W36470   4.890   1.777  13.268 -0.0520 -0.0676 -0.2635
20397W        W36471  17.530  15.620  11.644  0.5284  0.0451  0.1058
20398W        W36472  16.597   3.655  14.476  0.2046  0.2713  0.1736
20399W        W36473   3.527   3.323  12.371 -0.2170 -0.0763 -0.1358
20400W        W36474   9.239   6.695  10.809  0.3595  0.0038 -0.1392
20401W        W36475  17.606   4.494   0.800 -0.2102  0.1401  0.1250
20402W        W36476   7.707   0.789   2.391 -0.2529 -0.3031  0.0525
20403W        W36477  16.033   2.598  12.286  0.2233  0.3722  0.0093
20404W        W36478   1.393   6.021  14.725  0.0057  0.0658  0.0989
20405W        W36479   4.576   0.241  13.016  0.1205 -0.1981  0.2378
20406W        W36480  13.443   5.102  14.367 -0.0515 -0.0136  0.3622
20407W        W36481   5.671   1.101  10.511 -0.0770  0.1763 -0.1214
20408W        W36482   1.703   9.869  13.901  0.1443  0.1253  0.1822
20409W        W36483   4.964   0.573   6.227  0.1799 -0.0185 -0.2815
20410W        W36484  16.755  14.697   9.995 -0.0576 -0.0088  0.0389
20411W        W36485  12.077  11.561   0.941  0.1271  0.0749  0.2244
20412W        W36486   3.589  13.888   1.751  0.0017  0.0715  0.0271
20413W        W36487  13.599   8.826   3.488  0.0615  0.1429  0.1517
20414W        W36488   5.334  10.955   2.414  0.2899  0.0988  0.2292
20415W        W36489   5.908   5.552   3.891  0.0161  0.2130  0.1487
20416W        W36490   1.968   8.628   3.755 -0.0398 -0.0094 -0.0551
20417W        W36491  11.749   6.214  11.518  0.0271  0.1196 -0.1219
20418W        W36492  12.174   4.754   1.311 -0.0447 -0.0199 -0.2651
20419W        W36493   6.271  10.410   5.109 -0.1494 -0.3084 -0.0806
20420W        W36494   2.868   5.638  13.927  0.2413  0.0664  0.1860
20421W        W36495   4.189   3.920   1.957  0.2212 -0.2886 -0.3254
20422W        W36496  10.954  16.093   3.259  0.3630 -0.2925  0.0109
20423W        W36497   8.089  16.165  11.974 -0.1214  0.0325 -0.2700
20424W        W36498   3.971  14.573   0.327  0.0699 -0.0127  0.1127
20425W        W36499   4.735   6.557  14.338  0.3139 -0.0591  0.1748
20426W        W36500  13.213  10.798  12.974  0.1867 -0.0455 -0.1434
20427W        W36501   7.144  13.203   1.314 -0.0026 -0.2195 -0.4122
20428W        W36502  16.928  17.689  14.542 -0.2694  0.2939 -0.1376
20429W        W36503  10.396  12.150   5.338  0.2020  0.0694  0.0337
20430W        W36504  10.344   9.728  12.848  0.3140  0.2259 -0.0297
20431W        W36505  18.377   9.212  11.943 -0.1857 -0.3355  0.1011
20432W        W36506  11.040  11.687   0.205  0.1134 -0.0795  0.1469
20433W        W36507   6.141  16.153   3.206 -0.0175 -0.0036  0.0661
20434W        W36508  14.842   1.701  13.080 -0.1205 -0.0992  0.1879
20435W        W36509  17.873   5.827  12.995  0.0591 -0.3028  0.1610
20436W        W36510  12.516   2.863  14.928  0.0121 -0.2441 -0.1765
20437W        W36511  15.131  14.555  12.804  0.0086  0.1859  0.3330
20438W        W36512  16.948   8.882   2.081  0.1223 -0.1102  0.1992
20439W        W36513  18.079  11.435  12.151 -0.2321 -0.1069 -0.2393
20440W        W36514   5.058   8.054   4.538  0.4423 -0.3230 -0.2817
20441W        W36515   5.365   0.383   4.851 -0.1465 -0.3448 -0.1534
20442W        W36516  12.760   0.363  12.236  0.0657 -0.3164 -0.1508
20443W        W36517  16.040  15.010  10.616  0.1989  0.0237 -0.1542
20444W        W36518  10.659  15.319   4.471 -0.3891 -0.0791 -0.2184
20445W        W36519  18.354   1.391   1.852  0.1986  0.0846 -0.2827
20446W        W36520   9.380   8.686  10.031  0.0634  0.3962  0.0079
20447W        W36521   3.160   9.283   4.043  0.2338 -0.0185 -0.0968
20448W        W36522   1.462   7.556  13.240 -0.0035  0.1308  0.0372
20449W        W36523   2.010   7.597   4.819  0.1995 -0.1955  0.3359
20450W        W36524   8.614  18.927  11.233 -0.1681  0.2939 -0.1271
20451W        W36525  16.221  18.288   1.381 -0.2175  0.3970 -0.2962
20452W        W36526   1.049  14.435   0.800 -0.0531 -0.2162 -0.2660
20453W        W36527  11.974   0.249   2.127 -0.2711  0.3507  0.0063
20454W        W36528  19.250   4.352  12.817  0.0897  0.1450  0.1402
20455W        W36529   6.733   2.711  14.833 -0.3735  0.2312 -0.0878
20456W        W36530  12.813   1.837  10.899  0.0092 -0.1319 -0.1933
20457W        W36531   6.943   1.953   3.306  0.1395 -0.0072  0.1679
20458W        W36532   5.646   9.714  12.825  0.3077 -0.2963  0.0948
20459W        W36533   6.147   4.689  13.106  0.0481 -0.0329  0.2615
20460W        W36534  18.321   6.662  13.603  0.3371  0.0427  0.3173
20461W        W36535  14.250   4.311   0.222  0.0105  0.0598  0.1120
20462W        W36536  14.676   5.878   5.413  0.2060  0.4299 -0.0735
20463W        W36537  11.983  14.442  10.609  0.1344  0.0169  0.1492
20464W        W36538   5.012  18.787   0.838  0.2689  0.3197 -0.2009
20465W        W36539  17.918   8.904   9.334 -0.0745 -0.1529 -0.1250
20466W        W36540   9.667  16.166   2.829  0.2395 -0.1574  0.0605
20467W        W36541   1.571  13.489  14.865  0.0280 -0.0033  0.0692
20468W        W36542  15.598  16.293  14.545  0.0479 -0.1944 -0.1601
20469W        W36543  17.257   1.041   0.414  0.1505 -0.1204  0.1935
20470W        W36544  18.148  11.125   0.931  0.1013 -0.0164  0.1810
20471W        W36545  18.884   2.127   0.616 -0.0334  0.1003 -0.2101
20472W        W36546  12.283  10.341   0.152  0.0521  0.0741 -0.0837
20473W        W36547   6.422  13.031  12.672  0.0072 -0.0321  0.1461
20474W        W36548   1.164  18.941  10.753 -0.0132 -0.2302  0.3356
20475W        W36549  10.272  18.399   5.284 -0.0838  0.2184  0.1383
20476W        W36550   0.645  14.029   1.597  0.2510  0.1181 -0.0337
20477W        W36551  15.464   0.043  11.178  0.0939  0.1872  0.1133
20478W        W36552  16.680  15.416   4.675 -0.0760 -0.1263  0.0221
20479W        W36553  12.597  11.006  12.408 -0.2471  0.3618 -0.0629
20480W        W36554  17.484   1.693  14.385 -0.0011  0.1629  0.0992
20481W        W36555   4.371  12.410  12.996 -0.2226  0.1484  0.1805
20482W        W36556  10.753   4.693  11.691  0.2696  0.0475 -0.0135
20483W        W36557  14.552  14.519  13.287  0.0030 -0.0880 -0.1113
20484W        W36558   4.440   2.828   3.289  0.0458  0.1959  0.2872
20485W        W36559  18.159  13.637   9.900 -0.1529  0.0941 -0.2495
20486W        W36560   4.645   2.544   5.418 -0.1224  0.0092 -0.1139
20487W        W36561  15.820  15.437   0.447 -0.1247  0.0077 -0.0368
20488W        W36562   3.747  18.793   2.720 -0.2075 -0.0076  0.4582
20489W        W36563  10.406   1.726   4.813  0.1750 -0.0962 -0.1340
20490W        W36564   1.080  13.003  14.053  0.3663  0.2282 -0.1262
20491W        W36565  15.798   4.658   4.694 -0.0818  0.2643 -0.0599
20492W        W36566  15.526  11.355   0.574  0.1803 -0.2664  0.2077
20493W        W36567   5.548   5.153  12.516  0.1210  0.3895  0.0683
20494W        W36568   2.194  18.114   1.087 -0.2153  0.0447  0.2454
20495W        W36569  10.681  15.619   2.721 -0.0554 -0.0548 -0.2347
20496W        W36570   7.536  13.099   0.307 -0.0857  0.0628 -0.1924
20497W        W36571   7.026   0.437   0.003 -0.0117  0.1263  0.0709
20498W        W36572  17.823  10.130  13.954 -0.1089 -0.0865 -0.1348
20499W        W36573  16.570  17.032   3.806 -0.1136  0.0021  0.3289
20500W        W36574  18.560  17.257   2.727 -0.1368 -0.0548 -0.1234
20501W        W36575  15.462  10.463  13.275  0.0993 -0.0968  0.5284
20502W        W36576  15.755  14.693   0.656  0.0040 -0.0138 -0.0468
20503W        W36577  18.097   1.929  14.563 -0.1791  0.0072 -0.0065
20504W        W36578  11.565  18.744   2.332  0.0184 -0.1740  0.3104
20505W        W36579   2.211  18.520  11.705  0.2168  0.0319  0.2056
20506W        W36580   5.933  18.428   4.816  0.1601 -0.0326 -0.2312
20507W        W36581   7.481   2.281   4.490 -0.0340 -0.0630 -0.1180
20508W        W36582  12.083   4.501  14.691 -0.0651  0.0304  0.1641
20509W        W36583   1.296  13.867   5.858  0.1556 -0.0745  0.2633
20510W        W36584  18.394  15.843  14.241 -0.1550 -0.1225 -0.1688
20511W        W36585   3.505  12.079   0.574  0.1643  0.1136  0.2021
20512W        W36586  16.163   3.048   2.946  0.1717 -0.2306  0.0219
20513W        W36587  11.446  18.734   0.157 -0.0637  0.1420  0.1193
20514W        W36588   7.311   8.940   5.236  0.1596 -0.0397 -0.0817
20515W        W36589  12.368  12.356   4.922  0.2479  0.3863 -0.2465
20516W        W36590   8.007   6.003  13.843 -0.0292 -0.0495  0.1072
20517W        W36591  18.935   5.376   1.788 -0.0495 -0.1094 -0.0956
20518W        W36592   9.743   5.713   0.473  0.6749  0.3069 -0.1594
20519W        W36593   3.047  19.147  12.509 -0.2206 -0.0404  0.1752
20520W        W36594  10.584   7.647   0.304  0.0365  0.0834  0.0764
20521W        W36595  11.030   4.215   2.135 -0.0764  0.0758  0.1286
20522W        W36596  18.201  13.001   4.121 -0.2485  0.0327  0.0898
20523W        W36597  13.908  16.814  10.585  0.2013 -0.0960 -0.0516
20524W        W36598   0.279  16.100  12.845  0.3519  0.0967 -0.3289
20525W        W36599  19.161  12.479   3.354 -0.1756  0.0767  0.1433
20526W        W36600  17.050   1.296  10.429  0.1290 -0.0836 -0.1635
20527W        W36601  14.962   8.649  10.844 -0.4231 -0.1123  0.0647
20528W        W36602  13.205   1.139  14.808  0.1327  0.1825 -0.3244
20529W        W36603  16.640  19.147  14.197  0.0132  0.0002 -0.4112
20530W        W36604  18.955   6.751   0.426  0.1661 -0.1750 -0.0458
20531W        W36605   7.159   2.013  15.050 -0.0253 -0.2225  0.3694
20532W        W36606   2.986  14.764  12.614 -0.0143 -0.0170  0.5098
20533W        W36607   0.778   5.331   2.543 -0.1195  0.2430  0.1008
20534W        W36608   3.930   3.326  13.333  0.0161 -0.2645 -0.1293
20535W        W36609   1.239   7.851   2.392  0.2370  0.2329 -0.1258
20536W        W36610  12.695   7.641  11.348  0.0251 -0.3406  0.1383
20537W        W36611  18.558  10.288  12.872 -0.2502 -0.1110  0.0526
20538W        W36612  15.561   7.225   1.669  0.1072 -0.0706  0.0524
20539W        W36613   9.950   6.894  14.286  0.0596 -0.2773  0.1021
20540W        W36614  11.036  14.076  11.226 -0.0671 -0.0256  0.1493
20541W        W36615  15.951   0.344  11.827  0.0630 -0.0290 -0.2543
20542W        W36616  17.231   7.402   0.876  0.0478  0.0072 -0.1023
20543W        W36617   4.928   7.471   2.445 -0.1922  0.1281  0.1501
20544W        W36618  11.546   0.391   0.232  0.1564  0.3455 -0.1074
20545W        W36619   9.678   7.645  11.575  0.1091  0.0865  0.0327
20546W        W36620  11.399  12.237  14.243 -0.0806 -0.0779 -0.1502
20547W        W36621  15.584   6.103   0.846 -0.1052  0.2697  0.2418
20548W        W36622   7.859  11.819   0.919 -0.1536 -0.1555  0.0479
20549W        W36623  18.298  11.944  11.537  0.1615 -0.0828  0.1245
20550W        W36624  10.325   9.490   3.679  0.0168 -0.5179 -0.0425
20551W        W36625  14.450  17.830   4.739 -0.0081 -0.0312 -0.4043
20552W        W36626   9.330   5.677   1.364 -0.2950  0.1090 -0.1287
20553W        W36627   2.541  16.567   4.123  0.2943  0.0549 -0.2008
20554W        W36628  10.857   1.657  11.377  0.0576 -0.3346  0.3840
20555W        W36629  12.403  16.970   9.923  0.1092 -0.1390  0.0024
20556W        W36630  15.164  12.870   0.105  0.1407 -0.1449  0.0156
20557W        W36631  17.962   7.771   1.113 -0.3869  0.0361 -0.0057
20558W        W36632   5.469  13.337   0.618 -0.1379  0.0287  0.3084
20559W        W36633  12.562   0.101  12.645  0.3160 -0.1135  0.0715
20560W        W36634   3.584  12.011  10.686 -0.1097 -0.1662  0.2475
20561W        W36635   4.509  13.817   4.676 -0.0486 -0.0203 -0.0403
20562W        W36636   1.208   5.149   0.513 -0.0273 -0.0361 -0.3791
20563W        W36637   3.939  16.765  13.246  0.1007  0.1738  0.1755
20564W        W36638  14.627   8.167   2.345  0.1959 -0.2445  0.1420
20565W        W36639  16.453   0.726  14.479  0.2540 -0.1802 -0.4384
20566W        W36640   3.545  14.118   4.686  0.0961 -0.0989  0.0754
20567W        W36641  12.519   6.019  12.127  0.4147 -0.3284 -0.2072
20568W        W36642   2.709  15.600  10.441  0.0242  0.3301 -0.0475
20569W        W36643   5.591  12.146   1.403  0.0243  0.0776 -0.1435
20570W        W36644   0.636   5.283   5.694 -0.0659  0.1447 -0.1151
20571W        W36645   5.657   1.765   5.038 -0.0817 -0.1496 -0.0935
20572W        W36646   3.003  18.435  12.896 -0.1339  0.3421 -0.0441
20573W        W36647  12.358   3.606  11.416  0.2762  0.0245 -0.0105
20574W        W36648   6.062   3.236   1.272 -0.0959  0.1007 -0.2242
20575W        W36649   4.819  14.631   2.319  0.2077  0.0954 -0.1625
20576W        W36650   4.911   6.815  13.921 -0.1574  0.0163  0.1218
20577W        W36651   7.811  13.509   2.034 -0.1876  0.0196  0.0899
20578W        W36652  10.246   5.360   0.332 -0.1019 -0.2126  0.0096
20579W        W36653   6.134   3.141   2.223  0.0203 -0.1940 -0.0161
20580W        W36654  10.639  16.514  14.238 -0.1116 -0.0390  0.1925
20581W        W36655   2.216   2.016   1.056 -0.0781 -0.2583 -0.0137
20582W        W36656   4.775  13.880  12.708 -0.1062  0.1409  0.0117
20583W        W36657  17.913  13.943   4.151  0.1549 -0.0169  0.1363
20584W        W36658  16.519   6.613  13.763  0.0363 -0.0207 -0.1372
20585W        W36659  18.823  16.187  13.547  0.0366  0.2811 -0.0509
20586W        W36660   8.188  18.211   0.821 -0.2175 -0.4118 -0.0651
20587W        W36661   2.742  15.827  14.997 -0.1240 -0.0140 -0.3708
20588W        W36662  17.179  12.098   4.116  0.0516  0.1892 -0.1491
20589W        W36663   5.907   3.789  12.958 -0.6148 -0.1841  0.0383
20590W        W36664   6.937  10.222   3.336  0.1535  0.4157  0.2103
20591W        W36665   9.359   4.356  11.400  0.1617 -0.1866  0.1032
20592W        W36666  18.008  12.675   4.814  0.1732 -0.5233 -0.0828
20593W        W36667  14.092  17.731   3.138  0.0616  0.2664  0.0806
20594W        W36668  15.627  15.423   3.881 -0.0641  0.4608  0.2703
20595W        W36669   4.864  12.951   1.548  0.1662  0.2392 -0.0297
20596W        W36670  16.273  18.360   3.824 -0.1374 -0.0688  0.0215
20597W        W36671   1.259   9.913   2.015  0.3422 -0.1855 -0.3553
20598W        W36672  13.743  13.909   3.468 -0.0225  0.0161 -0.0286
20599W        W36673  17.978  13.296   0.552  0.1061 -0.4957  0.2915
20600W        W36674   8.469  13.196  12.978 -0.1950  0.0726  0.1547
20601W        W36675   2.944   1.680  13.078  0.0683  0.0849 -0.0897
20602W        W36676  19.056   9.756   0.206  0.1560 -0.3418  0.3080
20603W        W36677   9.970  13.973  11.641 -0.1068  0.1195  0.2072
20604W        W36678  18.678   8.935   2.251  0.1480  0.1901  0.5207
20605W        W36679   1.905  17.280  13.125 -0.0101  0.1767 -0.5492
20606W        W36680   2.266   3.075   0.209  0.2040  0.2380  0.0012
20607W        W36681   5.550  11.672   1.179 -0.1494  0.2414 -0.3164
20608W        W36682   0.288  10.115  12.906  0.0913  0.1776  0.0540
20609W        W36683  14.336  15.368  15.058  0.4615 -0.1342  0.1559
20610W        W36684   5.658   0.917   3.465  0.2326 -0.1599  0.1125
20611W        W36685   8.714  12.309  10.620 -0.1564 -0.1689  0.0333
20612W        W36686  13.336   4.945   1.878  0.0511  0.0465  0.1515
20613W        W36687  10.866  11.108   4.986 -0.0592  0.2450 -0.1015
20614W        W36688  19.070  14.647  14.952  0.0348 -0.0940  0.1518
20615W        W36689   2.639  12.572  13.763  0.1008 -0.0047  0.1394
20616W        W36690   8.060  13.437  12.910 -0.2178 -0.2697  0.2370
20617W        W36691   2.681  14.247  10.831  0.2457  0.1162 -0.1937
20618W        W36692  12.957  15.004   0.493  0.1371 -0.0906  0.1205
20619W        W36693   8.080  16.207   9.819 -0.1821 -0.3500 -0.0514
20620W        W36694   6.558  17.026   2.824 -0.3974  0.1885  0.1084
20621W        W36695  12.479   4.540  14.388 -0.0780  0.0340  0.0418
20622W        W36696   9.723  10.762  12.212  0.1151  0.0674  0.1420
20623W        W36697  19.302   2.373  13.287  0.1784 -0.0997  0.0021
20624W        W36698   4.937   5.091   1.669 -0.0657  0.0354  0.1101
20625W        W36699  16.296  17.439  14.906 -0.1524  0.1053  0.0280
20626W        W36700   2.375  11.944   1.103 -0.1348  0.0411 -0.0961
20627W        W36701   9.077  17.775  12.851  0.2166 -0.2374  0.3229
20628W        W36702  12.256  13.214   1.393 -0.1484 -0.1238  0.1358
20629W        W36703  15.070   5.572   5.424 -0.0018 -0.2118 -0.0475
20630W        W36704  13.574   6.592  12.484 -0.0010 -0.0497 -0.0814
20631W        W36705   9.885  12.321   0.390 -0.2187  0.1922 -0.0902
20632W        W36706   5.318   3.649   3.859  0.2288 -0.0612  0.0017
20633W        W36707  13.370  16.059  13.652  0.0092  0.2142 -0.1985
20634W        W36708   8.855   0.905  15.036  0.1166  0.2555 -0.0375
20635W        W36709  15.406  14.530   9.067 -0.2418  0.0139  0.2932
20636W        W36710  11.248   0.205   3.056  0.4453 -0.0350 -0.1943
20637W        W36711   1.731   2.473   0.931  0.0589  0.1088 -0.1408
20638W        W36712  11.483  14.321  11.290  0.1932 -0.0180 -0.0455
20639W        W36713   9.855  16.770   2.108  0.1401  0.1573  0.2809
20640W        W36714   8.692  11.288  10.758 -0.1257 -0.1517  0.1245
20641W        W36715  18.460  13.978   5.077 -0.2608 -0.5230 -0.1859
20642W        W36716   5.701  12.780  14.870  0.3357  0.1116 -0.0160
20643W        W36717  18.320  13.344  12.072 -0.0412 -0.2541  0.0160
20644W        W36718  15.181   2.920   1.748 -0.4309  0.2079  0.2485
20645W        W36719   8.409  15.013   4.302 -0.3370 -0.0312  0.1228
20646W        W36720  17.663  14.134  11.687 -0.0873  0.1920  0.0385
20647W        W36721  19.299  13.519   2.703  0.1918 -0.0527  0.3714
20648W        W36722   0.309   3.618   3.955 -0.0750  0.0979 -0.0473
20649W        W36723  18.788   0.885   4.770  0.0450  0.1437  0.2747
20650W        W36724   1.575   5.006   2.720 -0.1558  0.1147 -0.1067
20651W        W36725   0.152  17.915   3.787  0.1533  0.0806  0.0158
20652W        W36726   9.349   4.414  14.231  0.1016  0.1743 -0.0684
20653W        W36727  18.697  10.573  14.279 -0.0195  0.0778  0.2337
20654W        W36728   1.729  12.889  11.320 -0.3673  0.3900  0.1628
20655W        W36729  13.549  16.455  10.536  0.1203 -0.1476  0.2986
20656W        W36730  11.582  14.888  12.031 -0.0245  0.3980  0.1340
20657W        W36731  14.818  13.222  14.254 -0.0060  0.2627  0.1310
20658W        W36732   0.936   2.193  14.842 -0.0512 -0.4000  0.0575
20659W        W36733  18.580   7.275  14.913 -0.4226  0.1935 -0.3536
20660W        W36734  12.752  16.419   4.257  0.1241 -0.0175  0.1304
20661W        W36735  15.961   6.214   5.613 -0.1574  0.1605 -0.0793
20662W        W36736   0.862  13.205  10.308 -0.0685  0.0415  0.2577
20663W        W36737  11.312   9.180   2.392 -0.1834  0.4651 -0.1791
20664W        W36738   2.165   9.883   2.263  0.1487  0.1089 -0.0254
20665W        W36739  16.934  12.123  10.995  0.1859  0.0931  0.1095
20666W        W36740  14.086  19.190   4.412 -0.3993 -0.0918  0.1096
20667W        W36741  16.878   4.214  12.093 -0.1269  0.1807  0.1451
20668W        W36742  15.046  16.565   3.762  0.0326 -0.3539  0.2781
20669W        W36743   8.143   9.100  12.004 -0.1982 -0.0916  0.0008
20670W        W36744   2.313   0.284  14.809  0.1552  0.1077  0.0157
20671W        W36745   6.970   9.381   5.281 -0.1058 -0.3010 -0.3677
20672W        W36746   2.057   0.035   3.857  0.2491  0.0533  0.1055
20673W        W36747   3.832  15.260   3.625 -0.0815 -0.1701  0.1075
20674W        W36748  11.543   8.380  13.669  0.3098 -0.0221 -0.0636
20675W        W36749  15.393  10.339  12.522 -0.1492  0.2033 -0.1832
20676W        W36750  19.048   4.629   5.697 -0.0660  0.1619  0.3571
20677W        W36751  16.343   7.293   1.114 -0.0105  0.0232 -0.1925
20678W        W36752  10.437  18.220   4.809  0.0394  0.0802  0.3279
20679W        W36753   5.504  10.634   0.919  0.4251  0.1800 -0.0366
20680W        W36754  16.229   2.216   5.280 -0.0840  0.1761  0.0248
20681W        W36755  17.292   1.261   9.990 -0.0580 -0.0199 -0.3609
20682W        W36756  11.285   3.358   9.644 -0.1295 -0.3517 -0.3201
20683W        W36757   6.067  15.775   4.196 -0.0719  0.1905  0.2805
20684W        W36758  18.489  17.093  12.921  0.2287 -0.2393 -0.1704
20685W        W36759   0.061   1.099   5.422  0.1803  0.2404 -0.4429
20686W        W36760   5.307   7.657   2.901  0.2338  0.3836  0.0009
20687W        W36761   5.592  15.025  11.779 -0.0650  0.0302 -0.0745
20688W        W36762   4.638   5.000  12.599 -0.0195 -0.0798 -0.0960
20689W        W36763   6.939  12.457  12.740  0.1098 -0.2286  0.0269
20690W        W36764  17.674  11.235   1.512 -0.2097  0.1519  0.0573
20691W        W36765   1.340  10.215  11.392  0.0069 -0.1768 -0.0256
20692W        W36766   0.842  11.401   4.595 -0.0214  0.0535 -0.4837
20693W        W36767  17.072  12.363   5.049 -0.0782 -0.1212 -0.2344
20694W        W36768  10.549   2.674  13.250  0.2204 -0.0069 -0.2399
20695W        W36769   1.418   6.528  14.399  0.2661 -0.1049 -0.0243
20696W        W36770   5.914  16.438  11.630  0.0595  0.0018 -0.1704
20697W        W36771  14.391  16.208  13.777  0.1109 -0.0384  0.0444
20698W        W36772  17.703   1.216  14.501 -0.1403  0.0926 -0.2924
20699W        W36773  15.087  15.933   0.912  0.0273  0.0063 -0.3241
20700W        W36774  12.070  13.250   0.477 -0.3591  0.0668 -0.1063
20701W        W36775   6.646  13.350  12.275 -0.0536  0.0229 -0.1399
20702W        W36776  17.003   4.464  11.186 -0.0042 -0.0521 -0.2252
20703W        W36777   0.129  18.851   3.133 -0.1117 -0.0592  0.3351
20704W        W36778   0.433  14.122  10.050  0.2170 -0.0351  0.2157
20705W        W36779  17.481   6.939  11.957  0.4347 -0.1232  0.1144
20706W        W36780  17.064  11.244  10.605  0.0476  0.2390 -0.1493
20707W        W36781  15.548   7.570  14.692  0.1205  0.0767 -0.2339
20708W        W36782  10.197  15.693  10.343  0.4486 -0.0533 -0.1110
20709W        W36783   4.627   6.802  11.750  0.2156  0.0761  0.0999
20710W        W36784  14.204   2.820  13.799  0.0808 -0.1834 -0.0574
20711W        W36785  15.853  15.871  12.607 -0.0166  0.2914  0.1010
20712W        W36786   0.980   4.700  11.396  0.2275  0.0237  0.2429
20713W        W36787   6.966  16.444   3.009 -0.3050 -0.0537  0.2193
20714W        W36788  13.250  12.147   2.307  0.0822 -0.0835  0.1206
20715W        W36789   1.185   0.907  12.836 -0.1092 -0.0393  0.0626
20716W        W36790   7.835   3.003  11.359  0.1427  0.0863  0.1469
20717W        W36791  16.878   5.598   4.913  0.4599  0.1632  0.1305
20718W        W36792   4.528   2.142   0.711  0.2240 -0.0016  0.2794
20719W        W36793  11.255  11.449  11.842  0.1218 -0.3175  0.2925
20720W        W36794  16.656   0.089   4.500 -0.0022  0.2174  0.2159
20721W        W36795  11.754  11.541   2.160 -0.0920  0.0367 -0.0100
20722W        W36796  11.236   8.524  14.726  0.3244 -0.1198 -0.1502
20723W        W36797  18.342   4.476  12.611 -0.0062  0.1598 -0.0611
20724W        W36798  18.197  11.290   1.466  0.2731  0.1473  0.1441
20725W        W36799   1.308  14.279   3.720 -0.2376 -0.3588 -0.0084
20726W        W36800   1.460  10.274   0.234  0.3583  0.0351  0.2273
20727W        W36801  11.691   2.446   4.397 -0.1254  0.0190  0.4786
20728W        W36802   5.463  10.781   1.548 -0.2737  0.0654 -0.1097
20729W        W36803   9.042   8.492   4.557  0.2130  0.1484  0.0289
20730W        W36804   3.022  12.950  13.177 -0.2299  0.1352  0.3990
20731W        W36805  14.983  12.746   5.258 -0.0489  0.0297  0.1802
20732W        W36806  15.895  13.372  11.583 -0.1434  0.4019 -0.2273
20733W        W36807   2.890  17.876   2.292 -0.1451 -0.0197  0.3249
20734W        W36808  10.637  13.059  12.367  0.3140  0.0972  0.1232
20735W        W36809   3.889  16.457   1.773  0.2271  0.0243 -0.3727
20736W        W36810  16.073   0.249  10.734  0.1564 -0.0347  0.0497
20737W        W36811   1.550   3.857   0.788 -0.2100 -0.1206  0.1890
20738W        W36812  15.956   7.945   3.079  0.1404 -0.2095  0.2619
20739W        W36813   1.901  19.226   0.847 -0.1685 -0.0820 -0.2808
20740W        W36814  10.630   8.996   4.939 -0.2109 -0.0085  0.1645
20741W        W36815   2.389  18.787   2.942  0.2942 -0.1935 -0.2210
20742W        W36816  12.704   8.180   1.818 -0.0130 -0.0228  0.0984
20743W        W36817  18.046  15.301   4.120  0.1786  0.0240  0.2517
20744W        W36818  13.411   0.155   3.643 -0.0884  0.2399  0.1444
20745W        W36819   0.671  13.477  11.506 -0.1037  0.0176  0.1116
20746W        W36820   4.808  10.038  14.433  0.0337  0.1794  0.0908
20747W        W36821   0.328  15.861  11.625  0.1738  0.1475  0.1445
20748W        W36822  10.824   9.599  12.706 -0.1573 -0.0864 -0.2309
20749W        W36823  18.851  14.732   1.977 -0.0892  0.0741  0.2564
20750W        W36824   5.140   9.465   3.647  0.1006 -0.0388  0.1072
20751W        W36825   2.833  17.466   5.255 -0.0440 -0.2241  0.0817
20752W        W36826  10.838  14.818   4.618 -0.0476  0.1347 -0.1152
20753W        W36827   3.610  15.185  11.417 -0.3050 -0.0275  0.2062
20754W        W36828  12.634  18.440   4.792  0.2518 -0.1771 -0.0750
20755W        W36829   8.524   6.194  10.414  0.2052 -0.0682 -0.1539
20756W        W36830   8.177   1.536   4.834 -0.0253  0.1242  0.1159
20757W        W36831   4.902   9.086   3.356 -0.4085  0.3338  0.0222
20758W        W36832   1.562  11.225   4.232 -0.2057 -0.0781  0.0528
20759W        W36833   0.970   6.982  14.569  0.0850 -0.3520 -0.1178
20760W        W36834  12.989   0.666  10.652  0.2622 -0.0726  0.2213
20761W        W36835   6.767   3.173   3.076  0.0750  0.0241 -0.2334
20762W        W36836  15.165   3.487  13.105  0.1667  0.1250 -0.2407
20763W        W36837   8.384  18.868  14.939  0.0064 -0.2100  0.1954
20764W        W36838  15.348   8.269  14.932 -0.2440  0.1063 -0.1864
20765W        W36839   7.653  12.503   4.475  0.1357  0.0256  0.0673
20766W        W36840  16.685   9.100  10.087 -0.1496  0.0211 -0.1190
20767W        W36841  15.676   3.479  11.775 -0.0976  0.0194 -0.3536
20768W        W36842  15.228   5.345   4.133 -0.1173  0.0444  0.0941
20769W        W36843  12.836  13.744  14.353  0.2533 -0.4011  0.1186
20770W        W36844  12.964   7.804   2.809  0.0927  0.1045 -0.0892
20771W        W36845  17.201  10.114  12.620  0.0461  0.1031  0.2239
20772W        W36846   1.402  16.088  10.372  0.2372  0.5570 -0.0110
20773W        W36847   8.714   3.720   0.548  0.2307  0.1537  0.1734
20774W        W36848   4.060  15.536  12.286 -0.1424 -0.0527  0.0005
20775W        W36849   6.232  14.543   1.124 -0.2169 -0.1659 -0.0606
20776W        W36850  16.358   8.789   5.409 -0.1701  0.2217 -0.1092
20777W        W36851  12.767  18.537   0.515  0.4496  0.0439  0.1882
20778W        W36852  18.338   5.107  10.981 -0.2150 -0.2254  0.0059
20779W        W36853  15.739  12.388   2.203 -0.4030  0.0515  0.1033
20780W        W36854   7.462   5.053  12.800  0.1789 -0.1818 -0.0769
20781W        W36855  12.268  11.032  14.367  0.1343  0.0281  0.2243
20782W        W36856   4.447  17.342   3.183 -0.1802 -0.0881 -0.1271
20783W        W36857  17.966   3.251  10.061  0.0922 -0.1683 -0.0767
20784W        W36858   8.307   9.191   0.185 -0.1279  0.1200  0.2042
20785W        W36859  17.715   6.915   3.268 -0.1412 -0.0004 -0.2358
20786W        W36860   7.534   0.897   0.617  0.1677 -0.0607  0.0834
20787W        W36861   7.832  13.753  13.953  0.1621  0.3680  0.0797
20788W        W36862  12.437  15.290  14.884  0.4071  0.0946  0.1132
20789W        W36863  12.279   1.663  11.087 -0.1588 -0.1203  0.2058
20790W        W36864  12.424   2.669  13.634 -0.3036 -0.3674 -0.1130
20791W        W36865   9.074  11.238  13.304  0.2959 -0.2458  0.0782
20792W        W36866  18.818   3.912  14.724 -0.0569 -0.5701 -0.5254
20793W        W36867   2.219  14.548  11.549  0.1421 -0.1792  0.2345
20794W        W36868   6.612   6.112  13.942 -0.1888  0.0494  0.0271
20795W        W36869  15.612   9.231  11.780 -0.0503 -0.0184 -0.0128
20796W        W36870  12.741   3.787   5.605 -0.1000  0.0128  0.0929
20797W        W36871   6.116   8.880  13.730 -0.0544  0.1901 -0.1490
20798W        W36872   7.098   4.796   0.333 -0.1242 -0.0413  0.0287
20799W        W36873   7.956   2.919   2.571  0.3959  0.1758 -0.1896
20800W        W36874   3.163  14.732   3.022 -0.0642 -0.0526 -0.2435
20801W        W36875  16.062  10.147   3.803  0.1406  0.1520  0.0186
20802W        W36876  11.086  17.794   0.500  0.0327 -0.0452  0.2231
20803W        W36877  17.241  17.394  13.043 -0.0427 -0.2342 -0.2180
20804W        W36878   9.576   4.473  12.445 -0.0144  0.2745  0.0784
20805W        W36879  12.547  17.053  11.310 -0.2156 -0.1920 -0.0843
20806W        W36880  15.058  11.059  10.739 -0.0562  0.2443  0.0184
20807W        W36881   2.072  15.616   5.419  0.2121  0.1174 -0.1200
20808W        W36882  15.649   8.715   4.398 -0.1413 -0.0856  0.0896
20809W        W36883  19.100  17.936   0.621 -0.0380 -0.0874 -0.1995
20810W        W36884  18.239   4.364  10.691 -0.3326 -0.3221  0.1744
20811W        W36885  15.070  11.041   5.070  0.0656 -0.2215 -0.0235
20812W        W36886   2.243   1.831   1.884 -0.0532  0.0628  0.1966
20813W        W36887   7.026  10.998   3.420  0.2961  0.0025  0.1261
20814W        W36888  18.293   5.166   0.150 -0.1851  0.2084 -0.1642
20815W        W36889  17.684   2.853   2.279  0.1639  0.0699  0.3832
20816W        W36890   8.496   4.679   4.528 -0.0463  0.0387 -0.1044
20817W        W36891  14.550  16.119  11.930  0.4251 -0.3230  0.2826
20818W        W36892   9.499  11.719  12.947 -0.0504 -0.1433 -0.1552
20819W        W36893   9.438   5.214  11.700 -0.1820  0.0357  0.1645
20820W        W36894  17.557   9.583   1.756  0.2203 -0.3157 -0.1282
20821W        W36895   2.230   6.155   1.386  0.0232  0.0096 -0.0145
20822W        W36896   4.241  14.174  14.444 -0.1930 -0.0479 -0.1974
20823W        W36897   7.581   9.679   5.781  0.1674  0.2355 -0.2891
20824W        W36898   4.541  10.409  13.126  0.5167 -0.0184 -0.0599
20825W        W36899  18.710   6.655   3.217  0.0424  0.2463  0.0213
20826W        W36900   9.294   8.497   5.373  0.3246  0.0022 -0.3652
20827W        W36901   3.237   6.061  14.722  0.2725  0.0054 -0.1006
20828W        W36902  15.897  14.001  12.715 -0.1062 -0.2604 -0.0451
20829W        W36903   1.781   7.268  10.767  0.2160 -0.0999  0.2436
20830W        W36904   9.249   8.985  14.831 -0.0850  0.2513 -0.1640
20831W        W36905   9.561   3.455  13.269 -0.0905  0.1661  0.1780
20832W        W36906  18.062  15.531  10.904  0.2197  0.0042  0.1661
20833W        W36907  14.403   7.314   5.210 -0.4174 -0.3070 -0.2637
20834W        W36908  14.416   5.299  12.250 -0.1475  0.0620  0.1949
20835W        W36909   3.090   0.200   3.680 -0.1766 -0.0513 -0.1809
20836W        W36910   2.376   5.532  12.925  0.0710 -0.4858 -0.0545
20837W        W36911  13.894   5.104  14.100 -0.6133  0.0107  0.1003
20838W        W36912   1.312   3.102   5.167 -0.3036 -0.0382 -0.1161
20839W        W36913   8.035  18.536  12.314 -0.0931  0.0295  0.0963
20840W        W36914   9.938  11.698  11.940 -0.1554  0.2295  0.0794
20841W        W36915  13.375  13.891  12.951 -0.2442  0.1187 -0.3641
20842W        W36916  15.311   4.765   0.975 -0.3906 -0.2384  0.4016
20843W        W36917  10.926  11.018   3.803 -0.0800  0.0177 -0.1623
20844W        W36918   6.484  11.122   3.435 -0.1988 -0.0315  0.0114
20845W        W36919   6.981  18.545   3.769  0.1415 -0.1996  0.1522
20846W        W36920   9.689  18.453   5.553 -0.0783  0.2186  0.0336
20847W        W36921   9.710  19.251   4.555 -0.2585 -0.1424  0.4332
20848W        W36922   3.528   9.256   3.098 -0.0428 -0.0523 -0.0982
20849W        W36923  10.680   8.173   2.204  0.2510 -0.0516 -0.0421
20850W        W36924   5.035   5.670  11.686  0.4142  0.0155 -0.0074
20851W        W36925   6.335   4.200   6.068  0.3648  0.0382  0.2655
20852W        W36926  17.817  10.277   3.530  0.3270  0.0859  0.1117
20853W        W36927  12.122   2.002  11.868  0.1408 -0.3995 -0.0980
20854W        W36928  17.521  12.460   0.690  0.0417  0.2966 -0.3353
20855W        W36929  10.429   3.711  11.229 -0.3460  0.0769  0.4877
20856W        W36930  16.215   8.204  10.651  0.2165  0.3496 -0.2747
20857W        W36931   1.497  15.594  10.185  0.0713  0.1210 -0.3656
20858W        W36932  15.389   2.671  11.223  0.0648  0.0083  0.1155
20859W        W36933   4.869   5.460   5.222 -0.2437 -0.2313  0.0001
20860W        W36934   1.071  17.431  14.118  0.0257  0.0484 -0.1668
20861W        W36935  16.302   3.808   1.530 -0.3301 -0.0920 -0.2629
20862W        W36936   7.634   8.512   3.965  0.0908  0.2789  0.3053
20863W        W36937   1.864  13.197  12.082  0.0572 -0.1319  0.0240
20864W        W36938  13.238   0.022   1.225 -0.3014  0.3418 -0.1982
20865W        W36939   8.761   3.597   3.299  0.0251  0.1521 -0.1066
20866W        W36940   3.694   6.449   0.462 -0.3128  0.1153 -0.0158
20867W        W36941   3.909  12.189   3.121 -0.2684 -0.0260 -0.0877
20868W        W36942   3.458   9.997   0.694  0.5033  0.1352  0.3365
20869W        W36943   1.278   1.447  13.148  0.0761  0.1553 -0.3509
20870W        W36944  10.212   6.678  13.918 -0.2567 -0.2592 -0.1104
20871W        W36945  19.260  13.655   4.701  0.0492  0.2735 -0.3416
20872W        W36946   5.743   3.838  10.254 -0.1081 -0.2408  0.1483
20873W        W36947  16.785   4.158   3.552  0.4232 -0.1862 -0.3365
20874W        W36948   7.128   9.387   3.168 -0.1326  0.3199  0.1770
20875W        W36949  11.637   2.675   0.037  0.0463  0.1736  0.0997
20876W        W36950   7.347  10.122   5.823 -0.3915 -0.0715  0.3232
20877W        W36951  11.427  18.610   1.536  0.1357  0.2349 -0.1849
20878W        W36952  15.972   8.270   1.238  0.1977  0.2898  0.2538
20879W        W36953   0.224   5.850   1.816 -0.0398 -0.2333 -0.0348
20880W        W36954   6.636  18.465  11.503  0.1846  0.0884 -0.0026
20881W        W36955  10.668  11.804   4.243  0.0031 -0.0593 -0.0484
20882W        W36956  13.663  19.096  13.800  0.0176 -0.1059  0.1602
20883W        W36957   8.589   1.983   3.231 -0.3493  0.1300 -0.0160
20884W        W36958  14.453   8.994   5.179  0.0869  0.1720  0.5799
20885W        W36959  17.184   2.456   1.631 -0.0188 -0.3863 -0.0985
20886W        W36960   7.712  17.917  10.310  0.2369  0.1737  0.2366
20887W        W36961   2.676  10.016  13.761 -0.0094 -0.1444  0.0613
20888W        W36962  10.807   9.299  13.827 -0.0509 -0.1301 -0.3214
20889W        W36963   5.866  10.796  13.743 -0.2233 -0.0395 -0.2676
20890W        W36964  16.335   0.862   1.516 -0.0369  0.2246  0.0827
20891W        W36965   6.181   5.005  11.555 -0.1873 -0.5454 -0.0931
20892W        W36966   6.963  18.760   3.329  0.0653  0.3390  0.0600
20893W        W36967  17.673  16.291   0.066  0.0799 -0.0815 -0.0373
20894W        W36968  14.879  18.747  11.723 -0.1621  0.0378 -0.3317
20895W        W36969  19.180  11.253   9.049  0.2361 -0.1347  0.1135
20896W        W36970   1.717  15.384   2.696 -0.1552 -0.3388  0.3675
20897W        W36971   0.174  17.634  10.879  0.0764  0.1059 -0.0878
20898W        W36972   8.287   6.432   3.706 -0.1651 -0.2237  0.2064
20899W        W36973  19.147  15.984  11.431 -0.2535 -0.3060 -0.0225
20900W        W36974  12.065  17.896   1.203 -0.1502 -0.0874 -0.3193
20901W        W36975   9.186  10.914   3.846  0.3260 -0.3331 -0.1986
20902W        W36976   0.624  16.332   5.179 -0.3301  0.1985  0.1301
20903W        W36977  15.786  12.261   5.002  0.0337 -0.3550  0.0235
20904W        W36978  16.610  10.205   3.920  0.0192 -0.3628  0.3695
20905W        W36979   6.656  14.762  11.676 -0.0528 -0.1780 -0.3979
20906W        W36980  18.552  17.060   0.496 -0.2742  0.1420 -0.1056
20907W        W36981  14.807  10.502   4.280 -0.1637  0.0176 -0.1014
20908W        W36982   3.078   6.813   4.666  0.2355 -0.2492  0.2171
20909W        W36983   1.365  12.468   4.135 -0.2121  0.2587 -0.0481
20910W        W36984   4.758  11.174   3.550 -0.2607  0.0023 -0.1612
20911W        W36985  16.296   2.268  12.063 -0.0891  0.0398  0.2581
20912W        W36986   1.835   3.231  11.275  0.1858  0.0966  0.0304
20913W        W36987   9.060   2.853  12.716 -0.2068 -0.0132  0.0364
20914W        W36988  13.974   5.084   4.002 -0.0757  0.1699  0.2075
20915W        W36989  12.184  12.930   2.219  0.0517 -0.2244 -0.0524
20916W        W36990   6.786  11.673   9.604  0.3223  0.0055  0.0473
20917W        W36991   5.188   2.629   0.114  0.1456  0.1836 -0.2796
20918W        W36992  17.077  10.920   4.212  0.0160 -0.0089  0.1975
20919W        W36993  12.912   9.964  14.422 -0.0617 -0.1870  0.1546
20920W        W36994  17.962  12.341  11.904  0.0275 -0.7019  0.0696
20921W        W36995   4.640  17.223  12.488 -0.4080 -0.0736  0.4160
20922W        W36996  17.814   6.560  12.231 -0.2205 -0.0649  0.0578
20923W        W36997   9.964   6.678   0.692  0.2003 -0.2974  0.1527
20924W        W36998  19.168   6.862  10.597 -0.1422 -0.1977  0.2210
20925W        W36999   3.160   7.926  11.973 -0.1616  0.2501  0.0757
20926W        W37000  17.665   8.083   3.632  0.1733 -0.1159  0.3128
20927W        W37001  14.785   0.773  10.971 -0.0897  0.2700 -0.2804
20928W        W37002  17.790  15.963  12.607  0.1247  0.3695  0.3536
20929W        W37003  13.882  17.932   2.455 -0.3934  0.1594 -0.2981
20930W        W37004  17.869  12.621  13.755 -0.0381 -0.4980  0.0030
20931W        W37005   9.901   9.450  13.511 -0.0923  0.1945 -0.3720
20932W        W37006   0.409   1.490  12.819  0.0962  0.0352 -0.2054
20933W        W37007   0.447   0.041   3.483  0.1645 -0.0672  0.1946
20934W        W37008  18.266   2.617   1.225 -0.6672  0.2084  0.0118
20935W        W37009  18.491   1.338   1.032 -0.0342  0.3585  0.0591
20936W        W37010  17.984  13.452  13.773 -0.1047 -0.1843 -0.1253
20937W        W37011   1.534   0.309   0.022  0.0221 -0.2902  0.1475
20938W        W37012  15.343   7.821   0.042  0.1462 -0.3203 -0.0008
20939W        W37013  18.471  10.392  14.731  0.3557 -0.1678 -0.2679
20940W        W37014   4.817   5.644   1.662  0.1390  0.0216  0.1440
20941W        W37015   9.127  19.257  14.377  0.0034 -0.0034  0.1964
20942W        W37016  19.295  16.657   2.708 -0.1467 -0.0182 -0.0265
20943W        W37017  18.558   1.355   4.538 -0.0894  0.0667  0.2650
20944W        W37018   2.558  12.152   3.808 -0.0145  0.0086  0.0897
20945W        W37019   3.596   9.696   2.283  0.2596  0.1235 -0.0120
20946W        W37020   4.299  10.428   0.175 -0.2381  0.2219 -0.0841
20947W        W37021  12.725   1.302  14.957  0.3562  0.0946 -0.0341
20948W        W37022   6.809  14.672   2.631 -0.1996  0.4092  0.2420
20949W        W37023   3.405  14.646  14.022  0.2326 -0.0651  0.2641
20950W        W37024  10.014   6.329   5.418 -0.2068 -0.0960 -0.2880
20951W        W37025  18.416   3.418   4.770 -0.2497 -0.1754 -0.0599
20952W        W37026  18.848   5.349   1.306  0.2442 -0.0366  0.5708
20953W        W37027  12.923   3.382  11.078 -0.0438  0.1797 -0.1828
20954W        W37028  16.064  13.486   2.167 -0.1117  0.2118 -0.0304
20955W        W37029   4.617  15.531  12.107  0.0754  0.0394 -0.2479
20956W        W37030  13.878   4.949   1.823  0.0429 -0.4486 -0.2485
20957W        W37031  16.358   2.977   5.475  0.0308  0.0828  0.1662
20958W        W37032  13.828  14.982   5.240  0.0200 -0.0072  0.0756
20959W        W37033  16.617   4.651   0.437  0.3273 -0.1173  0.0179
20960W        W37034   8.641   5.756  13.262 -0.1210  0.4817  0.2144
20961W        W37035   8.786  15.229  10.012  0.2699 -0.1332  0.1104
20962W        W37036   8.481  10.410   1.948 -0.2814  0.0557  0.1967
20963W        W37037   2.365  12.416   3.179  0.0788  0.2242  0.0395
20964W        W37038   4.488   4.790  10.566 -0.0451  0.1419 -0.1073
20965W        W37039   0.228   0.990   4.428  0.1017  0.0708  0.3266
20966W        W37040   5.491   6.101   3.103 -0.1651  0.1363 -0.2716
20967W        W37041   3.240   8.880   3.256  0.3204  0.1473  0.0512
20968W        W37042  13.458   3.605   4.180  0.0758 -0.1536 -0.1968
20969W        W37043  19.281   8.311  12.159  0.1422 -0.2925 -0.2767
20970W        W37044   7.451   0.537   1.275  0.0220  0.0506 -0.0515
20971W        W37045  17.744  12.496   0.160  0.0073  0.1596 -0.2912
20972W        W37046  18.579  18.121   2.626  0.2260 -0.4870 -0.1204
20973W        W37047  12.137   2.891  11.473  0.0135 -0.0266 -0.2218
20974W        W37048   8.376  13.157  10.965  0.1528 -0.1299  0.1654
20975W        W37049   4.102   7.047  13.177 -0.1029 -0.2558  0.2298
20976W        W37050  11.924   3.447  11.525  0.1522 -0.1724  0.0457
20977W        W37051  16.553   1.849  12.206  0.0299 -0.0258 -0.0417
20978W        W37052   5.346  17.739   2.846 -0.2473 -0.1688 -0.0009
20979W        W37053  18.302   2.697   0.274  0.3115 -0.0987  0.0442
20980W        W37054  16.591  12.707   2.749  0.0138 -0.0477 -0.0013
20981W        W37055   6.826  18.098  10.585 -0.3912  0.1230 -0.5382
20982W        W37056   7.025   0.747   4.551 -0.3587  0.0540  0.0198
20983W        W37057  18.409  12.739  11.376 -0.0586 -0.1563  0.2504
20984W        W37058  16.845   0.198   4.022  0.1993 -0.0702  0.2175
20985W        W37059   0.355   4.223  11.891 -0.1420 -0.1688 -0.2576
20986W        W37060   3.763  10.751  11.095 -0.0311 -0.1180 -0.1046
20987W        W37061  15.436   1.450  10.911 -0.1342 -0.0211 -0.0023
20988W        W37062  18.900  10.764  14.797  0.1803 -0.0460  0.2587
20989W        W37063   1.264  13.899   4.574 -0.1001  0.0936 -0.2079
20990W        W37064  18.011   5.782   0.622  0.1544  0.0521 -0.0362
20991W        W37065   0.755  11.360  14.670  0.3437 -0.3424 -0.0650
20992W        W37066   9.518  11.717  12.359 -0.0992 -0.1449  0.1619
20993W        W37067  17.371  16.942   9.868  0.0340  0.2131 -0.1140
20994W        W37068   1.557  16.278   2.268 -0.2009 -0.2570  0.2686
20995W        W37069  18.106  19.018  12.117 -0.1069  0.0191 -0.0531
20996W        W37070  10.830  13.900  13.256 -0.0113 -0.0644  0.1840
20997W        W37071  16.289  13.847  10.973  0.2242 -0.0122  0.2021
20998W        W37072   9.868  11.653   1.557 -0.0395 -0.1876  0.0005
20999W        W37073  10.964   5.948  12.107  0.0375 -0.0630 -0.1197
21000W        W37074  14.081   9.702  14.498  0.1033  0.4767  0.1630
21001W        W37075   9.797  16.618  12.068  0.1965 -0.2019  0.1165
21002W        W37076  12.866   4.788  11.360  0.0342  0.0920 -0.0001
21003W        W37077  19.041   4.079  10.702  0.0505 -0.0474 -0.0920
21004W        W37078   1.393  19.029   0.747  0.2082  0.0018 -0.0284
21005W        W37079  11.269   1.767   1.919 -0.1934  0.0181 -0.2135
21006W        W37080   5.607   2.930  11.139  0.1870  0.2922 -0.0362
21007W        W37081   4.119  17.266  14.574 -0.1674  0.3312 -0.0672
21008W        W37082  11.554   8.897   3.960 -0.1243 -0.2037  0.1371
21009W        W37083   7.045   9.774  14.138 -0.3617  0.1958 -0.1875
21010W        W37084   2.133   2.687  14.417  0.1714  0.1579  0.4067
21011W        W37085   7.318   8.057   4.873  0.0920 -0.2018 -0.0579
21012W        W37086  13.778  17.375   3.357 -0.0304  0.2123 -0.0515
21013W        W37087   8.065  16.665   4.089  0.2024  0.2336  0.4818
21014W        W37088   3.769  18.112   4.224  0.0175 -0.0568  0.2121
21015W        W37089  11.198  10.227  14.628 -0.3204 -0.0797  0.0292
21016W        W37090  16.379  11.826  12.551 -0.2404  0.1523 -0.2753
21017W        W37091   0.755  10.198  12.192 -0.0889  0.0192 -0.2219
21018W        W37092  10.396  14.800   3.808 -0.1173 -0.0955  0.1159
21019W        W37093   2.954  17.607  11.330  0.0205  0.1268 -0.1104
21020W        W37094   8.117  19.143  11.454 -0.3491 -0.0156 -0.4306
21021W        W37095  14.534   8.974   1.568  0.0310 -0.2758 -0.0397
21022W        W37096   0.564   4.512   4.670  0.2369  0.1904 -0.0566
21023W        W37097  10.141  18.109   0.672 -0.0575  0.1704 -0.1361
21024W        W37098   3.279  10.250  11.261 -0.1333  0.0033  0.0064
21025W        W37099   7.107  12.312   2.801 -0.2854  0.3734 -0.3049
21026W        W37100  18.852  11.373  13.212  0.0976  0.2301  0.2165
21027W        W37101   6.200  13.916  11.494  0.0423 -0.0235  0.2844
21028W        W37102   1.514   7.033  14.691  0.2371  0.0564  0.0545
21029W        W37103  10.668   4.952   5.135  0.1734 -0.1258  0.2250
21030W        W37104  14.208  10.019   1.325 -0.1955  0.0797  0.2619
21031W        W37105   4.120   4.476   1.846 -0.4270 -0.0267  0.2802
21032W        W37106   5.739   8.393  10.630  0.1452 -0.1204  0.0865
21033W        W37107  14.196   0.628  14.583  0.1639 -0.5907 -0.0903
21034W        W37108  12.785  13.207   1.334 -0.1922 -0.1083 -0.4909
21035W        W37109   5.619  19.296  14.332  0.0279  0.1241 -0.2351
21036W        W37110  18.230   7.544  11.570  0.0502 -0.0809  0.2002
21037W        W37111   8.622  10.365  15.015 -0.0265 -0.1744  0.0320
21038W        W37112  18.518   8.471  10.566 -0.0341  0.0797 -0.1786
21039W        W37113  16.912  13.393  12.258 -0.0782  0.1789  0.2248
21040W        W37114   3.497   3.883  14.345 -0.0127 -0.1794 -0.1357
21041W        W37115  19.251  17.493   2.172 -0.1004 -0.1571  0.0830
21042W        W37116   6.705  12.618   9.837 -0.0301 -0.0103  0.0171
21043W        W37117   5.982  10.362  10.951 -0.1870 -0.2214  0.1148
21044W        W37118   9.267  13.358  13.611  0.1948 -0.1771 -0.0725
21045W        W37119   8.180   2.539   0.236  0.4097 -0.2614 -0.2096
21046W        W37120   6.696   6.902   2.003 -0.0279 -0.0184  0.0575
21047W        W37121   2.306   0.310  13.606  0.2049 -0.1018 -0.0089
21048W        W37122  15.044  15.396  13.032 -0.0621  0.2052 -0.1371
21049W        W37123  10.071  13.333   3.858 -0.0939  0.0671  0.0609
21050W        W37124   7.958  10.022  13.915 -0.2374 -0.1202 -0.0209
21051W        W37125  10.208   2.952  11.522 -0.0652  0.2010  0.0738
21052W        W37126  13.938  17.479  14.273  0.2366 -0.0055  0.1028
21053W        W37127  16.936  18.562  13.019 -0.3490  0.2697 -0.2146
21054W        W37128   0.404   9.320   9.585 -0.2325 -0.2325  0.0236
21055W        W37129   5.359  11.534  11.200 -0.2427  0.0257 -0.1917
21056W        W37130   5.957   1.422  13.664 -0.1213  0.4765 -0.0210
21057W        W37131  10.356   4.301  13.759  0.1063  0.2500 -0.0534
21058W        W37132  19.092   8.723   1.233  0.2968  0.3798  0.0881
21059W        W37133   1.357  12.428   2.936  0.1557  0.4805 -0.0571
21060W        W37134   8.366  13.280   1.956  0.2435  0.0907  0.0496
21061W        W37135  16.651  18.817  10.275 -0.1705  0.0064  0.3345
21062W        W37136  10.944  16.051   0.054  0.0909  0.2324 -0.0833
21063W        W37137   2.767  17.353  12.633  0.1070 -0.1079 -0.1907
21064W        W37138   0.645   7.008   0.450  0.3583 -0.1342  0.1013
21065W        W37139   0.997  15.726   3.960  0.1575  0.0545  0.1180
21066W        W37140  14.200  11.726  10.616  0.0163  0.0975  0.0096
21067W        W37141   5.020  17.841   1.319  0.0257  0.1481 -0.0076
21068W        W37142  15.794   7.185  12.644  0.1351  0.4034 -0.3283
21069W        W37143   4.420   3.515   4.051 -0.1619 -0.1865  0.1614
21070W        W37144  11.426  13.514   1.197  0.0537  0.3387 -0.1323
21071W        W37145  17.355   5.707   4.709 -0.0167  0.2329 -0.1064
21072W        W37146  15.863  15.477  12.102 -0.1004 -0.0453 -0.0682
21073W        W37147  11.242   2.827   5.137  0.0069 -0.2860  0.0350
21074W        W37148   7.265  13.172   3.546 -0.1789  0.0491  0.1195
21075W        W37149   4.862  12.201  11.940 -0.2689 -0.3230  0.2729
21076W        W37150  11.318  18.982  14.162  0.1178  0.0170  0.1192
21077W        W37151  13.451  17.485   3.714  0.3826 -0.0288 -0.3360
21078W        W37152   0.931   3.280   0.639  0.2286  0.1314  0.1015
21079W        W37153  16.207   3.848  12.120  0.1043 -0.1413  0.1504
21080W        W37154   1.115   8.590  14.995 -0.4065  0.1877 -0.1316
21081W        W37155  16.937   1.790   3.239  0.2645  0.1098 -0.1594
21082W        W37156  13.562   4.699   4.353 -0.0699  0.1029 -0.1617
21083W        W37157   8.473   0.708  11.428  0.1846  0.0016 -0.0261
21084W        W37158   0.654   0.256   3.099 -0.1855  0.1218 -0.2081
21085W        W37159  14.489  19.066   9.738 -0.0001  0.1925 -0.3517
21086W        W37160   1.228   7.853  11.534 -0.1085 -0.0171 -0.0390
21087W        W37161  16.873   9.950  14.662  0.1206 -0.0617 -0.3626
21088W        W37162  13.703  13.233   0.306 -0.0159  0.1888  0.0205
21089W        W37163  16.338  13.364   1.766 -0.1818 -0.0569  0.0336
21090W        W37164  12.292   3.232  12.261  0.0696 -0.1097 -0.2220
21091W        W37165  14.309   0.963   2.247  0.2638 -0.3329  0.0681
21092W        W37166  13.534  16.058  10.843  0.0898  0.3411 -0.0694
21093W        W37167   7.165  11.959   3.325  0.3783 -0.0893 -0.1219
21094W        W37168  17.816  16.152   4.013 -0.2417  0.2101 -0.3655
21095W        W37169  11.338   0.436   1.266  0.0984 -0.0301 -0.2564
21096W        W37170   1.046  12.290  11.414 -0.0216 -0.1435 -0.0334
21097W        W37171   5.054   7.451   1.319 -0.1675  0.0623  0.0346
21098W        W37172  11.225  16.077   4.799  0.2157  0.1258 -0.1032
21099W        W37173  17.709   4.437  14.139 -0.1494  0.3038 -0.0838
21100W        W37174   7.342  16.026  12.067  0.4520 -0.0356  0.1528
21101W        W37175  10.198  12.414   4.823 -0.2079 -0.2583  0.0093
21102W        W37176   9.752  17.825   0.431  0.1500  0.2181 -0.1700
21103W        W37177   1.384   2.612   1.978 -0.0231 -0.3045  0.0359
21104W        W37178   3.915  18.246  13.754 -0.2216 -0.0391  0.2263
21105W        W37179   7.192  10.106   3.885  0.2310  0.1401  0.1083
21106W        W37180   9.410  18.141   4.347 -0.0273  0.2995  0.0884
21107W        W37181  16.074   2.769  10.629 -0.0416 -0.0301  0.1273
21108W        W37182   6.226   9.797   3.860 -0.0009 -0.1401 -0.2013
21109W        W37183  17.328  19.164   3.084 -0.0360 -0.3543  0.1779
21110W        W37184   2.246   9.296   3.996  0.2637  0.0604 -0.0902
21111W        W37185   7.946   4.652   3.462 -0.1400 -0.3060 -0.0994
21112W        W37186  14.745   3.835   2.645 -0.0712  0.4712 -0.1351
21113W        W37187   3.932   2.713   2.520 -0.1557  0.0262  0.1225
21114W        W37188  15.233  17.298   1.295  0.1892  0.0978 -0.1507
21115W        W37189  11.289  12.580  13.892  0.2316  0.2261 -0.0758
21116W        W37190   3.919  14.699   1.118  0.1082  0.2118 -0.1176
21117W        W37191   0.681  19.236   9.595  0.0872 -0.0091 -0.0619
21118W        W37192   7.780   5.030  14.828 -0.1435  0.1360 -0.0248
21119W        W37193   0.868  16.735   4.290 -0.1767 -0.1060 -0.1687
21120W        W37194   6.518   6.892   0.484  0.0646  0.3419  0.0466
21121W        W37195   7.050  16.935   0.590  0.1155  0.2559  0.2925
21122W        W37196  12.289  18.335   4.323  0.1713  0.0936  0.0859
21123W        W37197   0.801  15.876  12.937 -0.4412  0.3019 -0.5426
21124W        W37198   2.641   2.472   1.699 -0.0664 -0.0057 -0.4106
21125W        W37199  15.912  10.587   2.817  0.0650  0.3147 -0.1940
21126W        W37200   4.840   8.537   2.135 -0.0187 -0.0681 -0.3095
21127W        W37201   7.240  18.398  12.471 -0.3367 -0.0317  0.0502
21128W        W37202  11.424  16.098   3.058 -0.1523  0.6517 -0.2057
21129W        W37203   7.663  16.410  11.104 -0.1851 -0.0492  0.1957
21130W        W37204  14.483   8.678  12.851 -0.2493  0.0467  0.3166
21131W        W37205  15.684   7.902   0.967  0.3390 -0.0124  0.1381
21132W        W37206  14.136  17.265  12.509  0.0194  0.0430  0.5390
21133W        W37207   6.825   1.452   1.856 -0.0475 -0.1709  0.0308
21134W        W37208   9.015   9.857  14.209 -0.0179 -0.3134 -0.1641
21135W        W37209  17.791  19.147   1.898  0.1180  0.1358  0.1213
21136W        W37210   2.763   0.385   3.076 -0.0222 -0.3233 -0.1082
21137W        W37211   4.566  11.451   2.453 -0.1277  0.1622  0.3042
21138W        W37212   4.960   5.726   6.247  0.2057 -0.2372 -0.0973
21139W        W37213   8.340   1.229   4.409  0.2796  0.1640  0.1570
21140W        W37214   1.903   1.209  14.682  0.0443  0.0441  0.0002
21141W        W37215   6.481  15.042   1.037  0.2623 -0.1408 -0.1031
21142W        W37216   4.068  15.503   2.292 -0.3083 -0.2855  0.0097
21143W        W37217  11.786   0.753   3.733  0.0206  0.1468  0.2391
21144W        W37218  13.527   8.079   3.796 -0.1740 -0.0314 -0.3282
21145W        W37219   3.383   1.529  12.678 -0.0081  0.1083  0.0401
21146W        W37220  18.993   7.604   4.423  0.0709 -0.0639  0.0536
21147W        W37221  19.031   0.336  11.985 -0.1121  0.2471 -0.0800
21148W        W37222  11.331  17.267  14.136  0.0538 -0.1912  0.0573
21149W        W37223   7.119   8.972   2.344 -0.0295  0.1211 -0.2770
21150W        W37224   6.900  10.128   0.762 -0.1201 -0.1704 -0.1460
21151W        W37225   5.774   5.004   5.916 -0.2762  0.2038 -0.1544
21152W        W37226  18.996  16.947   0.924 -0.1906  0.0888 -0.1143
21153W        W37227   3.877  17.280   4.879 -0.1549  0.2664 -0.0298
21154W        W37228  15.222  17.583  10.954 -0.1723 -0.2342  0.0339
21155W        W37229   0.331  12.010   9.477 -0.0646  0.1386  0.3615
21156W        W37230   2.690   4.117  14.325 -0.0779 -0.0243  0.2025
21157W        W37231  11.363  12.074   0.191  0.1235 -0.0153 -0.2187
21158W        W37232   5.382   3.176   1.737 -0.1103  0.3428 -0.1429
21159W        W37233   1.137  16.161   2.507  0.1741 -0.3269  0.1383
21160W        W37234   4.038  10.218   4.628  0.1097 -0.0933  0.2200
21161W        W37235   5.690   1.092  13.893  0.0152  0.1018 -0.0284
21162W        W37236   6.863  12.862  15.049 -0.2739 -0.4657  0.0741
21163W        W37237  14.431   3.672  12.082  0.0668  0.0054 -0.0330
21164W        W37238   5.403   4.485   0.104  0.0588  0.1502  0.3418
21165W        W37239   2.662   6.230   2.867  0.1913  0.0244  0.3918
21166W        W37240   1.296  13.013  14.563 -0.0323  0.0599 -0.2957
21167W        W37241  17.182   1.405  14.640  0.3103 -0.0388  0.1445
21168W        W37242  12.535   1.414   1.130 -0.2370 -0.0304 -0.2114
21169W        W37243   2.622   6.645   0.505  0.4446 -0.1227  0.1595
21170W        W37244   5.722   3.683  14.628 -0.3366 -0.0510 -0.3985
21171W        W37245   5.065   7.669  11.544 -0.0067  0.0593 -0.1179
21172W        W37246   3.265  18.311  14.964  0.3402  0.0872 -0.1448
21173W        W37247  16.574   1.722   4.377 -0.2851  0.0001 -0.2272
21174W        W37248  14.835  12.719   3.600  0.1015 -0.0432 -0.0953
21175W        W37249   9.531  13.081   1.889 -0.5349 -0.1100  0.2245
21176W        W37250  14.815   1.191   1.522 -0.0511  0.2934 -0.3051
21177W        W37251   7.929   1.269   0.444  0.0232 -0.1552 -0.2653
21178W        W37252  13.823  17.106   1.204 -0.2555 -0.4028  0.1013
21179W        W37253  11.399  10.741   2.879  0.0137  0.0660 -0.3009
21180W        W37254   7.243   3.770   3.621 -0.0028  0.0546 -0.3827
21181W        W37255  14.264  16.053  12.930 -0.2668  0.2991  0.4309
21182W        W37256   7.430   5.862   2.235 -0.1487 -0.1497  0.3460
21183W        W37257   1.928   1.994   3.217 -0.0474 -0.1138  0.1133
21184W        W37258   8.721   8.106  13.580  0.1278 -0.4897 -0.3908
21185W        W37259  14.567   4.882   3.395  0.5054  0.2378  0.0671
21186W        W37260  18.998  11.066   3.050  0.6135  0.2985  0.1905
21187W        W37261  17.238  10.041  13.117 -0.2933  0.0544  0.1159
21188W        W37262   1.065  12.340   3.705 -0.1697 -0.1759  0.2087
21189W        W37263  17.941   6.971   0.747  0.0917  0.1936  0.0276
21190W        W37264   7.148  15.637  14.324 -0.2475  0.5877 -0.2748
21191W        W37265  10.694  12.779  11.609  0.0531  0.2068  0.1679
21192W        W37266   7.708   0.241   3.587  0.1214  0.0427 -0.1828
21193W        W37267   6.682  18.849  11.932  0.1766  0.1818  0.0078
21194W        W37268  16.180   9.569  14.108  0.2597  0.2247  0.3816
21195W        W37269   6.373  18.569   1.861  0.0021  0.1616  0.3348
21196W        W37270   5.333  18.552   4.403 -0.1724 -0.3244  0.1969
21197W        W37271  10.032   4.854   0.502 -0.0271  0.1370  0.1067
21198W        W37272   7.785  14.414   0.481  0.3668  0.3660 -0.0613
21199W        W37273  14.615  11.244   3.193 -0.0664  0.1260 -0.1538
21200W        W37274   0.933  16.856   1.668  0.0699  0.1098  0.0175
21201W        W37275   7.835   4.569  12.884  0.1614  0.1676 -0.0522
21202W        W37276  13.043   0.105  13.114 -0.0115 -0.1187 -0.0692
21203W        W37277  13.411   4.729  13.145 -0.3762  0.4012  0.5089
21204W        W37278   6.534  17.788  13.515  0.0364  0.1230 -0.2572
21205W        W37279  10.014   1.398   2.885  0.0197 -0.0143 -0.1441
21206W        W37280  18.834  11.720  10.229  0.3665 -0.0175  0.2256
21207W        W37281  11.089  10.827   4.654  0.1217  0.0041 -0.3388
21208W        W37282  18.519  11.863  14.460 -0.2200 -0.2051  0.1044
21209W        W37283   7.542   6.878   0.277 -0.1410  0.0427 -0.0720
21210W        W37284   5.383  16.258  12.603  0.1842 -0.2322  0.0905
21211W        W37285  16.449  17.690  14.159  0.0317  0.1768 -0.1464
21212W        W37286  10.068  17.700  12.054 -0.3468  0.0489  0.1645
21213W        W37287  15.385  16.197   9.846 -0.0089  0.2445 -0.1816
21214W        W37288   7.397  17.199  14.422  0.2432  0.0895 -0.2489
21215W        W37289   9.460   7.641   4.150 -0.0687 -0.0758  0.2359
21216W        W37290   2.063  10.597  10.090 -0.0220  0.2850  0.2946
21217W        W37291  17.448   0.592  10.555  0.0058 -0.2983 -0.0813
21218W        W37292   2.026  19.230   3.292 -0.3041 -0.0912 -0.0704
21219W        W37293   1.858  13.644  13.271  0.0506 -0.0732  0.1324
21220W        W37294  17.387   2.305  12.212  0.0037  0.0245 -0.0820
21221W        W37295   9.656   8.827  10.926 -0.2668 -0.0818  0.0258
21222W        W37296  12.373   2.130   5.206 -0.0491  0.2134  0.5477
21223W        W37297   8.800   3.529   3.981 -0.0666 -0.0383 -0.0057
21224W        W37298  19.251  17.925   0.014 -0.1303 -0.3606 -0.1297
21225W        W37299  11.933   9.286  14.571 -0.2719  0.0052  0.0214
21226W        W37300   3.344  16.601   1.648  0.1458  0.0139 -0.3589
21227W        W37301   0.083   4.379  13.339 -0.0091  0.3478 -0.1113
21228W        W37302  13.017   0.421   1.604  0.2300  0.0497 -0.1397
21229W        W37303  16.999  11.278   4.770 -0.0302 -0.1387  0.2308
21230W        W37304   0.505   6.888   5.065 -0.2073 -0.0884  0.1303
21231W        W37305  18.176   0.819   3.449 -0.2720  0.0679 -0.0664
21232W        W37306  11.542  15.305   3.423  0.0685 -0.1277  0.0950
21233W        W37307   7.447  17.447   4.125  0.1092  0.1158 -0.2079
21234W        W37308  11.040  16.949   2.900 -0.1884 -0.2006  0.1235
21235W        W37309  16.493   7.380   4.819  0.1557 -0.2013  0.1386
21236W        W37310   0.286  13.597   3.037 -0.0579 -0.1486 -0.1447
21237W        W37311   2.481   6.687  13.972  0.3034 -0.1679  0.0332
21238W        W37312  10.359   0.421  10.654  0.2346 -0.1257  0.0176
21239W        W37313   8.670  18.109   4.994  0.1318  0.0197  0.1603
21240W        W37314   9.499   6.850   2.950 -0.0224 -0.0465  0.1492
21241W        W37315  16.111  17.083   4.090 -0.3149 -0.3446  0.0015
21242W        W37316  16.643   6.283   5.291 -0.1034  0.1691 -0.1780
21243W        W37317  13.723   2.555  12.816  0.0498  0.0825  0.1440
21244W        W37318   8.313   1.270  13.116 -0.0798  0.0850  0.2227
21245W        W37319   5.849   1.305   2.810 -0.3177 -0.0645  0.0754
21246W        W37320  19.057  17.608   1.672 -0.0804 -0.2512 -0.0002
21247W        W37321   6.301   7.682  11.068  0.1129 -0.1543 -0.1000
21248W        W37322  16.527  15.444  10.822 -0.0276 -0.1300 -0.0363
21249W        W37323  12.006  11.555   2.756 -0.0662  0.0938  0.0357
21250W        W37324   9.984  12.446  12.738 -0.0511 -0.3509  0.0111
21251W        W37325  17.901   2.105   5.542  0.0600  0.0144  0.4093
21252W        W37326  16.688   2.294   9.189  0.0952 -0.0025  0.0984
21253W        W37327   2.074  17.664  14.293  0.2253 -0.3859 -0.2869
21254W        W37328   2.031   4.454   1.943 -0.1726 -0.0284  0.1545
21255W        W37329  17.050  16.897   0.152  0.3005  0.2123 -0.0656
21256W        W37330   9.812  18.913  10.954  0.0255  0.0242  0.2788
21257W        W37331   5.659   9.782   1.511  0.1107  0.0721 -0.1355
21258W        W37332   9.219  11.935   3.698 -0.0352  0.2291 -0.1096
21259W        W37333  13.156  11.507  13.632  0.3653  0.1770  0.0166
21260W        W37334   1.408   9.459   2.934 -0.0586 -0.0628 -0.3066
21261W        W37335  15.487   2.589   2.445  0.2599  0.2136 -0.0844
21262W        W37336   5.240   7.581   0.482  0.0299 -0.0498  0.3249
21263W        W37337  13.221  19.219   3.014  0.1381 -0.0451 -0.0642
21264W        W37338  12.483  18.095  14.195  0.2341  0.0958  0.1572
21265W        W37339  11.407  17.329   3.721  0.2927 -0.5612  0.0743
21266W        W37340   3.290  15.320   5.504  0.0782 -0.1238 -0.3264
21267W        W37341   2.805   5.872  11.630  0.3699  0.1944 -0.0694
21268W        W37342  15.763   5.230  12.865 -0.0802  0.0979  0.0368
21269W        W37343  16.604   3.476  13.552 -0.1359 -0.2873 -0.2412
21270W        W37344  14.925   3.229  10.881  0.0739  0.0815 -0.3522
21271W        W37345   6.528   4.132   5.623 -0.0885 -0.0154  0.0162
21272W        W37346   4.994  11.575   0.347  0.2079 -0.2310 -0.0812
21273W        W37347  12.521  16.715  10.447  0.0538  0.1569 -0.0245
21274W        W37348  15.607   5.102  14.879  0.6115 -0.1104  0.0671
21275W        W37349   8.960   1.860   0.210 -0.2445 -0.1049  0.1320
21276W        W37350   4.542  12.863   0.746  0.0968 -0.0041 -0.0626
21277W        W37351   9.193   8.857  13.068  0.2756 -0.0302  0.0946
21278W        W37352  13.086  10.889  12.202 -0.0798 -0.1146 -0.4276
21279W        W37353   5.776  17.354   1.953 -0.0634 -0.1035 -0.3526
21280W        W37354   3.816   6.372   2.810 -0.0032 -0.2377  0.0081
21281W        W37355  15.760  18.304  10.248  0.0294  0.0039 -0.0962
21282W        W37356   0.342  16.042   0.497  0.0460  0.0173 -0.1005
21283W        W37357  11.399  15.050  11.092 -0.1092  0.1514  0.2811
21284W        W37358  11.007  14.201   2.832 -0.4885  0.0464  0.0125
21285W        W37359   6.232  14.470  11.466 -0.0412 -0.2830  0.0707
21286W        W37360  14.760  10.065   0.660  0.3190  0.0860  0.2408
21287W        W37361   7.377   7.463   1.748  0.0390 -0.1228 -0.1083
21288W        W37362  13.292  10.230   5.267  0.2162  0.0256  0.1699
21289W        W37363   8.757  18.560  12.756 -0.1255  0.1429  0.3072
21290W        W37364   5.827  12.924   1.808  0.0870 -0.4037 -0.1517
21291W        W37365   9.808   9.686  13.098 -0.1491  0.0847  0.1159
21292W        W37366   1.633  11.875   9.158  0.0595 -0.2053 -0.1691
21293W        W37367   8.616  15.850   0.590  0.1803 -0.2452 -0.1521
21294W        W37368  10.056  13.036   5.257  0.0965  0.3515 -0.0452
21295W        W37369   0.489   5.853  13.052  0.0729 -0.1135  0.2594
21296W        W37370  10.690  14.644  11.243  0.0122 -0.0168 -0.2150
21297W        W37371  19.117   1.431  14.100  0.2226 -0.3637  0.1073
21298W        W37372  15.196   1.482  14.064  0.1390  0.0297 -0.0470
21299W        W37373  16.392   2.103   1.323  0.0696 -0.2858 -0.3058
21300W        W37374   9.144   3.287  14.518 -0.0249 -0.0626 -0.0777
21301W        W37375  12.446  11.758  14.380 -0.2727  0.0675  0.0013
21302W        W37376  19.205  12.102   0.037  0.1647  0.0242 -0.2607
21303W        W37377   8.220   2.740  11.064 -0.1847  0.2748  0.2901
21304W        W37378  10.465  16.727  13.324 -0.0828  0.2019  0.0985
21305W        W37379   7.303  16.077   4.304  0.0225  0.0948 -0.1655
21306W        W37380  17.345   7.961   5.022  0.1164  0.1059 -0.0085
21307W        W37381   2.516  13.008   9.200  0.3738  0.1028  0.0176
21308W        W37382  17.529  15.216  14.301 -0.3305 -0.3663  0.1064
21309W        W37383  15.212  10.894   2.533  0.2971 -0.1065  0.0588
21310W        W37384  16.420  18.236   0.161 -0.0463  0.1805  0.1033
21311W        W37385   1.700   7.683   5.710 -0.1360 -0.0799  0.2885
21312W        W37386  13.125  13.523  14.653 -0.1907  0.2234 -0.1478
21313W        W37387   6.975   3.675   1.016 -0.0084 -0.1564 -0.0360
21314W        W37388  15.734  12.243  13.135  0.0350 -0.0579  0.1661
21315W        W37389  10.659   2.400  11.338 -0.2128  0.3050 -0.3889
21316W        W37390  17.873   1.772  12.170  0.2040 -0.0007  0.0202
21317W        W37391  10.907  12.867   5.074 -0.2098 -0.0183  0.1509
21318W        W37392  13.981   7.591  13.900 -0.3855  0.0647 -0.1839
21319W        W37393   0.964   9.739  12.556 -0.0705 -0.0700  0.4078
21320W        W37394   5.577  18.648   1.224 -0.1283  0.0397  0.0557
21321W        W37395   2.813  11.492   0.465 -0.3537 -0.0158  0.0954
21322W        W37396  18.941   4.646   1.547  0.2417  0.1410  0.1077
21323W        W37397  14.954   4.687   3.017 -0.2038 -0.1412  0.1170
21324W        W37398   1.767  17.244   2.554  0.3272 -0.0618  0.0626
21325W        W37399   8.454  10.936   5.465  0.1384  0.3597  0.3081
21326W        W37400  13.869   7.939   2.374  0.1459  0.0865  0.6487
21327W        W37401   7.721   1.384  14.844  0.0203 -0.1172 -0.1593
21328W        W37402   0.566   1.386   4.175  0.0832 -0.2744 -0.1739
21329W        W37403   5.035  17.264  14.289  0.0138  0.0726  0.0327
21330W        W37404  13.347   4.185   1.463 -0.1279 -0.3734 -0.1768
21331W        W37405  11.827  18.340  10.407 -0.0429 -0.0098 -0.1193
21332W        W37406   9.226   1.172   4.053  0.3097 -0.1833  0.1650
21333W        W37407  18.294   4.235   3.801  0.2388 -0.0139  0.1982
21334W        W37408   5.639  12.340   4.455  0.0231  0.2296  0.2017
21335W        W37409  17.234   2.079  14.177  0.0609  0.0072 -0.1822
21336W        W37410   4.062  17.546   2.413 -0.1897 -0.0279  0.2233
21337W        W37411   9.774  14.271   3.964  0.0026  0.1114 -0.1894
21338W        W37412  16.689   2.857   1.827  0.0371 -0.0224  0.0958
21339W        W37413   6.748   4.915  13.909 -0.2411 -0.1667  0.1272
21340W        W37414   4.905  10.129   4.165  0.3216  0.0032  0.0588
21341W        W37415  10.602   6.036   2.706  0.1857 -0.0498  0.3171
21342W        W37416   7.676  16.748   1.349 -0.1020 -0.1155  0.1064
21343W        W37417   7.227  11.921   1.777 -0.3603  0.1174  0.3849
21344W        W37418   1.271  14.628  13.338 -0.2206 -0.1131  0.0766
21345W        W37419   9.823   9.017   1.806 -0.2252  0.1744 -0.1087
21346W        W37420  16.840   5.456   2.855 -0.0402 -0.0306 -0.0344
21347W        W37421  17.346   4.042   2.247  0.0959  0.1928 -0.1995
21348W        W37422  15.969  12.233   4.255 -0.1046  0.1352 -0.5864
21349W        W37423  19.305  14.611   1.800  0.1842  0.0155  0.0409
21350W        W37424  17.297  11.834   1.167 -0.2323 -0.1956 -0.2002
21351W        W37425  12.783   2.936   4.100  0.1324 -0.0466 -0.3408
21352W        W37426  14.114  12.071  14.981 -0.2377  0.1056  0.0333
21353W        W37427  10.530  17.206  13.407 -0.1117  0.1112  0.2801
21354W        W37428  15.241   5.267   1.628  0.0104 -0.0542 -0.1424
21355W        W37429  17.971  12.963   2.560 -0.3604 -0.0588  0.0250
21356W        W37430  15.429   0.059   1.280  0.0934 -0.0185  0.2127
21357W        W37431   2.381  13.737  13.213  0.0924  0.0260 -0.0490
21358W        W37432  15.210   3.004   2.355  0.1286  0.0275  0.0236
21359W        W37433  10.784   3.178   2.112  0.2147  0.2622 -0.2295
21360W        W37434   7.888  16.779   3.056  0.1470  0.3013  0.0888
21361W        W37435  10.682  17.950  11.448 -0.0190 -0.1316  0.1458
21362W        W37436   5.006   6.809  12.306 -0.1652 -0.0269  0.0699
21363W        W37437  19.182   3.383   4.513 -0.0448  0.1269 -0.0635
21364W        W37438  15.121   6.469  12.844 -0.1707 -0.0156 -0.0983
21365W        W37439   4.022  14.255   1.522 -0.1013  0.0044  0.0274
21366W        W37440  15.710   4.956   1.584 -0.0029 -0.0714  0.1072
21367W        W37441  10.793   7.359  14.427  0.1979  0.1862 -0.4167
21368W        W37442   7.106  14.790   1.749  0.1353  0.1118 -0.1462
21369W        W37443  18.750   1.391   4.042  0.0300 -0.0736  0.1515
21370W        W37444  17.897   8.372   0.218 -0.0221 -0.5274 -0.2311
21371W        W37445   2.786   2.099   4.970  0.1348 -0.0705  0.1699
21372W        W37446  11.516  11.217   4.592  0.0542  0.1093 -0.2111
21373W        W37447  12.626   6.575   4.217  0.0396  0.0147  0.0823
21374W        W37448   4.264  16.487  11.515 -0.1488  0.1373  0.1732
21375W        W37449  18.095  11.791   3.314 -0.1624 -0.0159 -0.1966
21376W        W37450   4.733  18.872  12.709 -0.0963  0.0049  0.0869
21377W        W37451  13.761  15.798  13.452  0.1756  0.0016 -0.2265
21378W        W37452  16.300   1.097  11.593  0.1262 -0.0595  0.1918
21379W        W37453   9.077   9.951  12.003  0.0903  0.0180  0.2913
21380W        W37454   4.533  16.077   3.822  0.0301  0.5148 -0.4078
21381W        W37455  18.250  15.011  11.653 -0.0608 -0.0718  0.0542
21382W        W37456   8.374  18.143   3.714 -0.0955 -0.0478  0.2887
21383W        W37457  18.335  10.190  14.260  0.0084 -0.1814 -0.2247
21384W        W37458   2.565   5.456  11.610  0.0998  0.1473  0.3481
21385W        W37459  18.232  17.540   9.295  0.2236 -0.5183 -0.0231
21386W        W37460   8.540  10.639   1.508  0.2053 -0.3580  0.1595
21387W        W37461   7.217   6.764   0.675 -0.2671  0.4318 -0.0047
21388W        W37462   5.229   3.887   1.289  0.0401 -0.1714 -0.4793
21389W        W37463   6.270   3.465   1.694 -0.1233 -0.0013  0.3323
21390W        W37464  17.095   7.972   0.559 -0.1415  0.2536  0.0831
21391W        W37465   1.841  16.693  14.879  0.1209 -0.0232 -0.0678
21392W        W37466   3.630   4.881   0.278  0.1464  0.0918  0.5883
21393W        W37467  17.703   3.170   4.826  0.0166  0.0898 -0.1739
21394W        W37468  19.073  13.761   1.719  0.0157  0.1307  0.2257
21395W        W37469  17.254   2.688  10.234 -0.1499 -0.0497 -0.2837
21396W        W37470   0.383   2.256   1.459  0.1926 -0.3705 -0.1998
21397W        W37471  13.814   4.064   1.710 -0.0253  0.1866 -0.0706
21398W        W37472   8.644  15.345  11.925 -0.0200  0.1938  0.0491
21399W        W37473  12.592   5.288   4.112 -0.3939 -0.2721 -0.0473
21400W        W37474   6.327  11.124  12.991 -0.2152 -0.1908 -0.0182
21401W        W37475   9.520   7.643   2.811 -0.1708 -0.2672  0.0005
21402W        W37476  13.523  10.996   3.461  0.0254 -0.2371 -0.2883
21403W        W37477  11.779  17.133   4.440 -0.0758 -0.1349 -0.0041
21404W        W37478   1.266  10.648  14.038 -0.1682  0.1598  0.1895
21405W        W37479   1.242   5.936   1.296 -0.2514  0.3436 -0.1043
21406W        W37480   7.199  13.316  13.205  0.1876  0.1532  0.0653
21407W        W37481  17.420   4.183   1.779 -0.0955  0.0227  0.3208
21408W        W37482   9.608   1.985   3.335 -0.2026  0.1373  0.0651
21409W        W37483   5.710   8.119   5.733 -0.0514  0.1890 -0.2508
21410W        W37484   4.846  15.159  10.662  0.3200 -0.1081  0.0344
21411W        W37485  10.659  14.518   1.938 -0.0091 -0.1814 -0.1486
21412W        W37486   1.002  13.528  14.152 -0.2446  0.0761 -0.1057
21413W        W37487   2.127  18.095   3.603 -0.0838 -0.2304 -0.2305
21414W        W37488  17.419   9.673  12.800  0.0773  0.2832 -0.0404
21415W        W37489   7.435   5.967   9.842  0.1413 -0.1432 -0.1522
21416W        W37490   3.807  12.480  12.810  0.0642 -0.0710  0.0216
21417W        W37491  10.779  14.162   0.600  0.0138  0.2897  0.1968
21418W        W37492   8.895   6.809   0.142  0.1882 -0.2062 -0.3149
21419W        W37493   6.383  13.303   3.592 -0.0301 -0.3530  0.4170
21420W        W37494   8.291  14.294   0.330 -0.0747  0.0227  0.0909
21421W        W37495   1.343   3.143  11.163  0.0176  0.1971 -0.0054
21422W        W37496  13.091  16.287  12.900 -0.0267  0.0954  0.0691
21423W        W37497   9.572   6.385  14.585 -0.1483 -0.0466 -0.1464
21424W        W37498  16.898  11.666  13.422 -0.0452  0.0237  0.2652
21425W        W37499   5.767   9.971   1.049 -0.1738  0.0784 -0.1152
21426W        W37500   8.899  12.877   1.410  0.2201  0.3226  0.1620
21427W        W37501   4.007   2.232  10.302  0.0009 -0.2687  0.1089
21428W        W37502  14.207  17.720  11.194  0.3184  0.1167  0.1271
21429W        W37503  16.708  14.250   4.521  0.0881 -0.1350 -0.1811
21430W        W37504   1.891   1.887   0.284 -0.0721 -0.1122  0.4841
21431W        W37505  19.153   2.754   5.198  0.3365 -0.2212  0.2332
21432W        W37506  18.761  19.304  10.394 -0.2458  0.2721  0.1794
21433W        W37507   4.654   8.310   4.821  0.1036  0.2920 -0.4721
21434W        W37508   0.111   5.055  13.218 -0.0359 -0.1726 -0.1651
21435W        W37509  14.132  12.837  13.814 -0.0650  0.0991 -0.1544
21436W        W37510  15.949  18.505  13.354 -0.2326  0.0920  0.2789
21437W        W37511  17.024  17.042  13.279 -0.0706  0.0015  0.1647
21438W        W37512   2.424  10.791  14.049  0.4663  0.1735 -0.1901
21439W        W37513   7.453  17.444   4.660  0.1734  0.2272  0.3631
21440W        W37514  11.665   8.405  14.839  0.0986 -0.0029 -0.0964
21441W        W37515  11.354   5.992  11.763 -0.1128 -0.0035  0.0054
21442W        W37516  18.726   7.680   0.701  0.2827  0.0574 -0.1924
21443W        W37517  12.579  16.137   5.094 -0.1791 -0.1210  0.0294
21444W        W37518  12.400  10.506  12.821 -0.2638 -0.2303 -0.2964
21445W        W37519  11.542   8.254  13.114  0.0114  0.1967 -0.2757
21446W        W37520   8.686   1.870   0.744 -0.0176  0.1505 -0.0596
21447W        W37521  16.179  15.098  11.115 -0.2763  0.1990  0.1739
21448W        W37522   0.976  11.468  13.966  0.2693 -0.2536  0.1068
21449W        W37523   0.359   2.189  12.588  0.0162  0.0455  0.1065
21450W        W37524  18.252  13.535   2.929  0.1563  0.2225 -0.2532
21451W        W37525   2.925  16.691  11.683 -0.3641 -0.0225 -0.1024
21452W        W37526   3.985  16.602   4.265 -0.0433  0.1714  0.1958
21453W        W37527   6.401  10.876  12.510 -0.0975  0.1385 -0.3428
21454W        W37528   4.321  16.399   1.460  0.0452 -0.1451  0.1734
21455W        W37529  11.072  17.260   0.612  0.0855 -0.1608 -0.0315
21456W        W37530   9.633   9.099  12.712 -0.2327  0.1586  0.0524
21457W        W37531  17.754   2.201  13.551  0.2053 -0.2770 -0.0686
21458W        W37532  16.235   9.129  13.931 -0.0951 -0.1879  0.0323
21459W        W37533   3.105  13.891   1.013 -0.1079  0.2194 -0.5909
21460W        W37534   9.233  15.990   5.632 -0.0346  0.0421  0.0588
21461W        W37535   6.812  15.123  14.786  0.2636 -0.2837 -0.1427
21462W        W37536   8.245  10.734  14.918 -0.0622 -0.1523 -0.3049
21463W        W37537   9.371  13.781  14.202  0.1647  0.2343 -0.3843
21464W        W37538  18.098  15.626   2.817 -0.1469  0.1396 -0.3108
21465W        W37539   3.650  11.096   4.469  0.0538 -0.1175  0.3885
21466W        W37540  11.772   6.527  14.251 -0.1691 -0.2436 -0.1561
21467W        W37541   0.289  17.297  14.332 -0.0680  0.1267  0.0458
21468W        W37542   0.736   7.885  14.154 -0.0588  0.0772 -0.5098
21469W        W37543   5.262   9.702   1.884 -0.1040  0.0923 -0.0847
21470W        W37544  11.288  14.165  12.982 -0.0904  0.1994  0.2479
21471W        W37545  12.132   0.233  13.853  0.2245  0.0855  0.0085
21472W        W37546  11.156  18.926  14.666  0.2176  0.1749 -0.2073
21473W        W37547  17.631  18.613   3.701 -0.1818 -0.1289  0.0306
21474W        W37548  17.321  11.720  14.508 -0.2630 -0.2061 -0.0352
21475W        W37549  12.571   0.435   1.276  0.0608 -0.1901 -0.1549
21476W        W37550   4.466   6.526  14.789 -0.1400 -0.0539 -0.1239
21477W        W37551  14.033   6.007   4.853  0.0557 -0.1879 -0.2223
21478W        W37552   2.823   6.196  14.219  0.0303 -0.2455 -0.1440
21479W        W37553   8.269   1.649   4.128 -0.1688 -0.0819  0.0379
21480W        W37554  11.590   8.987   1.514  0.1909 -0.0653  0.2446
21481W        W37555  10.412  12.023   3.375 -0.1727 -0.0075  0.0349
21482W        W37556  11.814  15.429  13.378  0.1192  0.1311 -0.2974
21483W        W37557  12.312   4.021   4.752  0.3206  0.3276 -0.0326
21484W        W37558  14.553  12.561   4.054 -0.1408  0.2214  0.1179
21485W        W37559  13.430  11.908  12.851 -0.0556  0.1997 -0.0691
21486W        W37560   5.881   7.231   2.971  0.1158  0.0822  0.2187
21487W        W37561   9.205  18.675   1.456 -0.2841  0.1092 -0.1355
21488W        W37562  17.829   5.617   2.833 -0.1228  0.1455  0.0270
21489W        W37563  15.302  19.004  12.492 -0.0771 -0.1378 -0.1016
21490W        W37564   2.463   7.858  11.340  0.1785  0.1580 -0.1012
21491W        W37565   6.021   0.018  11.389  0.0539  0.1638 -0.0657
21492W        W37566   2.217   5.946   1.895  0.1887 -0.0837 -0.3365
21493W        W37567   8.999   2.159   5.148 -0.0968 -0.0319  0.1061
21494W        W37568  19.174  15.189  13.656  0.1018 -0.0736  0.0008
21495W        W37569  15.298  16.902   3.300 -0.3390 -0.1413 -0.0234
21496W        W37570  13.244  12.131   3.527  0.0234  0.3078  0.1263
21497W        W37571  11.128   5.060   3.919 -0.0613 -0.0405 -0.2742
21498W        W37572   1.777  10.643   0.087 -0.3121  0.2807  0.1984
21499W        W37573   2.733   2.015   0.268 -0.1295 -0.0639 -0.0503
21500W        W37574   4.227   7.584   5.299  0.1651 -0.3432 -0.0484
21501W        W37575   4.768  13.338   3.423  0.1538  0.0406 -0.0994
21502W        W37576   7.521  12.333   3.113 -0.2061  0.1183  0.4411
21503W        W37577  12.959  14.978   3.770  0.0517 -0.0091 -0.0681
21504W        W37578  12.388   2.986   3.476  0.2199  0.0922 -0.1657
21505W        W37579  16.761  16.153   2.172  0.2072  0.2917 -0.1481
21506W        W37580   0.084   3.458   1.958  0.2740  0.0460  0.1885
21507W        W37581   1.871  17.243  14.120  0.1096 -0.1636  0.2772
21508W        W37582   4.073   3.376  15.021  0.4714 -0.2854 -0.0605
21509W        W37583   9.710  17.367  14.694  0.1891  0.1123 -0.1926
21510W        W37584  18.781  10.063  14.177 -0.0084 -0.4197 -0.0695
21511W        W37585  18.100  13.819  11.289 -0.1200  0.1966 -0.1165
21512W        W37586   3.345  15.288   3.664 -0.1458  0.1850 -0.0102
21513W        W37587  15.808   8.971   9.813  0.1265 -0.1028 -0.0473
21514W        W37588  17.509   8.346   5.313  0.3671  0.1263 -0.2450
21515W        W37589  11.983  10.817   0.466  0.0786 -0.0069  0.0925
21516W        W37590  17.512  14.556  13.707  0.2058 -0.0585 -0.2442
21517W        W37591   4.741  10.737   4.913 -0.1823 -0.1195 -0.0681
21518W        W37592   0.669   0.018   1.396 -0.4275 -0.0965 -0.0718
21519W        W37593  15.548   2.300  13.057 -0.2042 -0.1527  0.1357
21520W        W37594  10.171   9.899   4.096 -0.1886  0.0661 -0.1210
21521W        W37595   0.201  18.158   1.695 -0.1168 -0.2276 -0.0299
21522W        W37596   1.258  14.455   3.227  0.1350  0.0739 -0.1582
21523W        W37597  12.043  17.948   0.701 -0.0221  0.1579  0.0304
21524W        W37598   4.922   0.498   1.501  0.0631 -0.0473  0.2486
21525W        W37599   0.966   1.281   2.138  0.1834 -0.0428  0.1272
21526W        W37600   7.603   1.929  14.857 -0.2216  0.0550  0.0881
21527W        W37601   2.801  13.348  14.422  0.2083 -0.4276  0.0193
21528W        W37602   0.329  11.523   4.713 -0.1175  0.0239  0.1268
21529W        W37603  10.090   3.214  13.353  0.0322  0.0647  0.0820
21530W        W37604   5.818  13.731   2.877 -0.0389 -0.1421 -0.0109
21531W        W37605   4.569  12.394  11.561  0.1590  0.4036 -0.4165
21532W        W37606   1.927  14.155   2.452 -0.1645 -0.0991  0.2413
21533W        W37607  15.579  18.818  13.702  0.2088 -0.1554  0.2464
21534W        W37608   9.578   8.271  11.553 -0.1078  0.1490  0.0871
21535W        W37609  15.037   7.062  11.180  0.1397  0.2242  0.1367
21536W        W37610  13.587   6.357  10.754  0.0936  0.1096  0.0542
21537W        W37611   1.129  12.470   5.369 -0.0428  0.1634  0.5831
21538W        W37612   9.893   7.322  13.914 -0.2077 -0.1726  0.0723
21539W        W37613   7.056   1.948  10.974 -0.3835 -0.1091  0.1246
21540W        W37614   8.830   1.240   0.394 -0.1287  0.1513  0.2292
21541W        W37615  12.775  16.246  15.007 -0.1484 -0.1552 -0.2502
21542W        W37616  18.722  14.925   0.638 -0.0736  0.0173 -0.2248
21543W        W37617  19.096   7.067   2.917  0.0234 -0.0206 -0.0457
21544W        W37618   1.544  12.426   1.247 -0.2303 -0.0362  0.1354
21545W        W37619   2.586  11.052   4.125 -0.3103 -0.0057 -0.0052
21546W        W37620  17.625  15.583   4.742  0.0283 -0.2862 -0.1028
21547W        W37621  13.423  16.916   1.067 -0.3566  0.0934 -0.0054
21548W        W37622  16.039  16.299  14.297  0.0777  0.1517 -0.2385
21549W        W37623   3.593  14.897   1.639  0.1468  0.0528  0.2798
21550W        W37624   7.568   9.755  14.161  0.2862  0.2737  0.0474
21551W        W37625   2.043  13.631  12.777 -0.1448  0.0824  0.2861
21552W        W37626  15.162   7.781   3.188  0.1116  0.0956  0.0921
21553W        W37627   3.028  19.159   1.674 -0.3526  0.0837  0.0190
21554W        W37628   8.131   8.135  12.316  0.0199 -0.1386  0.0993
21555W        W37629  11.347  18.567  11.301 -0.2040  0.1992 -0.0648
21556W        W37630   4.077   5.038   1.831 -0.1115  0.1091 -0.3571
21557W        W37631  13.430   7.729   3.041  0.1788  0.1056  0.1483
21558W        W37632  15.706   1.199  13.976 -0.1281  0.0191 -0.0788
21559W        W37633  19.200   4.992  14.821 -0.3243  0.0474  0.0602
21560W        W37634   1.898   1.940   5.043 -0.0862  0.3068 -0.0223
21561W        W37635   3.635   2.947  11.814  0.1232 -0.1000 -0.2399
21562W        W37636   5.859   0.480   2.388 -0.0722  0.0990  0.1145
21563W        W37637   5.626  15.523   2.567 -0.0588 -0.0144 -0.1350
21564W        W37638   3.685  13.086   0.563  0.0614 -0.2129  0.0976
21565W        W37639  11.131   8.101  14.464  0.0392  0.2789 -0.1414
21566W        W37640  16.883   8.313   1.467  0.1076  0.2085  0.3107
21567W        W37641   7.862  17.344  12.833 -0.2825  0.2165  0.0056
21568W        W37642   9.266   0.196   1.003  0.1268 -0.1848  0.0506
21569W        W37643  14.345  15.158  11.490 -0.0092  0.0903 -0.2156
21570W        W37644  12.985  17.210  13.325 -0.6170  0.2262  0.1468
21571W        W37645   3.980  15.468  11.743  0.0248 -0.1962  0.1613
21572W        W37646   7.703   6.299   6.110  0.1795 -0.1965 -0.2565
21573W        W37647   6.916  12.895   1.651  0.1994 -0.2226  0.1830
21574W        W37648   3.725   3.044  12.985 -0.1088 -0.1055  0.0179
21575W        W37649   9.347  16.158   0.180  0.0824  0.2275 -0.0866
21576W        W37650  11.054  12.222   1.580 -0.2744 -0.1839  0.0659
21577W        W37651  15.231  17.891  13.571 -0.0381 -0.3821  0.0954
21578W        W37652  17.738   6.696  13.434 -0.3870  0.2273  0.2840
21579W        W37653  13.157  15.138   0.955 -0.0238  0.2934  0.1051
21580W        W37654   5.169   1.501   3.243  0.2258 -0.2241  0.1135
21581W        W37655  17.354  16.688  14.492  0.3357 -0.1072 -0.1668
21582W        W37656  10.572  17.586   1.978  0.5008  0.6200  0.3097
21583W        W37657   5.502   2.396   0.549 -0.0959 -0.0686  0.2261
21584W        W37658  17.661  18.084  11.510 -0.2624  0.1494 -0.0342
21585W        W37659  14.781  11.502   3.632  0.2265  0.3348 -0.2166
21586W        W37660  15.600  12.309   3.935 -0.1491 -0.1330 -0.1532
21587W        W37661  10.600  18.439  11.371  0.3637  0.4704  0.0338
21588W        W37662   9.889   6.839   5.243  0.3039  0.1704  0.1053
21589W        W37663   8.397   8.767   3.542  0.1695  0.1866 -0.4300
21590W        W37664  17.101   2.376  11.565  0.0261 -0.1207  0.0725
21591W        W37665   1.338   6.029  11.103 -0.0982  0.2377  0.0608
21592W        W37666  17.108   3.646   1.041  0.2534 -0.1238  0.1439
21593W        W37667   5.267  12.017  10.965 -0.2493 -0.1222  0.1187
21594W        W37668   3.671  15.182  10.668  0.2591  0.0700 -0.0067
21595W        W37669   5.934  16.638   2.953  0.1195 -0.0441 -0.3053
21596W        W37670  16.437  12.053  11.647  0.2446  0.2472 -0.1376
21597W        W37671  10.044  12.186  14.708 -0.0183 -0.1585 -0.1350
21598W        W37672  13.321   2.872  12.827 -0.3997 -0.1248  0.0313
21599W        W37673   3.377   7.750   4.995  0.0661  0.3136 -0.0750
21600W        W37674  18.540   5.732   4.383  0.0650  0.0356  0.1727
21601W        W37675  12.432  14.840   4.389  0.7056  0.0323  0.2135
21602W        W37676   7.735   9.113  11.065 -0.0531  0.1413 -0.1733
21603W        W37677  13.260  11.057  10.582 -0.0695 -0.1351  0.2300
21604W        W37678   5.059   9.707   4.509  0.2801  0.0759 -0.0987
21605W        W37679   4.224  18.512  14.243 -0.1293 -0.2347 -0.0712
21606W        W37680   7.397   5.909   0.362  0.1311 -0.3139 -0.1800
21607W        W37681   1.831  16.289  14.237  0.3975  0.1904 -0.1317
21608W        W37682  17.164   4.271   5.348  0.0619  0.0697 -0.0935
21609W        W37683  15.503  18.401   0.530 -0.1692 -0.2942 -0.0691
21610W        W37684  13.031   7.922  13.766  0.1373 -0.1237 -0.0206
21611W        W37685  11.571  18.798   4.136  0.0963  0.2169  0.0715
21612W        W37686   5.954  19.082  11.946 -0.2489  0.0031  0.0466
21613W        W37687  16.493   2.586  10.376  0.0724 -0.1669 -0.4311
21614W        W37688   2.785  11.695   0.907 -0.1816  0.1740 -0.0542
21615W        W37689   2.766   9.163  14.328  0.1798 -0.0690 -0.0516
21616W        W37690  18.988   5.094  14.075  0.1705 -0.0176  0.2736
21617W        W37691   7.941  10.274  15.045  0.2068 -0.0211  0.2014
21618W        W37692   9.914   0.108   3.459 -0.1311  0.1345 -0.2112
21619W        W37693  11.013   5.679   4.479  0.0118 -0.1495 -0.0747
21620W        W37694  14.318  17.148   3.907  0.1743 -0.0065  0.0237
21621W        W37695   9.768   8.781  13.162 -0.1509 -0.0614 -0.0345
21622W        W37696   8.587  10.976  11.701 -0.1587  0.0247 -0.2177
21623W        W37697   0.024   0.103  12.429 -0.0400  0.2529  0.3227
21624W        W37698   9.225  12.705   1.761 -0.3950  0.1541  0.0998
21625W        W37699   2.916   5.039  13.738  0.1946  0.0001  0.0535
21626W        W37700  12.509  17.488  11.515 -0.0511 -0.1839  0.1443
21627W        W37701   6.062   4.145   0.739 -0.1919 -0.0358 -0.2740
21628W        W37702  10.531  11.691   2.939 -0.3095  0.3461  0.0601
21629W        W37703  11.786   2.966  12.446  0.0744  0.1661 -0.2585
21630W        W37704  15.959   9.141   0.843 -0.1200  0.0618  0.0450
21631W        W37705  14.212   1.072  13.365 -0.1016 -0.1183  0.0844
21632W        W37706  16.995   2.515  10.839  0.4219 -0.0901  0.1009
21633W        W37707  11.781   3.697   2.107 -0.5217  0.0521  0.1539
21634W        W37708  14.886  11.286   1.658  0.2684  0.1606 -0.3295
21635W        W37709  14.471  11.301  13.670 -0.2632 -0.1705  0.0027
21636W        W37710  12.046  14.412  13.490 -0.0043  0.1357 -0.3317
21637W        W37711  15.804  11.400  13.425 -0.1156 -0.1734 -0.0070
21638W        W37712  10.438  18.781   0.154 -0.1552 -0.0624  0.1057
21639W        W37713   6.568   3.031   3.992  0.3463  0.0825 -0.0724
21640W        W37714   3.827   4.576   5.246 -0.3373  0.3465  0.0910
21641W        W37715   5.218   1.219   5.767 -0.3939 -0.0508 -0.0151
21642W        W37716   3.162  12.736  14.849 -0.0983 -0.0275 -0.2745
21643W        W37717  14.080   8.894   3.191 -0.2436  0.1100 -0.1330
21644W        W37718   2.324   1.209   1.400  0.0632 -0.3006  0.0899
21645W        W37719  16.546  15.722   0.879 -0.1846  0.0077 -0.2447
21646W        W37720  10.064  13.093   2.029  0.1731 -0.1549  0.2191
21647W        W37721   4.734  14.355   4.750 -0.1340  0.0869  0.0498
21648W        W37722   1.090   2.652  12.407  0.1236 -0.2624  0.0416
21649W        W37723   2.349   4.538   0.898 -0.0393 -0.2075  0.1746
21650W        W37724   2.400   3.015   3.934 -0.0900 -0.3227 -0.2651
21651W        W37725   9.514   1.171   2.431  0.1981  0.1330  0.0184
21652W        W37726   5.924  13.311   4.446  0.0777  0.1887  0.2419
21653W        W37727  15.929  17.974   3.866 -0.0732  0.1962  0.0323
21654W        W37728  12.138   9.968  12.993  0.1137 -0.4837 -0.2614
21655W        W37729   5.656   3.820   1.019  0.0031 -0.0395  0.1607
21656W        W37730  15.613  15.597  14.660  0.4763 -0.4628  0.3184
21657W        W37731  14.089   7.750  11.743  0.2250  0.2389  0.0137
21658W        W37732  12.873   9.564  12.923  0.1038 -0.3024  0.0332
21659W        W37733   5.929   4.371   2.429  0.2181 -0.0658  0.1845
21660W        W37734   5.316   7.756   1.591 -0.3706 -0.2869 -0.1706
21661W        W37735   7.846   8.140  14.551  0.0386  0.1408 -0.1140
21662W        W37736  13.055   8.865  14.198 -0.2717 -0.2329 -0.2306
21663W        W37737  15.692   5.493   1.709 -0.1980  0.1594  0.1569
21664W        W37738   0.162   4.307  14.238 -0.0813  0.1227 -0.0856
21665W        W37739  14.335   7.539  12.378 -0.0816  0.0602  0.1593
21666W        W37740   1.585  15.023   1.262 -0.1466  0.1184 -0.1450
21667W        W37741   4.918  11.825   2.385 -0.0216  0.1763  0.0094
21668W        W37742   9.252  12.000   5.628 -0.2635  0.0165  0.0534
21669W        W37743  15.455   4.533  12.496 -0.1597  0.1526 -0.0467
21670W        W37744  15.213  10.797  14.621 -0.0004 -0.0552  0.2036
21671W        W37745  17.565  10.707   0.313  0.0855  0.2024  0.1304
21672W        W37746   1.372   9.777   4.323  0.1365  0.0961 -0.0187
21673W        W37747  13.561   5.776   3.217 -0.1223  0.2355 -0.0888
21674W        W37748  17.362   9.975   4.432  0.0536 -0.2833  0.1033
21675W        W37749  17.437  14.608   3.590  0.1109 -0.1153 -0.1787
21676W        W37750  13.534   4.021   5.964  0.1719 -0.3178 -0.1690
21677W        W37751  17.056   3.292  14.209 -0.1351 -0.2321  0.2190
21678W        W37752  11.913  16.995   2.156  0.2563  0.0802  0.0838
21679W        W37753  14.976   5.807  12.299  0.1823 -0.1369 -0.0539
21680W        W37754   3.173   9.213  13.814 -0.1467  0.1619  0.2763
21681W        W37755  16.363   2.687   3.204 -0.2461 -0.0409 -0.1636
21682W        W37756   1.884  15.603   4.359  0.0851  0.1219  0.1416
21683W        W37757   9.447   0.722   1.108 -0.0667  0.1383  0.1696
21684W        W37758   6.277   7.648   3.231 -0.0385 -0.1335 -0.2483
21685W        W37759   8.963  17.812   5.413  0.1665  0.3249  0.0124
21686W        W37760   7.676  18.093   3.505  0.1691  0.0381 -0.1064
21687W        W37761  11.224  16.733  10.691  0.0531 -0.4699 -0.0560
21688W        W37762   6.966  14.158  14.940 -0.2482 -0.1895 -0.3549
21689W        W37763   4.033   1.133  14.461 -0.0253  0.2360 -0.0991
21690W        W37764  15.975   8.224   3.616 -0.0583  0.1552 -0.1270
21691W        W37765   5.018  11.257  13.291 -0.1075  0.2696 -0.1142
21692W        W37766   5.233  14.565  14.554 -0.0021 -0.5116  0.1698
21693W        W37767  13.089  14.833  13.191 -0.1128 -0.1989 -0.2549
21694W        W37768  14.577  11.179   9.971 -0.1009  0.1292  0.2415
21695W        W37769  17.136  17.450   9.753  0.0868  0.0085 -0.1341
21696W        W37770  10.671   0.451  11.499  0.1178  0.1597 -0.2986
21697W        W37771   8.796   2.312  14.997 -0.2020  0.0279  0.0120
21698W        W37772  13.652  18.703  10.783  0.1260 -0.2669 -0.1120
21699W        W37773   1.605  10.570   3.717 -0.2118 -0.2244  0.0760
21700W        W37774   2.361   0.513  12.061 -0.1161  0.1323  0.4131
21701W        W37775   0.900  18.398   0.961 -0.0079 -0.3699  0.2776
21702W        W37776  18.733   1.652  11.897 -0.1231 -0.0177 -0.0491
21703W        W37777   3.197   5.602  12.422 -0.1376  0.1687  0.1268
21704W        W37778   2.054  17.471   0.459 -0.1077  0.1946  0.2082
21705W        W37779  17.983   7.997  13.356  0.1159 -0.1464 -0.2544
21706W        W37780   1.084  15.162   3.695 -0.0366  0.2657 -0.2263
21707W        W37781  16.093   6.156  13.133  0.2873 -0.2123  0.1518
21708W        W37782   0.454   2.341   3.200 -0.0845  0.0447 -0.1535
21709W        W37783   0.065   2.237   0.193 -0.1895 -0.0842  0.3800
21710W        W37784   9.623   3.608   5.840 -0.1461 -0.0238 -0.1134
21711W        W37785   1.500   9.433   0.055 -0.1027 -0.3243  0.1221
21712W        W37786   8.120  12.400   4.801 -0.0402  0.1549  0.1738
21713W        W37787   2.735   5.865   4.234 -0.2189 -0.0150  0.2007
21714W        W37788  11.473   4.171   3.802 -0.2101  0.1122 -0.0169
21715W        W37789  10.072   1.793   0.351  0.2650  0.0854  0.0829
21716W        W37790  18.311   6.473  14.784  0.2751 -0.0310  0.0662
21717W        W37791   0.972  18.810   0.111  0.0685  0.2888  0.3510
21718W        W37792   5.424   5.508   3.778 -0.1956 -0.2008 -0.0244
21719W        W37793  14.440  14.773   0.643 -0.2589  0.1089 -0.4029
21720W        W37794  11.274  14.451  12.069  0.2399  0.1610 -0.2046
21721W        W37795  15.245   1.914  10.211 -0.1600 -0.0214  0.0788
21722W        W37796  11.443  16.288   0.789 -0.0424  0.1647  0.2940
21723W        W37797   1.839   6.654  10.555  0.0315  0.1876  0.2636
21724W        W37798   0.539  19.091   0.930 -0.3435  0.1220  0.1291
21725W        W37799   1.533   1.973   4.588  0.5172 -0.1894  0.0164
21726W        W37800  18.536  13.643   3.523 -0.1905 -0.2358  0.0528
21727W        W37801   4.424  11.590   1.699 -0.0345  0.0972 -0.2110
21728W        W37802  13.910   6.190   0.663  0.0466  0.0263 -0.0148
21729W        W37803  13.006  13.796  15.045  0.0182  0.0674 -0.0143
21730W        W37804  10.556  13.962   2.172 -0.0927 -0.0388 -0.0219
21731W        W37805  13.309  11.503   3.781 -0.0686 -0.0862 -0.4129
21732W        W37806  17.910  14.816  14.529  0.0390 -0.0274  0.0711
21733W        W37807  10.246  10.146  10.807 -0.2603 -0.1554 -0.0898
21734W        W37808  15.459   3.116  14.811  0.0779  0.1392 -0.2537
21735W        W37809   7.485  14.943   4.520 -0.0298 -0.0316  0.0681
21736W        W37810   9.168  13.040   2.224  0.1257  0.0392 -0.3825
21737W        W37811   7.075   4.104  13.844 -0.2526 -0.3682 -0.1004
21738W        W37812  13.071   3.804  12.041  0.0434 -0.1907  0.0352
21739W        W37813  12.620   2.463   1.933 -0.2291 -0.2032 -0.0137
21740W        W37814  14.649  13.069  13.096  0.1313  0.2281  0.2586
21741W        W37815   8.663  11.890  11.560  0.0725 -0.1009 -0.1459
21742W        W37816  15.584   1.094   1.265 -0.1971  0.2617  0.3604
21743W        W37817  19.073  15.916   0.389 -0.0970 -0.1924 -0.1476
21744W        W37818  18.119   8.845   4.017 -0.0067 -0.2160  0.1439
21745W        W37819   0.256   6.262   0.082  0.0907 -0.1451  0.5759
21746W        W37820   1.449   8.452  10.889 -0.0995 -0.1422 -0.0752
21747W        W37821   9.855   9.472  11.982 -0.1661 -0.0338  0.3996
21748W        W37822  11.609  10.554  11.603  0.2732  0.0226 -0.2952
21749W        W37823   8.836   5.679  11.615 -0.2827  0.0393 -0.1543
21750W        W37824   5.052   2.621  13.220  0.0480 -0.0155  0.3375
21751W        W37825   8.505  15.613   2.937  0.4129  0.0983 -0.2972
21752W        W37826  15.976   7.788   0.625 -0.3733  0.1607  0.2542
21753W        W37827  10.021  19.128   1.911  0.0788  0.0797 -0.0796
21754W        W37828  17.366   0.746   1.825  0.1003  0.6317 -0.0271
21755W        W37829  14.430  12.005  11.516 -0.4078 -0.0047 -0.1435
21756W        W37830   1.341  16.432   4.069 -0.0837 -0.3235 -0.3941
21757W        W37831   3.047  14.123  12.107  0.2161 -0.1730  0.0865
21758W        W37832   0.836  10.621   2.232  0.0154  0.0460  0.0400
21759W        W37833   7.235  16.828   4.505 -0.4570  0.1122  0.3328
21760W        W37834   7.239   3.992   4.992  0.1147  0.0352  0.1274
21761W        W37835   7.176  14.063   5.281  0.3004 -0.3627 -0.1281
21762W        W37836   8.155   4.504  11.776  0.0435 -0.0811 -0.2059
21763W        W37837   9.178  15.126   0.432  0.2380  0.0004  0.1726
21764W        W37838  10.016   5.341   3.037  0.2822 -0.1755  0.3327
21765W        W37839  14.757  18.518   2.390  0.0961  0.0553 -0.1412
21766W        W37840   8.007   6.843   4.556  0.0626  0.2892 -0.2602
21767W        W37841  14.823  11.408   1.020  0.0189 -0.1379 -0.1258
21768W        W37842   7.824   0.167  11.706  0.0983  0.2039 -0.0325
21769W        W37843  15.318  13.061   1.401  0.2868  0.0165  0.1334
21770W        W37844  16.704  19.220  12.936  0.1006 -0.0968 -0.0916
21771W        W37845   9.505  16.136   4.753  0.0060  0.1989 -0.0987
21772W        W37846  12.614   9.294   5.924  0.0378 -0.3186  0.1544
21773W        W37847  16.424  18.027   4.222 -0.2729 -0.0096  0.1189
21774W        W37848  14.427   6.517   0.333 -0.0550  0.0809  0.0793
21775W        W37849  18.351   9.568   4.108 -0.0088 -0.1600 -0.3130
21776W        W37850  13.913  15.485   0.627  0.0042 -0.0657 -0.0619
21777W        W37851  12.358   5.663   4.375 -0.0014  0.0567 -0.0707
21778W        W37852   7.094   1.676   0.369 -0.4509  0.5900 -0.2906
21779W        W37853  15.414   9.896  14.390 -0.1595 -0.2319  0.2725
21780W        W37854   3.544   8.677  15.031 -0.1081 -0.2190  0.1883
21781W        W37855   4.047   3.270  12.653  0.1572  0.0272  0.3184
21782W        W37856  18.863   1.337  11.497 -0.0851 -0.1592  0.0292
21783W        W37857   8.938   4.479   4.913 -0.2553  0.1808  0.0420
21784W        W37858  16.520  16.056   5.352 -0.1514 -0.3484 -0.2522
21785W        W37859   5.989  17.195  13.822  0.2375  0.2091 -0.3430
21786W        W37860  13.320   0.360  12.233  0.0648 -0.0954 -0.2846
21787W        W37861  10.417   1.890  14.454 -0.3588 -0.1458 -0.0626
21788W        W37862  11.233   0.190  14.926  0.0076  0.0218  0.2549
21789W        W37863   4.410   8.265  13.813 -0.2438  0.0494  0.3223
21790W        W37864   9.907  17.323  11.444 -0.2003 -0.1361  0.0225
21791W        W37865   2.371  13.373   0.731 -0.0533  0.0805 -0.2269
21792W        W37866   8.511   4.953  13.370  0.1080 -0.2323  0.2731
21793W        W37867   8.775   8.399   3.227  0.2989  0.2491 -0.2700
21794W        W37868   2.009   2.592  11.855  0.0580  0.2717 -0.2741
21795W        W37869  10.182   9.464   3.182 -0.3780  0.0698 -0.0105
21796W        W37870  16.351  16.359  14.727  0.0535  0.0836  0.0757
21797W        W37871  11.926  12.453  14.016 -0.1024 -0.1472  0.3231
21798W        W37872   1.089  10.982  14.832 -0.2139 -0.1073  0.3314
21799W        W37873   4.047  11.971  13.521  0.1547  0.2342  0.2500
21800W        W37874   2.900   5.047   3.740  0.1158  0.1027  0.0283
21801W        W37875   5.639  16.500  13.321 -0.3930  0.2213  0.1769
21802W        W37876  17.018   2.864   0.467 -0.1726  0.2059 -0.0123
21803W        W37877   8.743  13.714   3.203 -0.2978  0.0049 -0.1671
21804W        W37878   5.122  16.502   3.180 -0.1046  0.0478 -0.2400
21805W        W37879   2.091  16.303  11.281 -0.0844 -0.2852 -0.1527
21806W        W37880   9.314   5.203   5.173  0.2605  0.4196  0.1422
21807W        W37881  10.358  13.578  14.426 -0.0204  0.2366 -0.1365
21808W        W37882  14.751  17.167   3.426 -0.1016  0.4518 -0.0533
21809W        W37883   7.938   9.770   2.750 -0.0159 -0.0606 -0.1638
21810W        W37884  17.140   6.126   2.172 -0.2317  0.0243 -0.3414
21811W        W37885   8.357  16.807  12.478  0.0967  0.0931  0.0104
21812W        W37886   2.561   5.325  14.228 -0.0095  0.1347  0.2779
21813W        W37887  14.157  14.885   4.533 -0.1958 -0.2530 -0.0644
21814W        W37888   4.464   3.161   0.306 -0.0070 -0.2570 -0.2636
21815W        W37889   2.565   3.223  12.604  0.1087 -0.0872 -0.3276
21816W        W37890   5.162   6.240   0.522  0.0610 -0.3828  0.0992
21817W        W37891  16.678   4.390  10.837  0.4615 -0.0619 -0.2126
21818W        W37892  17.784   9.679  10.969  0.1915 -0.0416 -0.2749
21819W        W37893   6.047  18.746  11.449  0.0439 -0.4883  0.1024
21820W        W37894   6.801   3.356   1.673  0.0311  0.1485 -0.3130
21821W        W37895  14.634   7.464   2.014  0.0868 -0.0952  0.2901
21822W        W37896   7.142  12.775   4.974 -0.0493  0.3065  0.1858
21823W        W37897   4.531  16.110   2.871 -0.1431 -0.3175 -0.0634
21824W        W37898   8.248   1.969  13.385  0.1153  0.4026 -0.1809
21825W        W37899  16.044   7.752  11.277  0.0032  0.0888  0.1692
21826W        W37900  15.501   2.088  11.717 -0.0236 -0.1586 -0.0840
21827W        W37901  12.375  12.038   1.877  0.1641 -0.0462 -0.3101
21828W        W37902   5.138   4.827  13.427 -0.2893  0.0113 -0.2461
21829W        W37903  17.423   9.486  11.732  0.0816  0.3268  0.0971
21830W        W37904   1.344  15.921   3.044  0.2974  0.0312  0.1998
21831W        W37905  16.059   6.039  10.510 -0.0178  0.3645  0.0851
21832W        W37906  10.411   3.399  12.716 -0.0849  0.0513 -0.2379
21833W        W37907  12.458   3.804  13.034 -0.3223 -0.0214  0.2337
21834W        W37908  14.456   2.349   2.253  0.0236  0.1571 -0.1313
21835W        W37909   5.567   4.387   4.929  0.2187  0.1462 -0.3695
21836W        W37910   8.922   2.680  14.377  0.0463  0.1478 -0.0051
21837W        W37911   3.399  16.156  13.044  0.1439  0.0517 -0.1594
21838W        W37912  11.566   4.586   4.606 -0.2705 -0.0397  0.1128
21839W        W37913  13.328   8.080   0.643  0.3046  0.2931  0.0003
21840W        W37914  14.204   3.169   9.886 -0.1117  0.1043 -0.0752
21841W        W37915  15.936  15.508  13.428  0.0524  0.0369  0.0921
21842W        W37916  16.992  17.455   1.984 -0.0209  0.3130 -0.0716
21843W        W37917   8.273  12.887  12.243  0.0243 -0.2028  0.0496
21844W        W37918   0.974   4.324   2.589 -0.0258  0.3386  0.1389
21845W        W37919  12.402  14.723  13.345  0.1058 -0.0622  0.1057
21846W        W37920   5.452  10.208  12.008 -0.1240  0.0613  0.1353
21847W        W37921   8.204  18.074   2.787  0.2972 -0.2348 -0.1575
21848W        W37922   4.289   0.520  10.828  0.3103 -0.1670 -0.2485
21849W        W37923  16.937   7.859  10.401  0.1876 -0.1955  0.3763
21850W        W37924   8.345   8.826  14.920  0.1117  0.0885  0.0251
21851W        W37925  15.118   3.884   5.144 -0.0534  0.1046  0.1493
21852W        W37926   9.168   0.072  11.804 -0.3469  0.0845  0.0730
21853W        W37927  18.733  15.327  13.609 -0.0625  0.0476 -0.0305
21854W        W37928   3.745  17.536   1.964  0.4089  0.2139 -0.1690
21855W        W37929   3.899  19.097  14.670  0.5989  0.0894  0.2173
21856W        W37930   0.562  14.940   2.904 -0.1062  0.0803  0.2169
21857W        W37931   0.712   4.084   5.761 -0.0256 -0.1970 -0.0401
21858W        W37932   2.476   5.419  13.692  0.0574 -0.0832 -0.3249
21859W        W37933   4.553  17.742  11.119  0.0708 -0.0668 -0.0614
21860W        W37934   4.540  13.092   1.186  0.2315  0.1204  0.1318
21861W        W37935   5.406  10.529  11.573  0.0430  0.0977  0.1238
21862W        W37936   0.859   1.378  12.731 -0.0730  0.3736 -0.0040
21863W        W37937   4.906  11.969   1.129  0.0539  0.1055 -0.3828
21864W        W37938  10.414   7.001   2.695  0.0578  0.2313  0.2027
21865W        W37939  17.798  11.962  10.653  0.1379  0.0754  0.3928
21866W        W37940  15.044  14.153  13.789 -0.2048 -0.1268  0.1041
21867W        W37941   4.239   2.784  11.106 -0.2829 -0.0280  0.0151
21868W        W37942   4.177   0.662  10.381 -0.0053 -0.1900  0.3321
21869W        W37943   8.802   6.902   4.985  0.1758 -0.1023 -0.2363
21870W        W37944  15.516  10.939   9.048 -0.2178  0.1851  0.2924
21871W        W37945   6.043  15.427   0.996 -0.1190 -0.2366 -0.0286
21872W        W37946  10.158   9.055  10.258  0.0670  0.0879 -0.0645
21873W        W37947   8.562  18.432  14.669 -0.1069  0.0180  0.1286
21874W        W37948  15.845  14.822   4.365  0.0748 -0.1874  0.0260
21875W        W37949   9.999  12.501   5.294 -0.1432 -0.1013 -0.2265
21876W        W37950   4.361   1.671   3.506  0.0729  0.3098  0.3099
21877W        W37951   5.058   0.869   4.642 -0.0603  0.2420 -0.0660
21878W        W37952  10.342   9.280  11.935  0.0498  0.1156 -0.1515
21879W        W37953  12.127  10.522   1.091 -0.0179 -0.3287 -0.0238
21880W        W37954   7.537  16.355  13.372  0.0923  0.1125  0.3436
21881W        W37955  19.248   4.013   0.870 -0.0530  0.1684 -0.0312
21882W        W37956  12.322   3.411  14.849  0.1690  0.1900  0.2078
21883W        W37957   4.473  13.841  14.720  0.0503 -0.2049 -0.2301
21884W        W37958  11.954   1.965   1.203  0.2126  0.0941  0.4202
21885W        W37959  16.809  18.007  14.972  0.2047 -0.0570  0.2135
21886W        W37960   2.718  13.791   0.680  0.1842 -0.3164 -0.0594
21887W        W37961  14.675  12.967  12.385 -0.1284  0.1600 -0.2467
21888W        W37962   4.925   5.301   1.170  0.4055 -0.0603 -0.4180
21889W        W37963   7.632   3.264  13.678 -0.4120  0.1151 -0.0276
21890W        W37964   2.207   9.340   3.018  0.3681 -0.3706 -0.2499
21891W        W37965   2.520  13.543  12.701  0.1777  0.2565 -0.0314
21892W        W37966  17.410   5.210   3.235  0.1834  0.2482  0.0779
21893W        W37967  11.259  17.458   0.027 -0.0600  0.2255  0.1028
21894W        W37968   6.772  12.622   5.344 -0.2598 -0.0461 -0.0418
21895W        W37969  17.517   7.142  11.444 -0.1382 -0.0668 -0.1615
21896W        W37970   4.408  14.700   2.104  0.0596 -0.0784 -0.0599
21897W        W37971  19.279  18.915   2.184 -0.0912  0.0735  0.3050
21898W        W37972  15.486  11.512  12.839  0.1796  0.2604  0.1284
21899W        W37973  11.624  17.099  11.617  0.0967 -0.0206  0.2133
21900W        W37974  15.678   7.002   2.158 -0.0368 -0.1477 -0.1806
21901W        W37975  10.144  12.631   0.691 -0.2551  0.0067 -0.0191
21902W        W37976   5.941   0.710  12.046 -0.0984 -0.2727  0.1030
21903W        W37977  10.549   3.199  14.732  0.2313  0.0534 -0.1477
21904W        W37978  16.716  15.641   4.211 -0.1292 -0.0143 -0.2217
21905W        W37979  18.100   2.958  14.920  0.0369 -0.1879  0.0236
21906W        W37980  15.480   2.078  13.511  0.1078  0.0221 -0.0838
21907W        W37981   8.133   1.931  12.055  0.0725  0.2805  0.0908
21908W        W37982   2.356   8.112  14.793 -0.0498 -0.0364  0.1558
21909W        W37983  12.652  10.029  12.953  0.2568  0.4505 -0.0856
21910W        W37984  14.575   6.962  15.059  0.0947  0.4508 -0.2715
21911W        W37985  17.398  11.908   5.140  0.0092  0.2084  0.1631
21912W        W37986  19.156   6.489  12.939  0.1919  0.1283 -0.0966
21913W        W37987   4.637  15.677   2.681 -0.2190  0.0660 -0.0514
21914W        W37988  17.139   3.046  12.092  0.0542  0.0345  0.3092
21915W        W37989   3.166  17.920   4.232 -0.0599 -0.0014 -0.1966
21916W        W37990  10.230  15.575  11.770  0.0982  0.2234 -0.0052
21917W        W37991  15.677   1.001   9.996  0.1660 -0.3723 -0.0601
21918W        W37992   2.351  15.308   1.708  0.1889 -0.5044  0.0084
21919W        W37993  17.593   5.915  11.649  0.4336 -0.2704 -0.1459
21920W        W37994   3.344   4.740  12.270 -0.1050  0.0608 -0.2632
21921W        W37995   0.780  16.383   3.407 -0.0058  0.1353  0.0244
21922W        W37996   2.422   5.103  14.644  0.0039 -0.1650  0.2691
21923W        W37997   3.235   3.487  11.999 -0.1181  0.1249  0.1328
21924W        W37998   6.532   3.678  11.405 -0.0199 -0.1449 -0.2032
21925W        W37999  12.393  18.989   4.770  0.1591 -0.1248  0.0841
21926W        W38000   2.845   7.491   3.335 -0.0358 -0.2391 -0.0483
21927W        W38001   2.979   1.109   2.588 -0.0652 -0.0619  0.1051
21928W        W38002   0.965  17.903  13.064 -0.1729  0.1415  0.2438
21929W        W38003  18.297   9.439   3.016 -0.5740 -0.0705  0.0920
21930W        W38004  12.341   0.570  12.937  0.0579  0.0959 -0.0107
21931W        W38005   0.566  15.371   2.168  0.0922 -0.0489 -0.2410
21932W        W38006   5.652   0.770  10.913  0.0116 -0.1175 -0.3140
21933W        W38007   1.314  17.640  11.931  0.0562  0.1131 -0.1955
21934W        W38008   3.500  14.572  15.029  0.0447  0.2413 -0.1989
21935W        W38009  10.167   5.638   0.704 -0.1082  0.0540 -0.1635
21936W        W38010   6.889  18.595   4.266  0.1007 -0.4338 -0.1123
21937W        W38011   0.696  18.331   2.040  0.2516 -0.2155  0.0068
21938W        W38012   6.391   7.574   5.736 -0.3964  0.0406 -0.0635
21939W        W38013   2.234  15.286  14.868  0.3215 -0.1788  0.2836
21940W        W38014  10.527   5.092   3.156  0.2249 -0.2470 -0.1185
21941W        W38015   0.572  14.800   1.038  0.3713 -0.1591  0.1380
21942W        W38016  16.307  14.798  13.032  0.1618 -0.1238  0.1080
21943W        W38017   2.782   3.579   1.248 -0.0899 -0.0496  0.3483
21944W        W38018   8.508  14.866   1.070 -0.1427 -0.1667 -0.0591
21945W        W38019  10.451  17.988   1.722 -0.0264  0.1389  0.0617
21946W        W38020   9.963   3.541   0.520  0.0267 -0.2170  0.1583
21947W        W38021   9.022  12.013   9.746  0.3270  0.4092 -0.0912
21948W        W38022  14.493   1.354  12.932  0.0925 -0.3439  0.0316
21949W        W38023  12.424   4.837   1.837  0.1510  0.2484  0.0529
21950W        W38024   0.084  15.084   4.848  0.1941  0.2681  0.1273
21951W        W38025   5.146  18.297   0.997  0.0520  0.0974 -0.0435
21952W        W38026   8.077  11.721   3.718 -0.0124  0.1215  0.1034
21953W        W38027   6.614   4.690   4.872  0.0418  0.2793  0.0743
21954W        W38028   2.016   7.804  14.658  0.0639  0.2872 -0.2638
21955W        W38029  16.697  13.495  13.151 -0.1240  0.0219  0.0827
21956W        W38030  10.507  14.373   0.931 -0.1596 -0.0000  0.0984
21957W        W38031   6.806  12.579   0.747 -0.1142 -0.1766  0.0121
21958W        W38032   8.600  18.762   4.093  0.2092  0.1483 -0.3449
21959W        W38033  15.476  13.486  12.048  0.0552  0.1156 -0.0360
21960W        W38034  16.450   0.508   0.965  0.0543 -0.0496  0.2805
21961W        W38035  11.417   1.196   0.795  0.2692  0.2470 -0.5495
21962W        W38036  17.587  13.224  10.391 -0.1216 -0.2794  0.0516
21963W        W38037  11.259   8.249  10.610  0.0248 -0.1781 -0.0671
21964W        W38038  13.764  13.402  11.170 -0.2733  0.1618 -0.0103
21965W        W38039  16.226  11.168   4.425  0.0889 -0.1455  0.1142
21966W        W38040   8.559  10.420   0.786 -0.0044  0.1529  0.0642
21967W        W38041  11.516   2.136   0.360 -0.1280  0.2805  0.0682
21968W        W38042   0.923  10.193   2.971  0.3082 -0.2657  0.1905
21969W        W38043   8.619  10.233   4.147  0.3689  0.0751 -0.0691
21970W        W38044   4.616   3.350   5.037 -0.0235 -0.1268 -0.0206
21971W        W38045   1.313   0.336   4.673 -0.1886  0.1366 -0.1069
21972W        W38046  14.902  13.900   2.360  0.0138  0.2823 -0.1034
21973W        W38047  12.447   4.199   1.908  0.0877  0.0418 -0.0855
21974W        W38048  11.326   6.969  12.843 -0.1306  0.2183  0.1547
21975W        W38049   9.446   1.734  10.963 -0.3243 -0.1833 -0.2136
21976W        W38050  17.691   2.161  14.740 -0.3766  0.0271 -0.0678
21977W        W38051   1.796  10.034  12.114  0.2258  0.0295 -0.1955
21978W        W38052   7.103  19.294  10.840  0.3784 -0.0700 -0.0155
21979W        W38053   4.621   9.565  14.357 -0.1756 -0.0812 -0.0767
21980W        W38054   2.887   4.516   0.699 -0.3313  0.1422  0.2519
21981W        W38055   5.592  19.050  11.597  0.2025  0.1284 -0.3294
21982W        W38056  17.998   2.090   3.501  0.0770  0.2024  0.3753
21983W        W38057  18.163   5.186   2.038 -0.3843 -0.0691 -0.0936
21984W        W38058  10.420  10.752   3.084 -0.1869  0.0468 -0.1125
21985W        W38059   2.239  16.665  13.307  0.4168 -0.0218 -0.0380
21986W        W38060   7.407  10.438   4.841  0.0779 -0.1268 -0.3453
21987W        W38061   6.087   0.503  12.630 -0.3370  0.1060  0.0975
21988W        W38062  11.933   5.209   1.122  0.3659  0.2661  0.0398
21989W        W38063   9.034   4.249   2.727 -0.1836 -0.0853 -0.0979
21990W        W38064  11.317  16.657  14.755  0.0101 -0.0449 -0.0037
21991W        W38065  15.717   3.653   1.451 -0.0224 -0.4214 -0.2358
21992W        W38066   7.834  17.140   2.150 -0.3653 -0.1153  0.0453
21993W        W38067  16.633   9.784   1.416  0.3263 -0.3327 -0.1492
21994W        W38068  14.521  12.377  11.893  0.0980  0.0847  0.1024
21995W        W38069  14.471   0.521   2.086 -0.0231 -0.2340 -0.0162
21996W        W38070   3.603   9.532   4.753 -0.0690 -0.3634  0.2493
21997W        W38071   7.530  15.179   1.873  0.2105 -0.2002 -0.1502
21998W        W38072   4.777  16.926   2.652 -0.0287  0.0440  0.0320
21999W        W38073  10.319   8.389   5.341 -0.0139 -0.0017 -0.3356
22000W        W38074   9.912   6.793  13.055  0.0809 -0.1746 -0.3678
22001W        W38075   7.764  14.971  11.497 -0.0365  0.0894  0.2630
22002W        W38076  17.227   3.240  14.726 -0.1723  0.1505 -0.0774
22003W        W38077  18.997   5.262  12.881 -0.1338 -0.0543 -0.1200
22004W        W38078   2.596  11.609   1.865 -0.0555 -0.3080 -0.0634
22005W        W38079  15.591  15.401  10.269  0.2195  0.1910 -0.0594
22006W        W38080  14.618   2.881  14.064 -0.1387  0.0525 -0.1234
22007W        W38081  12.058  17.226  11.023  0.3294  0.0786  0.1550
22008W        W38082  18.146   3.848  11.278 -0.1680 -0.6090  0.0556
22009W        W38083   4.284  14.515   3.141 -0.0781 -0.0877 -0.0992
22010W        W38084  10.268   6.889  11.510  0.2159  0.0683  0.1111
22011W        W38085   1.064  18.497  10.936 -0.0577 -0.0524 -0.0416
22012W        W38086   5.520  15.593  12.845  0.0540  0.1562  0.2892
22013W        W38087  12.764  12.013  10.092  0.1560  0.2082  0.0759
22014W        W38088  13.900  18.652  13.693 -0.0585  0.1623 -0.2093
22015W        W38089  14.624  11.448   4.223 -0.0828  0.3082 -0.3230
22016W        W38090  10.766  12.562  11.141 -0.2214  0.0805  0.1990
22017W        W38091  13.563  14.568  13.137 -0.0412 -0.2217 -0.4236
22018W        W38092  10.811   6.964   3.067 -0.0099 -0.0633 -0.2376
22019W        W38093  16.149   1.418  12.244 -0.0363  0.3123  0.3154
22020W        W38094   1.459  12.039   0.478  0.0553 -0.1500 -0.0874
22021W        W38095  13.038   3.352  13.778 -0.0162  0.1395 -0.0171
22022W        W38096   3.142  11.474   2.333 -0.1783  0.0553  0.1397
22023W        W38097  10.641  10.701   0.431 -0.0994  0.0089  0.4131
22024W        W38098  18.477   5.405  14.812  0.0036 -0.3437 -0.2869
22025W        W38099  15.047  10.330  12.137  0.0230 -0.1470  0.1956
22026W        W38100  13.652  15.319  10.786 -0.0050 -0.0514 -0.0710
22027W        W38101   8.469   9.592   4.756 -0.0109  0.3571 -0.3650
22028W        W38102  10.436   9.954   1.868  0.1716 -0.0481  0.0507
22029W        W38103   2.341   2.140   2.936  0.2474  0.2087 -0.0318
22030W        W38104   2.974   4.550  10.813 -0.4353 -0.0882 -0.0163
22031W        W38105  17.665  14.294  14.481  0.0562  0.2197 -0.0514
22032W        W38106   8.954   5.226   1.267 -0.1495 -0.1931 -0.4433
22033W        W38107   4.952  10.246   4.653  0.3546 -0.2333  0.0159
22034W        W38108   9.304   7.943  12.848 -0.2827 -0.4017  0.1020
22035W        W38109   5.328  13.301  11.475 -0.3722 -0.0733  0.0724
22036W        W38110  17.445  12.116   3.710 -0.2376  0.0940  0.4037
22037W        W38111  16.724  10.344  10.047 -0.3729 -0.1768 -0.1371
22038W        W38112   8.331   0.716   3.673 -0.0343 -0.0025  0.0258
22039W        W38113  18.422  17.271   4.215  0.0316 -0.1083  0.1117
22040W        W38114   3.769   3.821   0.792  0.0829 -0.2630 -0.0460
22041W        W38115   3.613  11.233  11.723  0.2162  0.3188 -0.3576
22042W        W38116  15.248  18.560   2.393  0.0111 -0.1363 -0.0250
22043W        W38117   1.811  13.212  13.582 -0.0332  0.0432 -0.3544
22044W        W38118   3.777  11.740   9.839  0.0493  0.3251  0.0668
22045W        W38119  17.610  12.275  14.818 -0.1584 -0.0982 -0.0211
22046W        W38120   7.187  12.723   3.127 -0.1196 -0.2095 -0.0067
22047W        W38121  11.280  18.421   4.356  0.2795  0.0418  0.2547
22048W        W38122   6.519  19.031  14.724 -0.1729  0.0988  0.0515
22049W        W38123   2.575   9.215  11.438  0.2840 -0.1453 -0.0779
22050W        W38124   7.748   0.950   0.159  0.0056 -0.4007  0.2812
22051W        W38125   3.567  13.248   2.347  0.0533 -0.0006 -0.0838
22052W        W38126   5.028  18.165   1.719 -0.0630  0.1818  0.1917
22053W        W38127   6.018   3.205  14.449  0.0733 -0.1119 -0.0031
22054W        W38128   1.921   7.487  12.072 -0.1879  0.0241  0.4855
22055W        W38129  18.584  10.660  11.988 -0.0136 -0.2817  0.0440
22056W        W38130   5.448   2.841  14.794  0.0685 -0.2286  0.3865
22057W        W38131   4.540  13.494  10.121  0.0434 -0.1880  0.0039
22058W        W38132  17.105   7.855   3.765 -0.0841  0.3705 -0.2970
22059W        W38133   6.368   7.073  13.550 -0.0499 -0.0133 -0.2551
22060W        W38134   3.206   6.172   0.153  0.0079  0.1933 -0.3200
22061W        W38135  15.057  17.650  13.180 -0.1447 -0.3124 -0.1501
22062W        W38136   4.539  15.914   0.493  0.1062  0.0158  0.2731
22063W        W38137   9.954  15.027   3.826 -0.0650  0.2617 -0.2581
22064W        W38138  10.651  18.357   0.450 -0.1983  0.1784 -0.2193
22065W        W38139   1.765  16.080  12.029  0.1325  0.0227  0.0060
22066W        W38140  11.046   5.338  11.099  0.0487 -0.0226  0.2202
22067W        W38141  13.189  11.764   4.295 -0.1233  0.1251  0.1645
22068W        W38142   0.022  17.447   0.739 -0.2082  0.4102 -0.0300
22069W        W38143   8.536   5.366  12.959  0.1271  0.2879 -0.3146
22070W        W38144   5.070  13.733   0.974 -0.3056  0.2017 -0.0131
22071W        W38145   5.873  15.239   2.946  0.1383 -0.0710  0.0221
22072W        W38146  10.475  15.190  11.263 -0.0783 -0.2702 -0.0928
22073W        W38147   8.016   5.126   0.211  0.4486 -0.0535  0.0991
22074W        W38148  19.126   0.246   4.253  0.1947 -0.3364 -0.3462
22075W        W38149  11.440   7.869   1.013 -0.3854  0.1642 -0.4075
22076W        W38150  17.952   1.098   2.353 -0.3205  0.3033 -0.1230
22077W        W38151   7.553  13.682   3.515 -0.1491 -0.0990 -0.1386
22078W        W38152  17.137   5.861  14.631 -0.0352 -0.1471  0.1783
22079W        W38153  18.083  10.239  12.863  0.1130 -0.1264  0.1806
22080W        W38154   0.477   3.949   0.530  0.1248 -0.1413  0.0678
22081W        W38155  14.297  16.120  14.686 -0.1982 -0.0383  0.0713
22082W        W38156  16.654  14.774   1.110 -0.3267 -0.0447 -0.0719
22083W        W38157  13.216  12.441  11.586 -0.0583 -0.0406 -0.3567
22084W        W38158  12.491  11.790   4.601  0.1321  0.0181 -0.2306
22085W        W38159   0.839  14.528   8.929  0.0916 -0.0273 -0.2659
22086W        W38160   9.982   2.793   3.330 -0.1584 -0.1486  0.1937
22087W        W38161   8.669  13.871  10.561  0.1470 -0.0994 -0.0827
22088W        W38162  12.321   6.422   6.005 -0.2724 -0.2715 -0.2579
22089W        W38163   3.992   9.188  12.654  0.3259 -0.2677  0.0114
22090W        W38164  17.623   6.081   2.913 -0.3308  0.2294  0.0274
22091W        W38165  16.387  10.692   0.241  0.1177  0.1216 -0.0395
22092W        W38166   9.107  10.750  12.008 -0.0513 -0.1476  0.1976
22093W        W38167   3.373   3.870   3.318  0.1422 -0.1185 -0.1712
22094W        W38168  10.329   7.316  14.622  0.1657 -0.4194  0.2200
22095W        W38169  10.050   6.836   2.301 -0.0054  0.0698 -0.3028
22096W        W38170   5.765   0.428   3.614 -0.0438 -0.1324  0.0714
22097W        W38171  14.617   7.600   1.458  0.1379 -0.2830  0.0761
22098W        W38172   2.487   7.899   2.695  0.1523  0.1122  0.3705
22099W        W38173  16.562  14.857   5.266  0.0061  0.1102  0.3618
22100W        W38174   5.174  11.518   3.561 -0.2577  0.1397 -0.2821
22101W        W38175  13.226   0.100  10.973 -0.2157 -0.1331  0.1692
22102W        W38176  17.164  14.062  11.637  0.1965 -0.1127 -0.0182
22103W        W38177   7.389  17.338   2.132 -0.0763 -0.0247 -0.0723
22104W        W38178  13.830   3.250  13.639  0.0877 -0.0368  0.2070
22105W        W38179   5.490  18.556  14.814 -0.0876  0.2863 -0.1525
22106W        W38180  10.302   0.744   1.645 -0.3838  0.0162  0.0629
22107W        W38181  13.559   9.701   3.623 -0.1400 -0.3235 -0.3194
22108W        W38182   7.630   2.544   1.367 -0.1480 -0.1794 -0.2054
22109W        W38183   0.965  12.550  11.838 -0.0391 -0.0882 -0.0919
22110W        W38184  14.222  11.287  13.237  0.0531 -0.3667  0.1415
22111W        W38185  17.660  13.366  11.048 -0.1863  0.2188 -0.0539
22112W        W38186   8.962  16.211  11.578  0.1896 -0.2192  0.0353
22113W        W38187  16.456  14.414   2.385 -0.1536  0.1583 -0.3027
22114W        W38188   6.772   1.725  14.228 -0.2495  0.0376 -0.0074
22115W        W38189  11.435   2.787   3.425  0.1387  0.2601  0.0198
22116W        W38190   2.635   8.532  12.593  0.3754 -0.0699 -0.2267
22117W        W38191  14.054   5.852   1.125 -0.0866  0.2075 -0.1868
22118W        W38192   2.632   8.484   4.979 -0.0445 -0.0528  0.1048
22119W        W38193   8.439   6.804   1.216  0.1860 -0.1485 -0.0454
22120W        W38194  10.109   5.688   4.898  0.2223 -0.2966 -0.2370
22121W        W38195   6.552   1.847  12.715  0.4398  0.2649 -0.1632
22122W        W38196  16.106   2.681   5.077 -0.0551 -0.0868  0.0861
22123W        W38197   0.591   1.527  13.851  0.2956  0.0086  0.3181
22124W        W38198   5.271   8.821   4.081  0.0084 -0.3341 -0.6869
22125W        W38199  12.627   7.416   2.945 -0.0446 -0.2862 -0.3899
22126W        W38200   6.772   2.085  14.595  0.0998 -0.1049  0.4877
22127W        W38201  12.553  16.010   4.636  0.1882 -0.3399  0.5566
22128W        W38202   7.776  17.034   4.691 -0.2140  0.3975  0.3220
22129W        W38203  11.753   1.700  13.651 -0.1898 -0.3120  0.0378
22130W        W38204  16.010  18.315  12.005  0.1638 -0.1122 -0.1819
22131W        W38205   9.451   7.270  13.572 -0.0642 -0.0687  0.0282
22132W        W38206   8.983   5.234   2.200 -0.2912  0.0753  0.0266
22133W        W38207   7.151   2.338  11.656 -0.1970  0.1972 -0.0378
22134W        W38208  17.491  10.926  12.456  0.2207 -0.0857  0.1953
22135W        W38209  13.224   7.857  14.236  0.3811 -0.1796  0.0542
22136W        W38210   6.911   8.639  11.524 -0.1783 -0.0629  0.2487
22137W        W38211   8.114   9.449  13.405  0.0797 -0.0107  0.0823
22138W        W38212   7.045   1.292  14.279  0.0906  0.1855  0.2048
22139W        W38213  14.186   1.567   4.094  0.0573  0.0974  0.0152
22140W        W38214  13.636   8.499  11.721  0.0686 -0.0098 -0.1468
22141W        W38215  13.104  19.063   3.649 -0.0136 -0.2555  0.3283
22142W        W38216  18.291   1.424  12.581 -0.1147 -0.0991 -0.0020
22143W        W38217  16.802  16.132   4.973 -0.3035  0.0318  0.1013
22144W        W38218  12.086  18.858   5.159 -0.1023  0.2356  0.1752
22145W        W38219   0.847   3.934   2.145  0.2668  0.0505  0.2593
22146W        W38220  11.252   9.707  13.013  0.1270 -0.0317 -0.1751
22147W        W38221  18.141  17.972   2.226 -0.1820  0.1086 -0.0614
22148W        W38222  10.078  11.087   4.432  0.2903 -0.1080  0.0658
22149W        W38223  18.934  18.627   4.328  0.2493 -0.2484 -0.1014
22150W        W38224   7.449   6.911   5.513 -0.0069  0.0109 -0.1200
22151W        W38225  14.373  19.180   3.953 -0.0356 -0.0312 -0.3983
22152W        W38226  19.220  11.496   3.441 -0.1340 -0.2111  0.2087
22153W        W38227   9.332   6.682   0.402  0.1932 -0.1037  0.0425
22154W        W38228   8.940  19.270  10.839  0.2615  0.2254 -0.3609
22155W        W38229  14.009  17.285   2.841 -0.1132 -0.2407 -0.0435
22156W        W38230   2.724   5.554  12.385  0.0501 -0.2932  0.4481
22157W        W38231  12.589   8.912  11.084 -0.2689 -0.1519 -0.1723
22158W        W38232   9.648   0.201   1.346  0.2142  0.1013 -0.3905
22159W        W38233   5.219  15.520   1.110  0.2603  0.0355 -0.3462
22160W        W38234  15.855  14.826   1.198 -0.1649  0.1262 -0.1146
22161W        W38235   7.592   2.841  12.231  0.2250 -0.1147 -0.0204
22162W        W38236  12.613  18.564   1.023 -0.1963 -0.0467  0.1549
22163W        W38237   1.729   9.459  12.834 -0.2082 -0.1846  0.0732
22164W        W38238   7.674  10.963   5.462  0.0480  0.0864 -0.0824
22165W        W38239  10.472   2.504   2.847 -0.1496  0.1240  0.1143
22166W        W38240   4.456  16.245   0.871  0.2944  0.1223 -0.1017
22167W        W38241   2.445   7.998   0.737  0.1378  0.0538 -0.4120
22168W        W38242  17.077  18.156  12.739 -0.1433  0.1424 -0.0558
22169W        W38243   8.061   1.811   1.077  0.0577 -0.0510 -0.0475
22170W        W38244   5.071  18.698   3.983 -0.0033  0.0334 -0.2735
22171W        W38245  10.506  14.085  13.610 -0.0655  0.2692 -0.0793
22172W        W38246  19.040   9.728  14.749 -0.0152  0.1452  0.2521
22173W        W38247   4.724   1.475   5.629  0.3414 -0.2416  0.1531
22174W        W38248   6.295   0.307   1.052  0.0973 -0.0421 -0.0468
22175W        W38249   7.211   6.800   3.998 -0.2689 -0.1285  0.0216
22176W        W38250  18.748   4.955   5.268  0.3991 -0.2168 -0.0802
22177W        W38251  16.925  14.333   2.564 -0.3144 -0.2789  0.1710
22178W        W38252   2.284  15.182  13.815 -0.1783 -0.2481  0.0619
22179W        W38253   1.710  11.578   1.954 -0.0292 -0.0523  0.0880
22180W        W38254  14.334  17.742   1.532 -0.0709  0.0028  0.2749
22181W        W38255   4.010   0.835   2.913  0.1569 -0.2959 -0.2737
22182W        W38256  10.569   8.149   1.235 -0.0674 -0.0262  0.5644
22183W        W38257   9.533   9.046   5.893  0.1365 -0.0851 -0.3706
22184W        W38258  15.659  12.593   3.137  0.3036  0.0116  0.0194
22185W        W38259   7.784  15.475  11.282  0.0291 -0.1561 -0.2936
22186W        W38260   4.268   9.330  10.562  0.2516 -0.1516 -0.2419
22187W        W38261  13.250   7.255  13.462 -0.2102 -0.3368 -0.0711
22188W        W38262  16.348   5.816  13.394 -0.2269  0.3022 -0.0866
22189W        W38263   4.636  15.440  13.117 -0.3829  0.1061 -0.0157
22190W        W38264  12.965   3.610   4.084  0.3521  0.0207  0.0828
22191W        W38265   5.519   3.763   5.255  0.3438 -0.1756 -0.0532
22192W        W38266   8.763   0.320   3.850 -0.0216  0.1267 -0.0613
22193W        W38267   0.492   3.373   0.309  0.0123  0.0791 -0.0606
22194W        W38268  12.156   5.434  14.186  0.1226  0.5549  0.1006
22195W        W38269  14.706  16.449  14.899  0.2925 -0.3857  0.4091
22196W        W38270   5.966   6.767   3.190 -0.1194 -0.2610 -0.0567
22197W        W38271   8.279  11.856   4.446  0.0492 -0.1646  0.0305
22198W        W38272   5.347   5.735  12.614  0.0927  0.1557  0.1259
22199W        W38273  11.329   1.430  13.632  0.3133 -0.3585 -0.0532
22200W        W38274  17.495   0.530  10.040  0.0311  0.0135 -0.1447
22201W        W38275  10.679  11.463  14.933  0.0943 -0.3017  0.1624
22202W        W38276  19.024  11.725  14.497 -0.1747  0.2822  0.2869
22203W        W38277  18.466  16.601  13.636 -0.2129  0.0239  0.4967
22204W        W38278  12.967  16.920  10.584 -0.1453  0.3436 -0.0446
22205W        W38279  12.774   0.051  14.135  0.0424 -0.3675 -0.2910
22206W        W38280  18.254  18.994   2.567 -0.2127  0.2217  0.0013
22207W        W38281   4.812   4.541   5.580  0.1210 -0.0278  0.0086
22208W        W38282  12.561   5.212   6.054  0.3964 -0.0315  0.1618
22209W        W38283  14.171   3.973   2.096 -0.0950 -0.2802  0.1337
22210W        W38284   6.361   7.399   2.719 -0.0390  0.2536 -0.0860
22211W        W38285  11.486  17.815   3.844 -0.0099  0.0325 -0.1411
22212W        W38286   9.822   0.972  11.027  0.4620  0.0046  0.2571
22213W        W38287  12.214  13.734  10.345 -0.0630 -0.2029 -0.4107
22214W        W38288  10.305  10.045   0.241 -0.1477 -0.0978  0.0584
22215W        W38289   5.192   8.022   3.582 -0.2109  0.3711  0.3323
22216W        W38290  18.603  18.931  11.144 -0.0039 -0.0378  0.1323
22217W        W38291   0.972   9.475   5.584 -0.1561 -0.0568  0.1499
22218W        W38292  11.255   3.745   4.827 -0.2671 -0.2798  0.0004
22219W        W38293   8.079  16.761  14.675  0.0469  0.1515  0.2254
22220W        W38294  10.837  19.283  13.331  0.1397  0.1206 -0.1676
22221W        W38295  10.022  15.733   2.004  0.2193  0.1003  0.0568
22222W        W38296   6.262  18.663   5.310  0.1104  0.0969 -0.1238
22223W        W38297  11.347   2.563   2.462  0.1511 -0.0444 -0.4109
22224W        W38298   6.664  10.236   2.394  0.1706  0.2952 -0.1430
22225W        W38299  13.503  16.232  14.752  0.0919 -0.0414 -0.0790
22226W        W38300  16.438  18.778  12.034  0.3962  0.1082 -0.3725
22227W        W38301  18.211  14.290   0.628  0.0400 -0.1467 -0.1669
22228W        W38302  15.932  12.047   1.225  0.0396  0.1301  0.1747
22229W        W38303  12.048   0.722  15.008  0.1146 -0.0113  0.1286
22230W        W38304  18.802  16.332   0.651 -0.1936  0.1123  0.2531
22231W        W38305  12.794  10.225  11.731 -0.2281  0.0472 -0.3180
22232W        W38306  18.101  16.293  14.268 -0.1741  0.2202 -0.2545
22233W        W38307   9.803   7.102   0.312 -0.2022  0.1552  0.0761
22234W        W38308  17.953   9.410  13.248  0.2483 -0.3791  0.1976
22235W        W38309  15.358  15.372   4.757 -0.0572 -0.2600 -0.0188
22236W        W38310  15.632   1.598  13.710 -0.3694 -0.0385  0.2497
22237W        W38311  11.897  11.992  11.873 -0.1287  0.0449 -0.0945
22238W        W38312  19.115  17.219  10.355 -0.2957  0.2942  0.0920
22239W        W38313   0.602  16.216  14.491 -0.2182  0.0952 -0.3968
22240W        W38314   3.580  15.533  14.499  0.0134  0.0858  0.0836
22241W        W38315  16.808   7.295   4.332  0.1745 -0.1725  0.0584
22242W        W38316  12.914   6.748   2.416  0.3837  0.2505 -0.0127
22243W        W38317  15.073  17.068  14.215  0.4305 -0.0052 -0.1512
22244W        W38318   3.325  15.699   3.933 -0.0414 -0.1312 -0.0130
22245W        W38319   5.834  10.735  11.762 -0.0694  0.0298  0.1734
22246W        W38320  15.040  15.390   2.190 -0.2251 -0.0695 -0.0440
22247W        W38321   7.784   5.433   4.851  0.2573 -0.0692  0.0358
22248W        W38322  14.635   8.826  12.182  0.0185  0.4781  0.0480
22249W        W38323  13.542  12.392   2.651  0.2932  0.0313 -0.2845
22250W        W38324   5.268  15.030   3.141 -0.1769 -0.1720 -0.0862
22251W        W38325  11.150   6.594   2.786  0.0230 -0.2137 -0.0638
22252W        W38326  13.660  11.799   1.576  0.1738  0.3062  0.3325
22253W        W38327   5.506  14.099  12.140  0.3001  0.0384  0.0532
22254W        W38328   5.237   8.604  13.854 -0.0869 -0.1506  0.3688
22255W        W38329  18.320   0.482  10.741 -0.1313  0.2469 -0.2664
22256W        W38330   1.109  10.642   2.826 -0.2191 -0.2357 -0.0874
22257W        W38331  12.324  16.788   1.897 -0.0536 -0.0079 -0.2938
22258W        W38332  15.071   8.209  10.692 -0.3244 -0.4772  0.0622
22259W        W38333  14.000   6.873   3.580  0.3189 -0.1070  0.0601
22260W        W38334   7.858   8.055   3.969  0.0771 -0.0104 -0.2374
22261W        W38335   1.461   1.305  12.702 -0.0580  0.0651 -0.0604
22262W        W38336   1.523   0.178   0.535  0.4567  0.1203 -0.1152
22263W        W38337  12.224   8.894  13.327  0.0125  0.2691 -0.3068
22264W        W38338  11.556   0.510   0.763  0.0694  0.1804 -0.0989
22265W        W38339  17.337   1.808   3.937 -0.0294  0.0571  0.0154
22266W        W38340   3.878   2.898   5.205 -0.2253 -0.2599  0.1582
22267W        W38341  16.299  16.797   0.638 -0.3739 -0.1279 -0.0520
22268W        W38342  10.276  16.436   1.215  0.0852 -0.0227  0.1562
22269W        W38343   3.229   5.567   3.304  0.0569 -0.0127  0.0998
22270W        W38344   9.766   2.175  11.776  0.1763  0.3185  0.2801
22271W        W38345   7.709   2.187   0.966 -0.0422  0.2314 -0.1127
22272W        W38346   8.501  15.905  10.740 -0.1614 -0.2319  0.0015
22273W        W38347  10.185  11.713   5.264  0.0200 -0.0734  0.0763
22274W        W38348  12.143   9.348   2.672 -0.1807 -0.1125 -0.2526
22275W        W38349   0.342  12.184   4.955  0.2132 -0.2452  0.1877
22276W        W38350  15.269   1.476   1.540  0.0769  0.2340 -0.1114
22277W        W38351   5.879  18.386  13.779  0.0493 -0.0959 -0.1408
22278W        W38352  13.337   0.798  14.398  0.1008  0.1982  0.2413
22279W        W38353   7.804   6.062   5.716 -0.3997 -0.0978  0.3741
22280W        W38354  16.378  16.406  12.085  0.0111  0.1612 -0.2982
22281W        W38355  11.737   5.293  12.252 -0.1077 -0.1882 -0.0333
22282W        W38356  15.659  12.631  11.193  0.0299 -0.2199  0.0019
22283W        W38357  10.460  12.661   5.219  0.1723  0.1357  0.1346
22284W        W38358  11.772   4.038  10.269 -0.0190  0.1927  0.3332
22285W        W38359  15.680  11.857  10.324 -0.0005  0.1210 -0.1580
22286W        W38360  12.509  15.981  12.889 -0.1626  0.4637 -0.0540
22287W        W38361   9.487  14.168   5.353 -0.0760 -0.0229  0.3002
22288W        W38362   7.690   6.338   0.267 -0.1486  0.0034 -0.0113
22289W        W38363  15.962   1.136   4.388 -0.0558  0.0705  0.0444
22290W        W38364   3.648  10.836  14.837 -0.0880 -0.2344 -0.0545
22291W        W38365  14.815  13.022   3.994  0.2207  0.1164 -0.0249
22292W        W38366  15.088   0.314   0.127  0.2646 -0.1296  0.2885
22293W        W38367  15.396  12.886  10.364 -0.3721 -0.0589 -0.2312
22294W        W38368   8.829   7.713  14.374  0.0107  0.4013  0.1189
22295W        W38369   4.211   9.708   2.820 -0.3789  0.1298 -0.0479
22296W        W38370   3.695   7.898   3.992  0.0038  0.1336 -0.1714
22297W        W38371   3.013   9.588   0.806 -0.0270 -0.3008 -0.1500
22298W        W38372  11.658  14.710   0.915 -0.0902  0.0801  0.0222
22299W        W38373  11.286  11.789   1.278 -0.0801 -0.0991 -0.2746
22300W        W38374  17.957  10.360   4.046 -0.0331  0.1586  0.0467
22301W        W38375  14.988  14.118  10.604  0.0655  0.3299 -0.0741
22302W        W38376   4.028   2.677   3.624  0.2332 -0.0219 -0.0030
22303W        W38377   6.628   7.827   4.524  0.0544 -0.1996 -0.1047
22304W        W38378   4.377   1.578  10.998  0.0134  0.0475 -0.3454
22305W        W38379   6.196  12.907  13.074 -0.0041 -0.1703  0.0004
22306W        W38380  18.425  10.893  14.894 -0.0613 -0.1399  0.1881
22307W        W38381   3.856  17.014  12.024 -0.0853 -0.0046  0.0070
22308W        W38382   9.514  17.477  10.049 -0.0407  0.4251 -0.1217
22309W        W38383  13.171   5.407   4.966 -0.0183 -0.0298  0.4063
22310W        W38384   3.814   3.697  11.938 -0.0757 -0.0230  0.0256
22311W        W38385   7.838   7.468   1.013 -0.0925 -0.4438  0.0927
22312W        W38386  18.333  10.038   4.290 -0.1533 -0.0269  0.0561
22313W        W38387  16.568   9.719  12.488 -0.2018 -0.1319  0.0126
22314W        W38388   1.095  18.306   4.097 -0.3083  0.0461 -0.0447
22315W        W38389  12.911  12.743  12.908  0.1865 -0.0161 -0.0935
22316W        W38390  12.955  17.733   3.857  0.2482  0.1590  0.1108
22317W        W38391   0.633   6.992  14.102 -0.1176 -0.1305 -0.0413
22318W        W38392   2.863   2.759   2.502 -0.1032 -0.1201  0.0718
22319W        W38393  15.439   1.458  10.290  0.1111 -0.4081 -0.0073
22320W        W38394   9.741   6.693  13.732 -0.1308  0.1007  0.2099
22321W        W38395  11.237  16.443   4.502 -0.0973  0.0536  0.1676
22322W        W38396  13.215  10.431  11.360 -0.0585  0.1450 -0.0991
22323W        W38397  14.865  11.760  12.604  0.1432 -0.4508  0.1923
22324W        W38398  17.108  14.922   2.940 -0.1270 -0.1469  0.4364
22325W        W38399  15.362  11.324   1.071  0.0975 -0.1551  0.0003
22326W        W38400  19.261  16.366   0.164  0.0796 -0.3186 -0.0873
22327W        W38401   9.418  13.082   1.321 -0.2269 -0.1625 -0.1511
22328W        W38402  16.601  14.968  10.800  0.0917 -0.2538 -0.1179
22329W        W38403   1.566  14.310  11.163 -0.5585 -0.2819 -0.1217
22330W        W38404   6.269  16.561   0.052  0.1215 -0.2893  0.0803
22331W        W38405  13.225  18.273  10.025  0.2951  0.1793 -0.1530
22332W        W38406   3.002   5.524  11.979  0.0497 -0.0164 -0.1008
22333W        W38407   9.329  13.275   5.639 -0.0324 -0.0366 -0.1213
22334W        W38408   2.101  11.849  14.799  0.3054 -0.0002  0.3458
22335W        W38409   6.185   8.507   2.706  0.0295 -0.4644 -0.0136
22336W        W38410  12.096  15.265   4.375 -0.0115  0.2352  0.1343
22337W        W38411  14.497   5.708  10.860  0.0333  0.2419 -0.1481
22338W        W38412   3.831  14.751  13.676 -0.3775 -0.0471  0.0280
22339W        W38413  13.496  12.332  13.605 -0.1013 -0.1829 -0.2625
22340W        W38414   7.765   9.413   4.689 -0.2610 -0.2711  0.0362
22341W        W38415   5.264   7.075  14.401 -0.0836  0.2210  0.3011
22342W        W38416   1.939  10.583   2.250 -0.0491 -0.1592  0.0680
22343W        W38417  17.784   9.299   0.024 -0.1061  0.0199 -0.1168
22344W        W38418   6.897  18.287   3.054 -0.0020  0.0277  0.2035
22345W        W38419   1.789  15.452   0.204 -0.0160  0.0085 -0.2833
22346W        W38420   1.654   5.400  13.450  0.0915 -0.2771  0.2551
22347W        W38421   5.015   0.572   5.282 -0.1228  0.1185 -0.0909
22348W        W38422   2.032   9.635   1.798  0.1580  0.2356 -0.3652
22349W        W38423  10.080   4.020  12.928  0.1450 -0.0784 -0.0025
22350W        W38424  10.792   2.150   1.064  0.0098 -0.0235 -0.0391
22351W        W38425   5.389   6.469   1.038  0.3015  0.0504 -0.1246
22352W        W38426  10.982   4.184  12.652  0.0102 -0.0960  0.1381
22353W        W38427   8.356   6.854   4.070  0.0043  0.0762 -0.0263
22354W        W38428  18.262   5.575   3.982  0.2243  0.2043 -0.0419
22355W        W38429   7.004  17.810   5.568  0.1121  0.0994 -0.0484
22356W        W38430   2.936  11.907   1.642  0.2319  0.3121 -0.2002
22357W        W38431   4.882   0.987   3.037  0.0964 -0.1120 -0.0169
22358W        W38432  13.266  16.038   3.909 -0.1423 -0.0517  0.0978
22359W        W38433  10.039   7.893   5.068  0.0404 -0.1714  0.0018
22360W        W38434  12.919  18.872  11.118 -0.2689  0.2897 -0.0157
22361W        W38435  15.598   5.977  14.958 -0.3216 -0.4789 -0.1194
22362W        W38436   6.751   9.779   3.275  0.3457  0.0430 -0.1519
22363W        W38437   8.000   1.007   1.552 -0.2599 -0.0494 -0.2127
22364W        W38438   5.757   9.370   3.387  0.0365  0.0114 -0.0550
22365W        W38439  17.601  14.768   3.062 -0.1667  0.0228  0.1454
22366W        W38440   7.241  10.786  10.683  0.1177  0.1567  0.1703
22367W        W38441   2.127  14.159  11.838 -0.1150 -0.0798 -0.3067
22368W        W38442   3.699   6.516  10.348  0.0062 -0.1037  0.2840
22369W        W38443   7.429   1.537  11.080  0.0975 -0.3960 -0.1352
22370W        W38444   7.498  17.636   3.379  0.1175 -0.3042  0.2472
22371W        W38445  10.799   1.020   1.794  0.2445  0.3325 -0.0851
22372W        W38446  11.781  15.453   2.103  0.1853  0.0068 -0.1156
22373W        W38447  18.525   6.296   2.830 -0.7226  0.0519  0.1599
22374W        W38448   0.619   7.887  14.643 -0.1276 -0.0809 -0.1976
22375W        W38449  15.227   7.179   9.874 -0.1500 -0.4842 -0.1385
22376W        W38450   3.309   5.059   4.593 -0.0302  0.2995  0.3166
22377W        W38451   8.534  11.488  12.584  0.1390 -0.1429 -0.2871
22378W        W38452  13.750  16.171  13.055 -0.0301  0.3858 -0.0851
22379W        W38453   7.090   7.332   2.124  0.2397  0.0647  0.0554
22380W        W38454   5.839   6.913   0.905 -0.0192 -0.1641 -0.1131
22381W        W38455  11.455  11.747  13.496 -0.0350 -0.0003 -0.0227
22382W        W38456   8.795   5.288  11.949 -0.3603  0.2876  0.1775
22383W        W38457  12.488   9.547   0.362  0.0410  0.3436 -0.0860
22384W        W38458   8.097  12.180   2.194 -0.0875 -0.3514  0.0396
22385W        W38459  17.814   4.925  13.839 -0.0133 -0.0244  0.3978
22386W        W38460  13.376   9.271  10.113  0.2444  0.6654 -0.2392
22387W        W38461   9.163   9.830   0.844  0.2289  0.2521 -0.2322
22388W        W38462   2.429   0.875  12.936  0.2276 -0.2679  0.2404
22389W        W38463   9.987  18.169   1.663 -0.0509 -0.1486 -0.2292
22390W        W38464   1.729   8.610  11.512  0.1546 -0.1377 -0.1777
22391W        W38465  11.222   8.007   4.573  0.0181 -0.1530  0.0134
22392W        W38466  17.666  18.279  12.839  0.2800 -0.0543  0.2399
22393W        W38467   5.583  16.089   2.448 -0.0909  0.2997 -0.1152
22394W        W38468   0.804  18.576   2.498 -0.0506  0.3279  0.3955
22395W        W38469  15.018  16.933  12.694 -0.0811  0.1527  0.1466
22396W        W38470   5.269  15.870  11.189  0.3846 -0.2447  0.1319
22397W        W38471   5.815   6.982  14.593 -0.2466 -0.2791 -0.1543
22398W        W38472   9.953   3.204   4.973 -0.0764  0.2184  0.0765
22399W        W38473   5.347   4.073   2.879 -0.3106  0.0805  0.3121
22400W        W38474   5.935   0.339  14.121 -0.3118 -0.0606  0.3733
22401W        W38475   0.051  10.275   9.280  0.3066  0.0811 -0.0650
22402W        W38476   9.688   8.933   4.486  0.1121 -0.2234  0.1335
22403W        W38477   6.074   4.023  12.398 -0.0751  0.5658 -0.1701
22404W        W38478   5.224  11.843  12.233 -0.1654 -0.0672  0.4180
22405W        W38479   9.651  16.835  12.540 -0.0070 -0.1164  0.0626
22406W        W38480  15.533  18.182  14.722  0.1606 -0.3176  0.6754
22407W        W38481  18.701  12.928  14.042  0.2629  0.0730  0.1999
22408W        W38482  18.633  16.993  13.393 -0.2516  0.0017 -0.1334
22409W        W38483   2.056  15.031   2.431 -0.3530 -0.2320  0.0532
22410W        W38484   8.168  10.430   4.458 -0.3323  0.1403  0.0526
22411W        W38485   7.436  12.845   1.585  0.0870 -0.0295  0.1131
22412W        W38486   9.803  10.499   3.795  0.1534 -0.1306  0.2618
22413W        W38487   7.552   0.697   3.448 -0.1805  0.0214  0.3465
22414W        W38488  12.880   8.081  14.891  0.0387 -0.0082 -0.0162
22415W        W38489   5.940   3.628   5.512 -0.0228  0.0155 -0.1973
22416W        W38490   3.540  16.819  11.648  0.1957 -0.3168  0.1230
22417W        W38491   9.686  15.529   9.854  0.2022  0.2382  0.0722
22418W        W38492  12.396  14.587  10.863 -0.4725  0.1055  0.0832
22419W        W38493  18.794   1.877   5.258  0.2673 -0.1540  0.3217
22420W        W38494  10.287  11.320   4.856 -0.0873 -0.2089 -0.0493
22421W        W38495   0.967   8.320   2.311  0.2115  0.1816  0.0182
22422W        W38496   9.839   5.108   9.839 -0.0431 -0.3708 -0.1846
22423W        W38497  12.848  18.781  15.023  0.1076 -0.0687 -0.5663
22424W        W38498  10.557  13.139  14.468  0.0762 -0.1780  0.0764
22425W        W38499   1.085   7.973   4.567 -0.0227 -0.0583 -0.1549
22426W        W38500  14.858   6.773   0.403  0.4802 -0.1548 -0.1454
22427W        W38501   2.752  17.817  12.791 -0.1304  0.0875  0.1731
22428W        W38502  14.965  10.905   1.918 -0.3603  0.0862  0.0448
22429W        W38503  11.044   2.091   4.913  0.0408 -0.0826  0.0970
22430W        W38504  16.136  10.014   3.304 -0.0305  0.1320  0.2073
22431W        W38505   4.946  12.698   5.651 -0.1027  0.3364  0.0092
22432W        W38506  12.013   0.782   0.439  0.1466  0.0177  0.1226
22433W        W38507  16.305  11.559   4.132 -0.0702 -0.2402 -0.1190
22434W        W38508   5.228  13.926   4.057 -0.4248 -0.0669 -0.1119
22435W        W38509  14.456  11.182  11.296 -0.0915  0.2645 -0.1859
22436W        W38510  17.612   3.927  14.515  0.1951 -0.1431 -0.1315
22437W        W38511  16.690   0.851   3.236  0.0884 -0.2037 -0.2828
22438W        W38512  17.505   7.329   2.651 -0.3518  0.1527 -0.3172
22439W        W38513  15.121  13.308  12.934  0.2520  0.1160 -0.1317
22440W        W38514   3.838  18.888  12.969 -0.1304  0.0174  0.0113
22441W        W38515  13.364   4.208   4.488 -0.0096  0.0606 -0.0007
22442W        W38516  10.627   2.905   3.812  0.0287  0.2207 -0.2523
22443W        W38517   3.260   4.484   1.052  0.2296  0.2068 -0.1299
22444W        W38518  17.050  10.010  10.210  0.1947 -0.0450  0.1381
22445W        W38519  14.642   2.183  12.052 -0.1470  0.2550  0.0317
22446W        W38520   7.300   6.293   3.120 -0.3912 -0.0057 -0.0041
22447W        W38521  14.670   6.515   3.519  0.2797 -0.0549  0.0048
22448W        W38522  11.860  17.681   9.254 -0.2033 -0.1873 -0.4058
22449W        W38523   8.392   8.384   1.250 -0.3562 -0.0776 -0.0026
22450W        W38524  13.180   8.931   3.225 -0.3591  0.1026  0.1514
22451W        W38525  16.700  12.324   1.831  0.0910  0.0566  0.1243
22452W        W38526   9.939  12.976   5.804  0.0392 -0.2187  0.1065
22453W        W38527  17.701   3.096   5.403 -0.0640  0.0534  0.3069
22454W        W38528  13.088   5.724   9.942 -0.1052  0.2314  0.0386
22455W        W38529   8.331  16.078   2.590  0.0439  0.0034 -0.1673
22456W        W38530  11.234   1.195   1.949  0.1741  0.0550  0.0247
22457W        W38531  18.527  13.596  11.609  0.4390  0.1289  0.2583
22458W        W38532   7.629  17.808  12.843 -0.0295 -0.0680 -0.1197
22459W        W38533   6.961   4.445   3.368  0.1071  0.4885  0.0382
22460W        W38534   8.977   2.972  10.654 -0.1991  0.2337  0.2093
22461W        W38535   3.407   6.512   4.255  0.0536 -0.2223  0.0206
22462W        W38536   9.011   2.196  12.725  0.0077  0.2496  0.0106
22463W        W38537   9.251  10.288   5.667  0.0618 -0.4489 -0.2896
22464W        W38538   6.738  17.599  12.270 -0.0732  0.1175  0.1751
22465W        W38539   5.847  10.157   3.967 -0.2079 -0.1141 -0.2458
22466W        W38540   4.710  16.099   1.692  0.0721  0.2116  0.3314
22467W        W38541   9.441   8.859  13.556 -0.0061  0.0992  0.0795
22468W        W38542   8.175  15.349   4.564 -0.0478  0.1619  0.0082
22469W        W38543   9.674  11.825   5.241  0.2494 -0.1611 -0.0537
22470W        W38544   9.099  14.737  14.670 -0.2739 -0.1252  0.1586
22471W        W38545  17.420  15.494   2.032 -0.1746 -0.0487  0.1622
22472W        W38546   7.066   5.782   4.454 -0.3916 -0.3195 -0.0830
22473W        W38547  11.915  17.211  11.991 -0.0475 -0.1816  0.1435
22474W        W38548  18.582   7.603  11.231  0.1416  0.0326 -0.0638
22475W        W38549  18.843  10.699   2.292 -0.1096  0.1520 -0.2832
22476W        W38550   9.342  18.378   1.901  0.1591  0.0115  0.2647
22477W        W38551   1.927  13.278   0.889  0.2155 -0.3091 -0.2162
22478W        W38552  17.198  18.421   3.509 -0.0528 -0.2032  0.2865
22479W        W38553   5.891  16.784  11.940  0.4763  0.0450  0.1422
22480W        W38554   3.751   5.825  14.800 -0.0525 -0.0843  0.2786
22481W        W38555  14.432  13.063   3.594  0.0316 -0.1159 -0.2721
22482W        W38556  11.060  15.029   0.226  0.0536 -0.1427  0.1481
22483W        W38557  12.534   7.722   0.380  0.0664  0.0358  0.2640
22484W        W38558   9.459  18.341  11.651  0.0059  0.0876 -0.0383
22485W        W38559  17.993   6.702  13.997  0.1529  0.1131 -0.0117
22486W        W38560  12.407   8.908   2.583 -0.0537 -0.1965 -0.4006
22487W        W38561  13.967  14.944  11.028  0.1422  0.0398  0.0484
22488W        W38562   0.131   3.767  14.673 -0.0430  0.0582  0.1632
22489W        W38563  13.896  11.121   3.912  0.3115  0.0394 -0.0657
22490W        W38564   0.306   2.584   5.447 -0.3488  0.0633  0.2754
22491W        W38565   4.620  17.428   3.750 -0.3115 -0.4719 -0.3896
22492W        W38566  12.606   4.690   1.037  0.2232 -0.2891 -0.1250
22493W        W38567  12.303  12.834  13.056 -0.0984  0.0484  0.0865
22494W        W38568   1.523   5.512   5.233  0.1250  0.0892 -0.1561
22495W        W38569   2.241  15.403   2.923  0.0276 -0.0247  0.0358
22496W        W38570   7.046  12.547  14.262 -0.0624 -0.2239 -0.0626
22497W        W38571  11.708  16.967  10.707 -0.0096  0.2277 -0.0124
22498W        W38572   7.654  16.536   4.451 -0.4069 -0.0994 -0.0587
22499W        W38573  12.926  16.398  10.456 -0.0170 -0.4955  0.0053
22500W        W38574  17.915   3.021   4.317  0.0624  0.0942 -0.1587
22501W        W38575   8.392  11.592  14.779 -0.1459  0.0017 -0.0036
22502W        W38576   9.637   2.191   2.887  0.1962  0.2317  0.2119
22503W        W38577  17.575  11.636   3.952 -0.1205  0.4377  0.3906
22504W        W38578  15.633   5.821  14.144  0.0386 -0.1439  0.1161
22505W        W38579   5.880   1.952   1.612 -0.1287 -0.1186  0.0546
22506W        W38580  16.534   6.849   4.084 -0.3362 -0.1207 -0.1928
22507W        W38581   3.153  13.222  14.759  0.1974  0.0623 -0.0289
22508W        W38582   8.109  10.902   3.272  0.0334  0.2738 -0.3612
22509W        W38583   6.412  15.410   3.049  0.2247 -0.1952  0.0829
22510W        W38584  14.392  15.292   3.166  0.0093 -0.1262  0.1660
22511W        W38585  10.072  12.727  10.815 -0.0425 -0.0685  0.0496
22512W        W38586   6.614  12.584   4.820  0.1822  0.2886 -0.3064
22513W        W38587   7.794   9.316   0.955  0.0498 -0.0852  0.2184
22514W        W38588  11.460  14.926  13.166 -0.2153  0.1985  0.0913
22515W        W38589  15.422   6.315  14.122  0.1612 -0.0636  0.1509
22516W        W38590  14.116  11.002   9.869  0.0433  0.1940  0.0862
22517W        W38591  13.982   7.883   3.663  0.1026 -0.0612  0.0823
22518W        W38592  11.923  18.128  14.030  0.2809 -0.3672 -0.0719
22519W        W38593  12.521   0.614  14.882 -0.1892  0.0871 -0.1486
22520W        W38594   8.801  11.463  11.214  0.0116 -0.0317 -0.0729
22521W        W38595   5.613   4.606  13.378 -0.0122 -0.1142 -0.0329
22522W        W38596  10.827   1.476   0.758  0.1209  0.3957 -0.0470
22523W        W38597   6.110  13.648   3.263  0.0466  0.1642 -0.0894
22524W        W38598  12.421   3.222  11.735 -0.2496  0.2516 -0.0983
22525W        W38599  15.601  11.837   2.099 -0.1835  0.3952 -0.0771
22526W        W38600  14.427   5.717   2.553 -0.2145  0.3042  0.2457
22527W        W38601  19.023  13.425  10.907 -0.2179  0.2831  0.0528
22528W        W38602  15.488   4.028  12.549  0.1173  0.0754  0.1487
22529W        W38603   3.593   9.081  14.163 -0.2065 -0.1170 -0.1465
22530W        W38604   7.674   9.178  12.029  0.3292  0.0684 -0.2517
22531W        W38605   0.285  12.447   2.905 -0.1307 -0.1334  0.7178
22532W        W38606  12.573   3.837   2.658  0.1565  0.1050  0.1903
22533W        W38607   1.588   2.863   2.421 -0.0144  0.3952 -0.3520
22534W        W38608  10.892   1.861   1.539  0.0761  0.0730 -0.1220
22535W        W38609  17.207   7.591  11.348 -0.2882 -0.0344  0.1196
22536W        W38610   1.585   0.113   4.211  0.2716 -0.0383  0.1325
22537W        W38611   4.857   6.005   5.342 -0.2107 -0.5031 -0.2390
22538W        W38612   4.011  18.036   2.487  0.0454  0.0399  0.0560
22539W        W38613   2.358   5.357  10.091 -0.2935 -0.0123  0.4868
22540W        W38614   6.051  17.550   3.742 -0.1150 -0.2125  0.2630
22541W        W38615  14.704  10.793   0.945 -0.2020 -0.4383  0.2447
22542W        W38616   8.652  15.027  11.504 -0.1663 -0.0036 -0.1000
22543W        W38617  10.341  10.916  11.341 -0.0253  0.0307  0.2768
22544W        W38618  14.722  14.807  12.193 -0.3319 -0.3836  0.4611
22545W        W38619   4.242  16.496  12.098 -0.1926 -0.0277  0.1229
22546W        W38620   4.143   1.251   2.242  0.2042  0.0016 -0.1082
22547W        W38621   8.545   3.211   1.268  0.2219 -0.3204 -0.1160
22548W        W38622   3.430  17.014   3.513 -0.0577  0.2645  0.0713
22549W        W38623  18.458  11.572  11.780  0.1996 -0.1531 -0.2811
22550W        W38624   2.405  18.779   2.417  0.1050 -0.0004  0.1045
22551W        W38625   6.591   4.625  14.355 -0.1035  0.0191  0.1641
22552W        W38626   5.284   7.626   5.271 -0.1344  0.4609  0.0096
22553W        W38627   8.678  16.824  12.876 -0.1756 -0.2932 -0.2800
22554W        W38628   0.027   4.688  11.009 -0.2676  0.0310 -0.1252
22555W        W38629   1.874   3.047   1.635  0.2187 -0.0250  0.2649
22556W        W38630   1.620   0.822   4.779  0.1048 -0.0130  0.2552
22557W        W38631  15.003  14.777   1.757  0.0347 -0.2026 -0.0718
22558W        W38632   4.602  13.379  14.414  0.2741 -0.0015  0.0403
22559W        W38633  12.093   3.330   2.097 -0.1049 -0.2039  0.2670
22560W        W38634  13.461   3.650   0.816 -0.2366 -0.1890 -0.1631
22561W        W38635  17.665  10.732   2.256 -0.2078  0.0888  0.3552
22562W        W38636  12.959   2.139  14.013  0.2256 -0.1728 -0.2861
22563W        W38637  14.273  17.682   9.469  0.2294 -0.1601 -0.0348
22564W        W38638  13.688   3.852   1.283  0.0792  0.0796  0.1991
22565W        W38639   1.181   9.236  12.645 -0.2252  0.5342  0.2542
22566W        W38640   1.527  17.613  13.199  0.0186  0.1005  0.1085
22567W        W38641  18.994  14.167   3.180  0.0589  0.1638  0.3086
22568W        W38642   4.026   1.283   3.584 -0.0503 -0.0015  0.0055
22569W        W38643   1.206   4.674   2.924 -0.2025  0.0630  0.3942
22570W        W38644   3.042   0.980   5.334 -0.0769  0.0004 -0.0814
22571W        W38645   9.215   2.791   3.598  0.0868  0.1898 -0.2233
22572W        W38646   1.908  10.500  11.794 -0.1072 -0.0595 -0.0315
22573W        W38647  15.850  14.572  12.924 -0.2816  0.3716 -0.2065
22574W        W38648  15.159   6.116  11.835  0.0294  0.1563 -0.1486
22575W        W38649  19.082   0.834  11.815 -0.2192 -0.0349 -0.2481
22576W        W38650   4.091  11.196  12.014 -0.2308  0.2739 -0.0657
22577W        W38651   0.593  14.660  14.041 -0.0684  0.2007  0.2410
22578W        W38652   1.804   9.402  11.497  0.1176 -0.1372 -0.0539
22579W        W38653  15.330   2.401   4.110 -0.0898  0.0171 -0.0421
22580W        W38654  14.249  11.061   4.206  0.1040 -0.2817 -0.0289
22581W        W38655   0.878   2.002   3.171 -0.1794  0.1336 -0.1367
22582W        W38656   9.359   4.180   0.489  0.0747 -0.0475 -0.0356
22583W        W38657  18.624   5.270   2.593 -0.1014  0.1188  0.1747
22584W        W38658   3.883   8.143   3.120 -0.1388 -0.4594  0.0585
22585W        W38659  14.418  11.224   4.843  0.0814  0.4016 -0.1903
22586W        W38660   6.095  12.203   0.461 -0.0083 -0.0219 -0.0105
22587W        W38661   8.318   8.144   2.311  0.0554 -0.1934  0.2879
22588W        W38662  14.065   7.414   3.779  0.1732 -0.0236  0.0474
22589W        W38663  18.303   9.792  11.072  0.3031  0.1887  0.1686
22590W        W38664   7.320  11.106  12.870  0.0538  0.2413  0.0608
22591W        W38665  13.372  12.943  11.064  0.2469  0.0533  0.0852
22592W        W38666   5.813  18.367   4.268  0.2562  0.1607  0.0051
22593W        W38667  15.588  17.181  13.799  0.1339  0.0618 -0.1449
22594W        W38668  13.746  19.026   3.018  0.2253 -0.2379  0.0765
22595W        W38669   8.658  15.770   2.308 -0.0326 -0.0034  0.0630
22596W        W38670  10.045   9.332   0.615  0.2184 -0.2036  0.1738
22597W        W38671   0.729   7.087  10.711  0.2932  0.0034 -0.2981
22598W        W38672  10.814   4.520   0.057 -0.1574  0.1709 -0.0676
22599W        W38673   7.438   2.094   0.409  0.0271  0.0503  0.2309
22600W        W38674  10.933  18.793  13.467  0.0715 -0.3171  0.0606
22601W        W38675  11.342  11.863   2.064  0.4074 -0.0973  0.0357
22602W        W38676   5.753   7.856  11.036  0.1547  0.1331  0.0292
22603W        W38677   1.374   1.925   2.280 -0.0203 -0.3251 -0.2595
22604W        W38678   5.944  13.478  10.145 -0.0682  0.1895 -0.2888
22605W        W38679  17.196   5.018  14.971  0.0162  0.1855  0.0526
22606W        W38680  13.661  15.069   0.864  0.4857  0.1548 -0.0839
22607W        W38681  15.082  18.784  13.770  0.3347 -0.2074  0.0895
22608W        W38682  10.139  16.865   3.520 -0.2249 -0.0658  0.0337
22609W        W38683   1.748   3.671  13.576  0.0471  0.0432  0.3357
22610W        W38684  14.310   0.645   9.733  0.0427  0.1958 -0.3579
22611W        W38685   4.615  10.231   5.682  0.2652  0.0240 -0.1412
22612W        W38686  12.796  17.426   3.429 -0.0378  0.0523 -0.1460
22613W        W38687   7.669  15.526   4.498 -0.0755 -0.1151  0.1398
22614W        W38688   4.587  14.392   0.512  0.1179  0.1920  0.1285
22615W        W38689   8.487   0.206  11.135 -0.1257 -0.1021 -0.0086
22616W        W38690   7.805   1.472  13.126 -0.0517  0.0112  0.0271
22617W        W38691   7.569  18.336  12.062  0.1386 -0.3380  0.0530
22618W        W38692   2.699   7.942  12.148 -0.0585 -0.2424  0.2228
22619W        W38693  10.501   1.754  13.603  0.0226  0.0753 -0.0784
22620W        W38694   1.906  18.821   5.235 -0.1895 -0.3654  0.3095
22621W        W38695   7.960  14.360  11.400  0.1734 -0.0192  0.1116
22622W        W38696   7.484  17.551   1.551  0.1633 -0.1723 -0.2743
22623W        W38697   1.843  16.067  14.755  0.1857 -0.1047 -0.0000
22624W        W38698   2.690   9.876  12.882  0.2006 -0.0609  0.0138
22625W        W38699  15.470   2.378  14.271 -0.2364  0.0368  0.0113
22626W        W38700  16.383   5.814   3.871 -0.2081 -0.2690  0.1921
22627W        W38701   1.146  16.866  12.186  0.0853  0.0258 -0.3958
22628W        W38702  14.886  19.248  10.642 -0.0606  0.0778  0.2420
22629W        W38703   9.931  17.624  10.272 -0.3994 -0.2120  0.2426
22630W        W38704   0.260   2.480   2.777 -0.1096 -0.2159  0.0947
22631W        W38705  12.979   4.355   2.148 -0.1264  0.1477 -0.0529
22632W        W38706   2.094   1.251  14.205 -0.0200  0.0454 -0.0798
22633W        W38707   1.139  13.146   3.338  0.2964  0.1859 -0.2141
22634W        W38708  13.040   1.377   1.991 -0.1349  0.1108  0.1640
22635W        W38709  18.460  11.582   2.154 -0.0466  0.1111  0.0587
22636W        W38710   9.124  12.175  11.511  0.1175  0.1071  0.4306
22637W        W38711   7.727  17.013  13.306 -0.1559 -0.0851 -0.0633
22638W        W38712   7.593   1.558  12.642  0.0355  0.0274  0.1983
22639W        W38713  12.221  19.119  14.085 -0.2506  0.2987 -0.0300
22640W        W38714  15.296   1.731   2.174  0.2046  0.2531 -0.0902
22641W        W38715   1.146  13.763   5.378  0.3059 -0.3427 -0.4100
22642W        W38716  13.604  11.388  13.946  0.0715 -0.1283  0.1784
22643W        W38717   8.762   0.226  14.115 -0.1488 -0.1487 -0.0666
22644W        W38718   1.769   9.826  14.443 -0.2336  0.4235 -0.0884
22645W        W38719   9.561  10.399  10.928 -0.3755  0.1346 -0.1814
22646W        W38720   5.786   1.419  11.043  0.2042 -0.0090  0.1572
22647W        W38721   9.831   2.964   2.467 -0.2854  0.0211 -0.1411
22648W        W38722   6.129   3.108   3.766 -0.3449  0.1550 -0.0973
22649W        W38723  10.703   5.750   1.452  0.0356  0.0513  0.0839
22650W        W38724  12.789  10.783   2.953 -0.0941 -0.2404 -0.0250
22651W        W38725  17.944   0.873  10.150  0.3652 -0.3349 -0.0970
22652W        W38726  19.194  17.633  13.009  0.2133 -0.1447  0.2731
22653W        W38727  17.468  12.755   1.080 -0.2057 -0.0114  0.0894
22654W        W38728   9.488   0.414  13.052 -0.2515  0.3706 -0.1986
22655W        W38729  18.035  16.808   3.432 -0.2338  0.1305  0.0588
22656W        W38730   5.837   9.796   3.605  0.0119  0.2395  0.1540
22657W        W38731   3.904  18.546   5.918  0.2485  0.0409  0.0475
22658W        W38732   3.607  10.006   4.422  0.4271 -0.0981 -0.1158
22659W        W38733  11.166  10.316   0.393  0.2649 -0.0251 -0.1195
22660W        W38734   3.837   7.531  13.384  0.0010 -0.2640 -0.0676
22661W        W38735   6.089   9.578   2.258 -0.4271  0.0039 -0.4043
22662W        W38736  13.401  18.988  13.337 -0.0858 -0.2841  0.2652
22663W        W38737   4.854  12.121  12.891  0.3229 -0.0815  0.1562
22664W        W38738   3.020   0.214  11.615 -0.1013 -0.0877 -0.2902
22665W        W38739   4.203   1.979  10.729 -0.1685  0.0367 -0.1809
22666W        W38740   3.992   8.171  12.569  0.1350  0.4158  0.0934
22667W        W38741   1.595  13.047   1.693 -0.1851 -0.1934 -0.0440
22668W        W38742  13.465   6.774   4.043 -0.2677  0.0860  0.2483
22669W        W38743  12.544  14.293  13.169 -0.0908 -0.0345 -0.1160
22670W        W38744   2.324   2.659  14.977 -0.1742  0.4120  0.3625
22671W        W38745  12.889   7.463   3.752 -0.1761 -0.0319 -0.2713
22672W        W38746  13.981   2.606   1.449 -0.0752 -0.2217 -0.2965
22673W        W38747   4.883   5.171   4.775  0.1648 -0.1389 -0.0094
22674W        W38748   7.511   2.245   3.565  0.1433  0.0349  0.1402
22675W        W38749  14.983   4.616   2.095  0.0685  0.1247  0.0183
22676W        W38750  11.434   9.880  13.602 -0.0012  0.1140 -0.0701
22677W        W38751  17.570   6.242  14.680 -0.1103  0.1727 -0.0798
22678W        W38752   1.148   3.938  11.750 -0.1971 -0.0073  0.1260
22679W        W38753   8.541   1.470   3.164  0.2112 -0.0600  0.0957
22680W        W38754   4.814   1.394   1.622 -0.1970  0.0951 -0.2883
22681W        W38755   1.015   9.463   4.115  0.0108 -0.0796  0.1387
22682W        W38756   4.423   9.992   4.003 -0.0453  0.0416 -0.0240
22683W        W38757  18.876   4.414  12.474 -0.0778  0.0713 -0.0105
22684W        W38758  15.045  18.154  12.957  0.3297  0.0988 -0.1825
22685W        W38759  11.789  18.842  13.807 -0.1459 -0.1378 -0.3362
22686W        W38760  13.916  10.122   2.343  0.0058  0.1837  0.1700
22687W        W38761  16.515  18.866  11.526  0.4668 -0.3097 -0.1702
22688W        W38762   1.801  18.466   2.460 -0.3757 -0.0587  0.0071
22689W        W38763  12.968  11.420   4.763 -0.1219  0.1049 -0.0822
22690W        W38764   6.814   5.304   9.997 -0.0392 -0.0426  0.0449
22691W        W38765  10.992   3.107  11.683  0.1271  0.1517 -0.1626
22692W        W38766   1.515   5.524  11.119 -0.0721 -0.2670  0.2378
22693W        W38767  18.102  12.425   2.509  0.1561 -0.2911  0.2036
22694W        W38768  15.438   2.062  11.022 -0.2770 -0.0228 -0.1412
22695W        W38769   4.792  17.678   5.351 -0.0031 -0.2303 -0.0973
22696W        W38770   0.281   7.530   3.736  0.4706  0.0081 -0.2335
22697W        W38771  11.709  13.024   0.176 -0.0776 -0.2019  0.0199
22698W        W38772   2.704   3.069   1.635  0.0026 -0.0620  0.0621
22699W        W38773  12.419   2.745   3.873 -0.1228  0.1577 -0.1067
22700W        W38774  10.333  17.922   4.354 -0.0985 -0.1046 -0.0592
22701W        W38775   8.682   1.265   4.912 -0.0035 -0.1837 -0.3021
22702W        W38776   5.489  17.045  13.349 -0.1581 -0.1146 -0.1487
22703W        W38777   9.503   7.899   3.282 -0.1885  0.2014 -0.1551
22704W        W38778  12.848   9.165  13.237  0.1627 -0.1737  0.2637
22705W        W38779  12.106   7.780  13.850 -0.0851 -0.1316  0.1926
22706W        W38780   8.827   3.319   2.775 -0.3720 -0.4384 -0.1540
22707W        W38781  10.084  11.042  12.617 -0.0472 -0.2771  0.0634
22708W        W38782   8.136   9.048   4.805 -0.2080  0.0001  0.1442
22709W        W38783   0.151   6.055  11.116  0.2380 -0.1285  0.1703
22710W        W38784   2.385  13.837   3.719 -0.1681  0.2279 -0.0630
22711W        W38785   2.990   5.751   0.246  0.0769  0.4624 -0.2365
22712W        W38786  19.172   5.939  13.618  0.3492 -0.3078 -0.0817
22713W        W38787  15.691  14.729   2.263  0.0410 -0.7095  0.0071
22714W        W38788   0.556   9.899  15.045 -0.0102  0.0798 -0.2916
22715W        W38789   2.832   9.948  15.051 -0.1655 -0.0901  0.0438
22716W        W38790  13.991   6.626   3.999 -0.1134  0.0566 -0.2940
22717W        W38791   2.886  11.550  14.409  0.1902 -0.1612 -0.2172
22718W        W38792  15.693   4.141   4.580 -0.0152 -0.1341  0.0588
22719W        W38793  13.682   6.208  12.133  0.0650  0.3022 -0.2780
22720W        W38794   7.807   4.486  14.023  0.0169 -0.2560  0.1222
22721W        W38795   2.719   0.144  14.490  0.2789 -0.0939  0.0795
22722W        W38796   7.573  13.469  11.612  0.0950 -0.1899 -0.0450
22723W        W38797  17.080  10.848  13.396  0.0635 -0.0179  0.1098
22724W        W38798   7.569  10.523  12.331 -0.1150  0.1560 -0.0204
22725W        W38799   7.045   1.027  14.882 -0.3051  0.0641 -0.3558
22726W        W38800   8.603   1.657   1.860 -0.0362  0.0059  0.0201
22727W        W38801  11.517  11.709   4.713  0.5891 -0.0758 -0.0835
22728W        W38802  15.182  18.362  12.000  0.0474  0.2492 -0.0663
22729W        W38803   7.122   8.287   1.459 -0.2058 -0.1810  0.0759
22730W        W38804  18.319   0.853  12.291  0.1453  0.2053  0.0025
22731W        W38805  14.817   7.991   1.796 -0.1947  0.2582  0.1280
22732W        W38806  18.065   3.471  10.909 -0.2435  0.0384  0.0833
22733W        W38807   9.517   9.666   5.079  0.5870 -0.1120 -0.1487
22734W        W38808  15.651   8.184  14.402 -0.1067 -0.2526 -0.1256
22735W        W38809   4.988   4.451   0.425  0.1247  0.2014  0.2906
22736W        W38810  19.250   9.562  12.743  0.0288 -0.2213 -0.1143
22737W        W38811  12.689   1.021   3.469 -0.1053  0.1714 -0.2590
22738W        W38812  10.299   7.943   2.591  0.3200 -0.0835 -0.0543
22739W        W38813   3.442   1.444   2.377 -0.0433  0.0351  0.1801
22740W        W38814  13.941  15.557  10.319 -0.0289 -0.3931  0.1369
22741W        W38815   4.561  12.540   3.351 -0.2618  0.1106 -0.1073
22742W        W38816   1.383  14.083   2.381  0.1711  0.0810 -0.0343
22743W        W38817  11.555  18.457   3.174 -0.0856  0.3321  0.0761
22744W        W38818   0.938  14.450   2.318 -0.0078  0.0293 -0.1449
22745W        W38819   1.320   9.068   4.310 -0.4746 -0.3044 -0.2747
22746W        W38820   3.255  15.688   1.814 -0.2976  0.3332  0.0226
22747W        W38821  17.634   3.591  10.057  0.2533  0.2769 -0.2508
22748W        W38822  14.152  16.961  10.106  0.1454 -0.2885 -0.3267
22749W        W38823   5.951  13.333  12.671  0.3507  0.3290 -0.0809
22750W        W38824   6.561   0.980   4.259 -0.1127  0.2299  0.1391
22751W        W38825   4.460   8.750  13.996  0.1495  0.2250  0.1905
22752W        W38826  15.448   7.744  13.039 -0.1531  0.1425 -0.5342
22753W        W38827  13.831   8.783   2.108  0.1810 -0.1681 -0.1197
22754W        W38828  17.271  14.268   4.344  0.0394 -0.0663 -0.0007
22755W        W38829  12.965   5.572  10.954 -0.3443  0.2439 -0.0535
22756W        W38830   0.066   1.214  15.024  0.0385 -0.2714 -0.2212
22757W        W38831   7.264   6.799  13.973  0.2824 -0.0502 -0.2410
22758W        W38832   5.983   0.469  11.128  0.0197  0.1515 -0.3546
22759W        W38833   5.148   5.790   0.833  0.4841 -0.2346 -0.1126
22760W        W38834   4.965  14.851  12.717 -0.3388 -0.1581  0.2711
22761W        W38835   0.720  11.138  12.068  0.0566 -0.3871 -0.1680
22762W        W38836  17.117   9.105   3.131  0.1067 -0.0242 -0.0297
22763W        W38837   6.486   4.824   3.516  0.0777  0.0087  0.2879
22764W        W38838  19.004  14.549   3.609 -0.1628  0.0315  0.0123
22765W        W38839   5.579   6.872   0.108  0.1749  0.2017  0.1311
22766W        W38840   0.932   1.028   2.834  0.1599 -0.1674  0.0584
22767W        W38841   2.800  10.807   4.910  0.1744 -0.0027  0.2112
22768W        W38842   7.196   0.920  12.096  0.2335 -0.2400 -0.2424
22769W        W38843  11.291  17.625  14.503  0.2304  0.4079 -0.0064
22770W        W38844  11.226   9.131  11.026 -0.0353 -0.0488  0.1575
22771W        W38845   6.104   8.505   0.783  0.0825  0.0168 -0.0688
22772W        W38846  14.205   1.563   0.062 -0.0612  0.0287 -0.3061
22773W        W38847   1.190  18.296   8.970  0.1262  0.0726  0.0969
22774W        W38848   2.316  12.651  11.115  0.1240  0.1407  0.1569
22775W        W38849  17.058  11.721  10.662  0.1474  0.1185  0.3569
22776W        W38850  17.937   4.580  11.894  0.2599 -0.0719 -0.1079
22777W        W38851   9.061   4.487   1.596  0.0756 -0.0393 -0.0191
22778W        W38852  17.070   9.882   3.847 -0.0432  0.1294  0.2428
22779W        W38853  18.264  15.563  11.334  0.0072 -0.1527 -0.1204
22780W        W38854   3.264  10.437   0.628  0.1713 -0.0263  0.0098
22781W        W38855   5.172   0.712  12.487  0.1095  0.0020 -0.1238
22782W        W38856  12.132   0.316  11.970 -0.1775  0.2400 -0.1340
22783W        W38857  13.310   5.656  14.662 -0.4477 -0.1230 -0.3743
22784W        W38858  17.647   0.366  13.086 -0.2077  0.1038 -0.2276
22785W        W38859   7.399  18.363   3.968  0.0470 -0.2327 -0.0504
22786W        W38860  11.661  14.128  12.623 -0.2029  0.4016  0.0276
22787W        W38861  18.333  18.195  14.207  0.0352 -0.0157  0.0513
22788W        W38862   2.307  12.484   4.172  0.2403  0.0898 -0.0916
22789W        W38863  12.123  16.858  15.056 -0.1474 -0.0637 -0.1730
22790W        W38864   2.244  17.390   4.369  0.0575  0.0065 -0.0816
22791W        W38865   7.728   0.235  13.307 -0.0065  0.0318  0.1690
22792W        W38866   5.161  14.189  13.015 -0.3518  0.0057  0.1275
22793W        W38867   3.497  13.956   3.228  0.1468  0.1274 -0.1536
22794W        W38868   8.742  13.602  14.857 -0.1629 -0.0545 -0.1887
22795W        W38869  17.395   6.064  12.822  0.3251  0.2249 -0.1057
22796W        W38870   9.487  12.938   0.201 -0.0929 -0.2859 -0.3375
22797W        W38871   6.547  17.073   2.327 -0.2315 -0.2426  0.2977
22798W        W38872   2.703  18.482   5.520  0.4379  0.3040  0.2879
22799W        W38873  11.960  16.127   2.922 -0.0288 -0.1311  0.0683
22800W        W38874  12.254  18.405   0.510  0.7011 -0.1497 -0.1036
22801W        W38875   6.637  17.944   2.755  0.2656 -0.2319 -0.2339
22802W        W38876  13.334   6.672   0.049  0.2387 -0.1246 -0.3137
22803W        W38877   9.869  11.991   4.247  0.1680 -0.1616  0.0706
22804W        W38878  14.234   7.931   0.209 -0.2004  0.0215  0.0109
22805W        W38879   0.455  17.217   3.011  0.1487 -0.2352  0.2838
22806W        W38880  11.682   0.397   1.675  0.1001 -0.0292 -0.1907
22807W        W38881  13.202  16.533   4.136 -0.1473  0.2179 -0.1246
22808W        W38882   4.203  17.979  14.051 -0.0161 -0.1920 -0.1889
22809W        W38883   4.912   0.263  11.217  0.0103 -0.0175  0.0824
22810W        W38884   0.695  10.252   1.939  0.2806  0.0101 -0.0584
22811W        W38885  14.487   3.774  11.598 -0.2856 -0.2776 -0.4264
22812W        W38886   2.883   8.077   4.828  0.0383 -0.2867  0.1913
22813W        W38887   9.624   6.300   0.530 -0.1621 -0.2176  0.1371
22814W        W38888   8.940   1.019  10.678  0.0051  0.5062  0.1358
22815W        W38889   2.168   4.965  14.229 -0.1117 -0.1006  0.0686
22816W        W38890   4.622  18.859   1.244 -0.0190  0.2834  0.3070
22817W        W38891   2.850  17.904   1.156  0.0096 -0.3067  0.0502
22818W        W38892  11.034  18.079  14.478  0.0489 -0.1819  0.2392
22819W        W38893   6.587   1.824   1.464  0.5329 -0.0853 -0.2492
22820W        W38894   7.076  11.164   4.228  0.0254  0.0026  0.3137
22821W        W38895  10.144   8.320  14.591 -0.1075 -0.0141  0.1948
22822W        W38896   0.781  16.998  14.302 -0.3640 -0.2222  0.1684
22823W        W38897  13.512  16.417  11.796 -0.0916 -0.3359  0.3440
22824W        W38898  18.396  13.233   2.557 -0.1293 -0.0663 -0.2117
22825W        W38899   5.618  18.314   0.849  0.2559  0.1164 -0.0260
22826W        W38900   5.862   7.456   3.603  0.0067  0.1304  0.0380
22827W        W38901  17.714  18.265   0.494 -0.2945  0.1479  0.2086
22828W        W38902  10.517   7.840  11.049 -0.2972  0.0582 -0.1776
22829W        W38903  13.366  12.780  11.921  0.2349  0.3480  0.5687
22830W        W38904  12.292   1.973  10.649  0.0358  0.0695  0.0258
22831W        W38905   1.129   6.411   1.117 -0.1143 -0.0598  0.3173
22832W        W38906  16.079  15.046   0.223 -0.0157 -0.0395  0.2745
22833W        W38907   4.990   5.708  12.269 -0.1285 -0.2569 -0.0548
22834W        W38908  14.323  12.720   3.213 -0.0706  0.3198 -0.1138
22835W        W38909  13.653   1.239   3.172  0.0989 -0.1111  0.1871
22836W        W38910   4.803  13.845   1.990  0.3218 -0.0224 -0.1479
22837W        W38911  10.580  14.455   1.469  0.3463  0.0854  0.2615
22838W        W38912  11.063  12.172   5.418 -0.1142  0.2826 -0.1271
22839W        W38913   1.908   8.792  13.173  0.0233  0.3673 -0.0360
22840W        W38914  14.105  13.799   0.962  0.0080  0.0042 -0.0265
22841W        W38915  16.218   0.765   2.017 -0.0664 -0.0002  0.1203
22842W        W38916   6.430   6.137   3.731  0.0936 -0.2192 -0.0971
22843W        W38917  16.237  16.536  13.360  0.4077 -0.2792 -0.1471
22844W        W38918   9.018  15.095   2.379 -0.0714  0.5164  0.1966
22845W        W38919   2.370   9.832   2.749 -0.0421  0.1050  0.2583
22846W        W38920   0.332  17.420  11.253 -0.2561 -0.1280 -0.1819
22847W        W38921  10.377   1.542   1.921 -0.2621 -0.1652 -0.4655
22848W        W38922   0.121   3.415  12.314  0.0287 -0.0048  0.0228
22849W        W38923   9.233  15.307  12.582 -0.1241 -0.4534 -0.2160
22850W        W38924  12.972  10.646   9.280 -0.1335  0.1471  0.1698
22851W        W38925  19.221  18.757   0.288 -0.2341  0.1072  0.1319
22852W        W38926  14.056   7.131   4.843  0.0884  0.5655 -0.1539
22853W        W38927   5.830   0.786   3.008 -0.0375  0.0240 -0.2676
22854W        W38928  17.638   8.415   3.264  0.3399 -0.1241  0.2273
22855W        W38929  13.651  12.963  13.042  0.0286  0.5072  0.1609
22856W        W38930  14.461  13.245  13.698  0.0239  0.1375  0.0226
22857W        W38931  11.259  16.008   4.180 -0.3122 -0.0826 -0.0761
22858W        W38932   9.867  15.156  13.089 -0.2504  0.0150 -0.3744
22859W        W38933   5.385  11.662  14.839  0.0391  0.1151 -0.1866
22860W        W38934   1.258  15.552  14.211  0.1132 -0.1845 -0.0121
22861W        W38935  14.287   4.991   1.604  0.2483  0.1670 -0.1185
22862W        W38936   5.988  17.907   2.481  0.0902  0.0580  0.1288
22863W        W38937   6.748  13.527   5.228 -0.0492 -0.3828  0.1068
22864W        W38938  18.149  14.362   4.203  0.0306  0.1000  0.3356
22865W        W38939   1.238   1.532   3.035 -0.4442  0.3971  0.3389
22866W        W38940   6.219  11.523  12.748 -0.0125  0.1851  0.0612
22867W        W38941  16.685   2.621  11.254 -0.4367 -0.0375  0.1655
22868W        W38942  15.114   9.999   0.997  0.1350 -0.2361  0.1466
22869W        W38943  11.100  18.165  13.581 -0.1877  0.2838  0.0878
22870W        W38944   8.052   5.696   4.504 -0.0897  0.0493  0.1786
22871W        W38945  18.635   6.858  14.656 -0.5400  0.1199  0.1248
22872W        W38946  11.194   7.852  12.359  0.1173  0.3335  0.1277
22873W        W38947  13.879   9.307   1.418 -0.3568  0.2203  0.1280
22874W        W38948   4.412  10.819   0.476 -0.0589  0.1339 -0.3045
22875W        W38949   6.407   2.858   0.589 -0.0741  0.0162 -0.1362
22876W        W38950   1.807  14.673   3.933  0.1245 -0.1140 -0.0760
22877W        W38951  17.428  17.281   5.405 -0.0452  0.1930  0.2396
22878W        W38952   7.440   0.764   4.885  0.2342 -0.0743  0.1951
22879W        W38953   9.006  10.422   4.783 -0.2381  0.0637  0.1404
22880W        W38954  11.175   1.093  13.154 -0.2609 -0.0978 -0.1580
22881W        W38955   1.037   1.326  13.589  0.2692  0.2508  0.3249
22882W        W38956  15.864  10.707  14.000 -0.3530  0.2426  0.1656
22883W        W38957  12.677   5.623   3.252  0.1568  0.1403 -0.1022
22884W        W38958   1.770   3.859   2.411  0.0453  0.3327  0.2642
22885W        W38959  18.452  18.239   3.511  0.0819 -0.0307 -0.0145
22886W        W38960   1.160   3.548   5.137  0.0019  0.1535 -0.2199
22887W        W38961  14.910   7.194   0.659 -0.1107  0.3210  0.0186
22888W        W38962   9.183   5.840   4.629 -0.1721  0.0762 -0.1255
22889W        W38963   7.178   6.877   2.265  0.3433  0.3005  0.0923
22890W        W38964   7.552  16.563  12.160  0.1901 -0.0453  0.1190
22891W        W38965  14.876   7.686   4.253 -0.2138  0.1993 -0.2897
22892W        W38966   7.962   5.838   1.184  0.0233  0.2393  0.3295
22893W        W38967  11.832   4.103   3.107  0.0884  0.1784  0.2723
22894W        W38968   6.993   8.560   4.677 -0.1455  0.1229  0.2287
22895W        W38969  17.901   9.780   3.106 -0.0797  0.0147 -0.0004
22896W        W38970  19.073  12.888   3.735 -0.1436  0.3864 -0.0298
22897W        W38971  14.641  18.015   3.356 -0.2735 -0.0883 -0.1448
22898W        W38972  10.038  17.042  14.815  0.3478  0.1262 -0.0227
22899W        W38973  14.004   3.824  11.670 -0.1837  0.2481 -0.1158
22900W        W38974  12.901   4.876   2.028  0.1229 -0.0566  0.2845
22901W        W38975  11.221   2.256   1.322 -0.1138  0.0308 -0.0820
22902W        W38976   6.616  15.047   1.630 -0.0379 -0.3044  0.1175
22903W        W38977   6.060  17.069   0.936 -0.2912  0.2942 -0.1713
22904W        W38978   8.113   9.708  14.258  0.1600  0.0556 -0.1059
22905W        W38979   6.867  14.727  14.206 -0.1105  0.1999 -0.3266
22906W        W38980  11.641  16.934   1.708 -0.1165 -0.0915  0.3162
22907W        W38981   4.614   3.563   5.448  0.0301  0.2887  0.0854
22908W        W38982  11.051   3.266  13.965  0.2152  0.1084  0.0664
22909W        W38983  15.799  11.290   3.081 -0.0264 -0.0143  0.0371
22910W        W38984  16.922   2.766  14.634  0.0024  0.3175  0.3064
22911W        W38985   8.160  19.048   4.181  0.0061  0.1610 -0.1110
22912W        W38986  16.705  15.993   0.255 -0.0934 -0.1836  0.0241
22913W        W38987  15.287   5.163  11.579 -0.2632 -0.1905 -0.1759
22914W        W38988   0.182   0.976  12.100 -0.2764  0.1844  0.3843
22915W        W38989   4.691   7.165  11.246  0.2054 -0.3026  0.1669
22916W        W38990   2.668  16.083   4.456  0.2734 -0.0491  0.3376
22917W        W38991  10.348  10.538   4.510  0.0669  0.0515 -0.0046
22918W        W38992   2.462  13.033   0.329  0.1934  0.1339  0.1089
22919W        W38993  17.696   5.727   0.978  0.4422  0.2280 -0.3885
22920W        W38994   8.644   1.028   2.734 -0.1335  0.3707 -0.1067
22921W        W38995  12.019   8.561   0.518 -0.1654  0.0117  0.2632
22922W        W38996   9.721  13.494  12.647  0.2600  0.2753  0.2349
22923W        W38997   2.267   3.614   1.074 -0.2591  0.0581 -0.0726
22924W        W38998  18.433   2.931  11.955  0.1662 -0.2122  0.1958
22925W        W38999  14.230   7.604   4.848 -0.2682 -0.0087  0.2235
22926W        W39000  13.875   7.901   9.822 -0.3889 -0.2216 -0.2043
22927W        W39001   7.133   4.656  13.108 -0.2891  0.2034  0.0937
22928W        W39002   0.182  15.506   1.824 -0.0577  0.0031  0.0984
22929W        W39003  18.603  11.485   3.541  0.0494  0.2052 -0.2118
22930W        W39004  18.737   9.808  12.775 -0.2600  0.1507 -0.0257
22931W        W39005  11.616   5.367  12.870 -0.1592 -0.2534  0.1502
22932W        W39006   0.522   9.005   4.735  0.1604 -0.3958  0.1832
22933W        W39007   9.068  15.163   4.156 -0.1620  0.2699  0.3762
22934W        W39008   0.642  15.669  10.619 -0.5295  0.1117  0.1687
22935W        W39009   0.684  14.494   3.255  0.0159 -0.2269  0.0304
22936W        W39010  11.442  10.054  10.791  0.0387  0.1294 -0.1792
22937W        W39011   0.292   4.652  12.942 -0.4042  0.1528  0.1838
22938W        W39012  12.112   0.733   1.979  0.1623 -0.0343 -0.1204
22939W        W39013  16.984   3.999  12.607  0.1892  0.1663  0.0041
22940W        W39014   7.850  11.029  12.833  0.1260  0.1342  0.0840
22941W        W39015  15.331  12.163   2.440 -0.0988  0.1353  0.0114
22942W        W39016  14.585  13.913   1.498 -0.0149 -0.3525  0.1057
22943W        W39017  18.355   3.536  10.253 -0.1423 -0.2489 -0.0070
22944W        W39018   2.618  13.307   2.156  0.0298  0.1104  0.0744
22945W        W39019   8.001  12.841   4.587  0.3323  0.3435  0.2282
22946W        W39020  19.243   0.610   4.713 -0.1276  0.0409 -0.1605
22947W        W39021  13.667  16.819  11.502  0.0270  0.1323 -0.0446
22948W        W39022  16.841   9.394   1.950  0.0904  0.3718  0.4078
22949W        W39023  13.828   3.965  10.811  0.3328 -0.1554 -0.1523
22950W        W39024  16.496  17.507   1.101  0.1938 -0.1031  0.0671
22951W        W39025   2.835   0.931   5.847 -0.2415 -0.3557  0.0215
22952W        W39026   1.119  19.083  13.659  0.0376 -0.1870  0.3423
22953W        W39027   0.866   5.588   1.248  0.1308  0.1994 -0.0422
22954W        W39028   5.549  12.719  11.410 -0.5479  0.2889 -0.1288
22955W        W39029  13.720   9.026   2.944  0.0799  0.0181 -0.2912
22956W        W39030  16.559   6.429  14.773  0.2428 -0.1049  0.3161
22957W        W39031   1.453  12.523  11.192  0.0349  0.1465 -0.1239
22958W        W39032   0.556  17.166  12.426 -0.0816 -0.2148 -0.0530
22959W        W39033  12.208   0.090   4.467  0.0055  0.2631  0.1585
22960W        W39034   8.818   5.332  13.588 -0.1377 -0.2194 -0.0568
22961W        W39035   0.911   1.295   1.536  0.4033  0.2110  0.0979
22962W        W39036  16.081   0.310  14.955  0.3189 -0.0825 -0.1772
22963W        W39037   3.145   5.751   1.327  0.0554 -0.2302  0.1059
22964W        W39038   6.757   8.412  14.120 -0.0446 -0.0307  0.1478
22965W        W39039  18.007   3.231  13.446 -0.2441 -0.1061 -0.0312
22966W        W39040  12.517   9.432  11.913  0.2778  0.3514 -0.0537
22967W        W39041   1.100  14.142   2.865 -0.1597  0.1716  0.0870
22968W        W39042  10.208  16.654  11.228 -0.2632 -0.0969 -0.1217
22969W        W39043   2.747  18.802   1.340  0.2573  0.0535  0.1555
22970W        W39044   3.089   1.311   5.017 -0.0189 -0.0085  0.1846
22971W        W39045  18.815   5.521   3.099  0.2822  0.1256  0.1678
22972W        W39046   8.289   3.586   3.285 -0.1928 -0.0527  0.2480
22973W        W39047   1.405  19.089  14.862 -0.0211 -0.0640 -0.0461
22974W        W39048  10.742   8.101  12.658 -0.4290  0.0353 -0.2417
22975W        W39049  10.459  13.151  12.882 -0.2790  0.0866 -0.4707
22976W        W39050   4.214   3.273   3.256 -0.0334 -0.2704 -0.1332
22977W        W39051   3.659  18.658   4.909  0.0787  0.0864 -0.1174
22978W        W39052  13.146  18.541   2.326  0.1059  0.3688 -0.2332
22979W        W39053   0.924   7.861   1.091 -0.0106  0.0480 -0.1077
22980W        W39054  14.518  11.793  13.691  0.1915 -0.1423  0.1230
22981W        W39055  10.178  14.092   9.787 -0.5441 -0.1396 -0.0012
22982W        W39056  13.504   5.119  14.950  0.0788  0.0133  0.1981
22983W        W39057  12.156  18.208  12.776  0.1552  0.3003  0.0578
22984W        W39058  11.191  17.329  10.587  0.2030  0.2910  0.1568
22985W        W39059   6.184  18.508   0.219 -0.1140  0.2440  0.3361
22986W        W39060  14.488  11.562   0.488  0.1736 -0.1520 -0.2485
22987W        W39061  12.420   9.348  14.525 -0.2563 -0.2242  0.3606
22988W        W39062  11.875   6.784  12.021  0.0641  0.1328 -0.1823
22989W        W39063  12.347  16.343   3.480 -0.1925 -0.2593 -0.0132
22990W        W39064   6.297   6.826   4.506  0.2737 -0.1640  0.3482
22991W        W39065  11.346  17.942  11.449  0.3191 -0.2812 -0.1622
22992W        W39066  10.248   0.480  12.571 -0.0688 -0.1241  0.1693
22993W        W39067  17.221   6.112   9.829 -0.1665  0.1127  0.1545
22994W        W39068   6.875  11.482   3.345  0.3427  0.2108 -0.0992
22995W        W39069  18.418  10.721   3.882  0.2341  0.0178 -0.0361
22996W        W39070  14.695  13.168  11.209  0.1667 -0.0110  0.1997
22997W        W39071   2.938  10.801  13.781  0.2931  0.1443  0.0149
22998W        W39072   0.923  15.278   4.125  0.0660 -0.1031  0.1799
22999W        W39073  10.379  18.888   1.113 -0.0314 -0.1820 -0.2361
23000W        W39074  13.123   8.555   2.898 -0.0986 -0.0164  0.2427
23001W        W39075   8.928  18.785  12.234 -0.0963 -0.1999 -0.0088
23002W        W39076  12.308   8.472  14.185 -0.1874  0.1532 -0.0596
23003W        W39077   9.492  12.522  13.690 -0.0612 -0.2696  0.2588
23004W        W39078  11.721  14.321   0.157  0.1824  0.1121 -0.3910
23005W        W39079   8.284  10.027   3.526 -0.3519 -0.6326  0.1332
23006W        W39080   9.949   2.091   3.971 -0.1096  0.1974 -0.0020
23007W        W39081  15.306   2.849   0.756  0.1847 -0.1490  0.3157
23008W        W39082  11.406  19.195   2.142  0.1009 -0.5922  0.0448
23009W        W39083   3.946  12.693  11.999 -0.2450 -0.0292 -0.1470
23010W        W39084  16.541   3.547   2.476  0.1470  0.0614  0.1059
23011W        W39085  10.205  14.876  12.837 -0.0263  0.0810  0.0154
23012W        W39086   1.540  17.441  13.686  0.0812 -0.1393  0.0691
23013W        W39087   6.285  11.825   5.065 -0.0923 -0.0159  0.3380
23014W        W39088  15.681  12.193   3.430 -0.1239  0.1084 -0.1577
23015W        W39089  10.021  16.126   4.121  0.2315  0.4077  0.0798
23016W        W39090   9.735   6.049  11.432 -0.0767  0.2220 -0.1847
23017W        W39091  17.263  15.639  14.162 -0.0141  0.0063  0.0991
23018W        W39092   3.570  13.490  10.503  0.2166  0.3799  0.0014
23019W        W39093  10.997   0.927  13.637 -0.0561 -0.0294 -0.0170
23020W        W39094  10.863   2.526  12.605  0.0159  0.1169 -0.1940
23021W        W39095   6.905   6.815   1.529 -0.0681 -0.2245  0.0062
23022W        W39096  11.932  10.498  13.088 -0.0100  0.2135 -0.2580
23023W        W39097   7.535  11.861   3.753 -0.3242 -0.0143  0.2343
23024W        W39098  17.780   6.994   4.241 -0.3848  0.1614  0.1357
23025W        W39099  16.570   9.620  11.521 -0.1798 -0.0039 -0.1223
23026W        W39100  13.111  11.033  14.814  0.1335  0.0781  0.2270
23027W        W39101   5.444  17.112  11.464  0.2139 -0.0466  0.1467
23028W        W39102  17.722   7.326   1.860  0.1061  0.2096 -0.0622
23029W        W39103   7.584  12.632   0.668  0.1058  0.1461 -0.0059
23030W        W39104   7.968  16.495   2.591  0.0070  0.0017 -0.1097
23031W        W39105  16.908   8.693  11.739  0.1567  0.1318 -0.2992
23032W        W39106   2.402   8.584  14.422  0.3041  0.2276 -0.0408
23033W        W39107   7.763  17.219   1.118 -0.4427 -0.1256  0.1645
23034W        W39108  10.897   6.821   3.619 -0.1263  0.2232 -0.1417
23035W        W39109  15.342   4.533   4.694 -0.1396  0.1563  0.3567
23036W        W39110  11.755   8.121   3.637 -0.1978  0.0507 -0.0545
23037W        W39111  10.720  15.361   1.399 -0.1880  0.1519  0.0413
23038W        W39112   2.693  18.527  11.366  0.0671 -0.2596  0.0311
23039W        W39113   2.235  18.050  14.626  0.0542  0.3004  0.0779
23040W        W39114  15.400   3.389   0.675  0.1638  0.1439  0.1862
23041W        W39115  10.054  10.312   3.188 -0.1108  0.0660  0.3207
23042W        W39116   4.131   6.395   3.627  0.0751  0.0433  0.0650
23043W        W39117   2.787   9.734  14.245 -0.1940 -0.0255 -0.1757
23044W        W39118   7.943   3.179   3.013 -0.0541 -0.1132  0.1146
23045W        W39119   2.151   9.237   1.012  0.0826 -0.2241  0.0675
23046W        W39120   3.699  11.347   0.060 -0.1249  0.1071 -0.2110
23047W        W39121  18.961  10.794  11.212  0.0379 -0.0154 -0.1128
23048W        W39122  13.994  11.202   1.162  0.0312  0.0423 -0.0664
23049W        W39123   4.847  10.806  14.032  0.1624  0.1412  0.1509
23050W        W39124  17.623   0.268   0.647  0.0531  0.0801  0.2825
23051W        W39125   5.675  16.026  10.977 -0.0690 -0.2109  0.0524
23052W        W39126   8.529   6.600   2.065  0.1456 -0.1631 -0.1812
23053W        W39127   4.164  18.623   1.474 -0.1775  0.0123 -0.3696
23054W        W39128   7.076  10.598   0.650  0.0669  0.3057 -0.1806
23055W        W39129   9.437  16.923  10.676 -0.0320  0.1927 -0.1695
23056W        W39130  15.095   0.885   3.144  0.2082  0.1339 -0.0383
23057W        W39131   5.375  13.838   1.618  0.5769  0.1434  0.1692
23058W        W39132   7.401   0.552   2.091 -0.2432  0.0137  0.2073
23059W        W39133   9.313   5.952  14.225  0.0377  0.2629  0.2418
23060W        W39134  14.675  17.321   1.152  0.0878  0.2036 -0.0550
23061W        W39135   6.186  12.305   2.515 -0.2346  0.3459 -0.1297
23062W        W39136  14.455  14.696  14.112  0.1535  0.1724  0.1079
23063W        W39137   5.801  11.174  12.809 -0.1567 -0.0543 -0.1755
23064W        W39138   0.202   2.998  12.046  0.1701 -0.0660  0.0167
23065W        W39139  14.444   4.583   2.858  0.0140  0.0999 -0.0239
23066W        W39140   4.681   3.866   2.031 -0.2235 -0.1877 -0.2035
23067W        W39141   3.810   3.122   2.773  0.2293 -0.2097 -0.1029
23068W        W39142  15.554  14.231   3.795 -0.0022 -0.3046 -0.0320
23069W        W39143   5.003   1.546  11.815 -0.2520  0.0489  0.2206
23070W        W39144  11.251   5.835   2.669  0.0801 -0.0310  0.1709
23071W        W39145  17.795  11.747  13.112 -0.0721 -0.1442 -0.1695
23072W        W39146   2.392   5.453   2.135  0.2111  0.1682 -0.1224
23073W        W39147   6.934   6.699  14.765  0.1438  0.1104 -0.1942
23074W        W39148  15.219  11.489   4.947 -0.0465  0.0619  0.0916
23075W        W39149  10.676  15.001   0.944  0.1097  0.0414 -0.3154
23076W        W39150  10.371  11.426   2.582 -0.0262 -0.0809  0.1055
23077W        W39151  17.981   4.977  13.329  0.0856  0.3938  0.1079
23078W        W39152  19.162   6.394  10.775 -0.1955 -0.0202 -0.0637
23079W        W39153  16.960   6.523  12.959  0.0919 -0.1216 -0.1007
23080W        W39154  17.993   7.812  11.885  0.3841  0.1702  0.5336
23081W        W39155   9.523   1.964   0.886 -0.1534 -0.1580 -0.2289
23082W        W39156  14.983  18.453   1.935 -0.0580  0.2858 -0.1072
23083W        W39157  14.673   1.557   4.063  0.2158 -0.1846  0.1840
23084W        W39158   4.360   2.871   5.182 -0.0987 -0.0180 -0.1794
23085W        W39159   3.143   9.467   4.521  0.2201 -0.4098  0.2218
23086W        W39160  15.094  18.890   5.083  0.1824  0.2579 -0.0292
23087W        W39161  17.350  11.398   3.514 -0.1521  0.0242 -0.0086
23088W        W39162  15.870  14.340   4.224 -0.0178  0.0507  0.5265
23089W        W39163  14.545   2.423   0.091  0.1483  0.3263  0.0401
23090W        W39164  18.605  12.299   4.360 -0.1258 -0.0924 -0.2850
23091W        W39165   4.564   5.416  11.659  0.2285  0.0524  0.0068
23092W        W39166   3.264   0.973   4.362 -0.1633 -0.0317  0.0331
23093W        W39167  12.839  18.459  14.148 -0.1041  0.3185  0.4182
23094W        W39168   0.091  19.113   1.668 -0.3886 -0.0154 -0.1641
23095W        W39169   3.686  13.977  10.297 -0.0667 -0.0369 -0.2682
23096W        W39170   9.557  16.597  11.068  0.1166  0.0166 -0.0206
23097W        W39171  12.709   2.363   4.772  0.3361 -0.1137  0.1496
23098W        W39172  17.949  17.713  11.692 -0.1100 -0.0134 -0.1313
23099W        W39173   2.716  16.085  12.618 -0.2645  0.3328  0.1150
23100W        W39174  12.146  11.137  13.681 -0.1606 -0.3576 -0.2119
23101W        W39175   8.614  18.454   4.520  0.1354  0.1840 -0.1093
23102W        W39176  15.633  15.447   5.155  0.1351 -0.0875  0.1522
23103W        W39177  14.911   2.002   3.882  0.1522 -0.2925  0.0830
23104W        W39178  16.126  18.980  10.308  0.3572  0.1248 -0.2384
23105W        W39179   3.816   4.960   2.977 -0.2469 -0.0231  0.2266
23106W        W39180   1.301   1.589  10.544  0.2494  0.2759  0.1997
23107W        W39181   7.552   7.165   2.130 -0.2008  0.2332  0.1155
23108W        W39182   7.012  11.462  13.235 -0.2184  0.1429 -0.2276
23109W        W39183   6.759   7.332  13.384  0.2190  0.1783  0.0669
23110W        W39184  14.326  17.704   2.640 -0.1912  0.2018 -0.2405
23111W        W39185  15.940   2.732  11.112  0.0665  0.1089  0.2365
23112W        W39186   7.889  17.761   1.113  0.1231 -0.1115 -0.0751
23113W        W39187  11.854   4.218   4.455 -0.0108  0.0778 -0.0305
23114W        W39188  12.251  13.599   0.066  0.1502  0.2084  0.2318
23115W        W39189  14.311  18.101   3.876  0.3025  0.1771 -0.3433
23116W        W39190  14.780  17.384   3.915  0.3204  0.1413 -0.1760
23117W        W39191   8.692  13.155   6.034  0.3246  0.0222 -0.0977
23118W        W39192  14.571  11.682  13.152 -0.0246 -0.0832 -0.0187
23119W        W39193  17.544   7.994   4.090 -0.0804 -0.0108  0.1167
23120W        W39194   9.957  17.018  10.792 -0.0882 -0.2937 -0.0562
23121W        W39195   9.790  16.119   2.300  0.0313  0.1551  0.0262
23122W        W39196  16.995  15.662   0.008 -0.1147 -0.1862 -0.1026
23123W        W39197   5.015  17.686   3.951 -0.0619 -0.1506  0.4547
23124W        W39198  15.396  13.052   4.344  0.2976  0.2125  0.0309
23125W        W39199  11.603  14.000  12.097  0.1125 -0.2635 -0.1884
23126W        W39200   6.851   3.881  14.725  0.0207 -0.4616  0.1715
23127W        W39201   1.979   1.758  12.811 -0.0047  0.0526 -0.3673
23128W        W39202  13.642  16.696   1.493 -0.1519 -0.3641  0.0545
23129W        W39203   9.099  18.954   9.605 -0.0557 -0.4608  0.3718
23130W        W39204  11.807   5.956   0.192  0.0016  0.1287 -0.2233
23131W        W39205   4.387  14.857   0.086 -0.2030 -0.0553 -0.0687
23132W        W39206  18.639   8.461  11.796 -0.2405  0.2109  0.1325
23133W        W39207   8.985   4.198   3.379 -0.2605  0.0198 -0.1240
23134W        W39208   9.662  15.137  13.550  0.0763 -0.0844 -0.0410
23135W        W39209   8.667  18.107  10.500 -0.2642  0.1212  0.0065
23136W        W39210  11.702   2.018   4.132 -0.0021 -0.0385 -0.0525
23137W        W39211  15.993  18.634  10.653 -0.1264 -0.0472 -0.0284
23138W        W39212   4.962   9.958   3.674  0.0296  0.2522  0.0531
23139W        W39213   8.808  13.011  13.565  0.0202 -0.1227  0.2406
23140W        W39214  13.470   5.592   1.044  0.1537 -0.1573 -0.2112
23141W        W39215  12.204  12.774  13.562  0.3102  0.1189  0.1139
23142W        W39216  15.923   3.263   1.741  0.0188  0.2348 -0.2336
23143W        W39217   5.306   8.201   1.256  0.1707 -0.1713  0.0234
23144W        W39218   0.562  16.052  13.988 -0.0841  0.1234 -0.1253
23145W        W39219   9.316  12.056   2.354  0.1195  0.3711 -0.1617
23146W        W39220   7.810   2.233  13.308  0.2334 -0.2834 -0.3360
23147W        W39221   7.735  10.835  11.915  0.4253  0.0402  0.0043
23148W        W39222  15.739   2.360   1.918 -0.2540 -0.1233  0.2643
23149W        W39223   9.757   1.516  12.766 -0.3463 -0.0667 -0.2745
23150W        W39224   3.504  14.917  12.589 -0.2406 -0.0826 -0.1983
23151W        W39225   7.573  10.590   1.547  0.1449 -0.2004  0.0039
23152W        W39226   4.545   7.292   3.413 -0.3894 -0.2831 -0.2981
23153W        W39227   2.150   8.398   0.780  0.0343 -0.0662  0.0392
23154W        W39228   2.693  10.715  11.259 -0.1304 -0.3125  0.3724
23155W        W39229   8.862   3.815  12.668  0.0727 -0.5131 -0.2255
23156W        W39230   2.118   3.959   1.586 -0.0986  0.1692 -0.2312
23157W        W39231  17.880  19.171   3.772 -0.2714 -0.0381  0.0558
23158W        W39232   2.327  17.293  11.910  0.3930 -0.0596 -0.4313
23159W        W39233  12.002   2.439  13.744  0.1212 -0.3391 -0.2179
23160W        W39234  10.167  18.532  12.370 -0.0871 -0.0627 -0.0209
23161W        W39235  11.640  18.323   1.087  0.0752 -0.1500  0.0276
23162W        W39236  17.048  16.656   9.470  0.0728 -0.1754 -0.3723
23163W        W39237   1.050  16.950   4.808  0.0142  0.0785 -0.2985
23164W        W39238  19.249   1.824  11.554 -0.0915  0.1831 -0.1512
23165W        W39239   7.968  12.807  12.674 -0.1173  0.1852  0.1308
23166W        W39240  17.433  10.997  13.973  0.3220  0.0949 -0.0499
23167W        W39241   9.018  15.020  12.172  0.1188  0.1238  0.1721
23168W        W39242   6.431   3.346   5.096  0.1318  0.3575 -0.0127
23169W        W39243   4.800   4.083   1.509 -0.0208  0.5417 -0.2436
23170W        W39244  12.022   5.237   2.558 -0.2435  0.0396  0.0170
23171W        W39245  12.480   7.089   1.304 -0.0142  0.0071 -0.2243
23172W        W39246   2.345   2.752   0.663 -0.0319  0.1806 -0.2461
23173W        W39247   6.544  11.910  12.189  0.2003  0.0456  0.4895
23174W        W39248  18.220   8.036   0.099  0.2934  0.1765 -0.1819
23175W        W39249   8.316   7.489   1.716  0.1904 -0.0598 -0.0556
23176W        W39250   6.748   7.344   0.707  0.0725 -0.2770 -0.1525
23177W        W39251  12.851   1.872   2.615  0.1252 -0.2174 -0.0167
23178W        W39252   1.424  17.624   2.714  0.0763 -0.3094 -0.1036
23179W        W39253  12.877  12.364   2.651 -0.0240 -0.0445 -0.0668
23180W        W39254   0.415  18.904   0.430  0.0205 -0.0171  0.2168
23181W        W39255  17.342  14.541  11.824  0.2446  0.1857 -0.4626
23182W        W39256  16.881  16.628   0.585  0.2969 -0.0834 -0.1079
23183W        W39257  12.127   6.035   4.946  0.1059  0.3951 -0.0476
23184W        W39258   9.724   5.430  12.832  0.2668  0.2485  0.2350
23185W        W39259   8.071  16.139  13.250  0.0547 -0.1527 -0.2115
23186W        W39260   0.386   4.231   2.007  0.3329  0.0038 -0.1327
23187W        W39261  17.282  14.125  13.497 -0.3481 -0.0431 -0.1009
23188W        W39262  18.969   0.856   0.175 -0.3989 -0.2429 -0.0819
23189W        W39263   4.226   2.338  14.894 -0.0028  0.0361 -0.2013
23190W        W39264  15.646   5.898   3.178 -0.0246 -0.0071  0.4407
23191W        W39265  16.480   1.603  11.775 -0.1631  0.2734 -0.1147
23192W        W39266   1.589   4.248  14.807 -0.0883 -0.0495 -0.0108
23193W        W39267  10.773   7.465  10.787  0.2314 -0.1803  0.3057
23194W        W39268   3.418  15.474  11.001 -0.1626 -0.3304  0.0895
23195W        W39269   2.032   5.514  14.251  0.1719  0.2282  0.0496
23196W        W39270   3.856   1.625  14.560 -0.1318 -0.1336 -0.0887
23197W        W39271  17.924  10.698  13.089  0.0005  0.1939  0.3983
23198W        W39272   6.122  13.117  12.251 -0.0727  0.1568  0.0872
23199W        W39273  13.160  18.792   0.394 -0.0115  0.0209  0.0096
23200W        W39274   2.744  17.063   4.010  0.1113 -0.1093  0.0471
23201W        W39275   1.467   7.156   1.131 -0.2884  0.3161 -0.0821
23202W        W39276   3.985  17.947  12.805 -0.0974  0.0530 -0.0338
23203W        W39277  18.848  19.283  13.268 -0.2624 -0.1355 -0.0840
23204W        W39278  11.079  13.542   3.802  0.2389 -0.1758 -0.5054
23205W        W39279  16.139  10.051   5.435  0.0022 -0.1161  0.1871
23206W        W39280  14.415  15.033   5.269 -0.1682 -0.1875  0.1686
23207W        W39281  18.740   4.207  12.890 -0.2132  0.1318  0.0575
23208W        W39282   5.862  11.331  11.063  0.0177 -0.1556  0.0209
23209W        W39283   1.883   8.817  14.446  0.0431 -0.3346 -0.0954
23210W        W39284   0.920   4.547  12.746 -0.1818  0.2028  0.0293
23211W        W39285   6.785  14.922   3.402 -0.0928  0.1993 -0.0173
23212W        W39286   1.094  16.418  10.704  0.4181  0.1259  0.0243
23213W        W39287   2.246   4.425   0.429 -0.1694 -0.2495  0.1796
23214W        W39288   0.593  16.908  11.545  0.1655  0.2008 -0.1795
23215W        W39289   4.905  18.766   4.565 -0.2799 -0.2900 -0.0994
23216W        W39290  12.783   5.662  11.755  0.3294 -0.0674 -0.1958
23217W        W39291  15.165  11.345  12.500  0.1717 -0.1430 -0.0381
23218W        W39292  13.438  15.466  14.959 -0.2222 -0.2433 -0.0538
23219W        W39293  15.662  12.703   1.781  0.0288  0.4804  0.0208
23220W        W39294   6.134   0.986   4.540 -0.0802 -0.0848 -0.0640
23221W        W39295  11.889  18.899  13.200 -0.0338  0.0989 -0.0726
23222W        W39296   1.572   2.802  13.962 -0.0806  0.1656 -0.0984
23223W        W39297   8.758   4.945  11.223 -0.0285  0.1106 -0.1024
23224W        W39298   6.420   5.523   3.829  0.0921 -0.1017  0.2490
23225W        W39299  13.177   1.750  12.836  0.3252  0.0460 -0.1793
23226W        W39300   5.625   3.112  14.132 -0.2721  0.4175  0.2677
23227W        W39301   7.433   1.474  11.618  0.2481 -0.2709  0.0954
23228W        W39302  10.013   5.650  15.013  0.0981  0.0902 -0.7063
23229W        W39303   0.712  13.535   3.485  0.1544  0.1876  0.2145
23230W        W39304  14.750  19.183  13.061 -0.0814 -0.0110 -0.3077
23231W        W39305  18.875  16.787   3.020 -0.0871 -0.3008  0.0585
23232W        W39306   9.500  13.300  14.246 -0.2060 -0.1377  0.2331
23233W        W39307   4.811  15.065   4.497  0.2341 -0.1341  0.1380
23234W        W39308  17.614  18.993  10.817 -0.2733 -0.1526  0.1441
23235W        W39309   6.954   8.118   1.903  0.0526  0.2040  0.1566
23236W        W39310   0.050   0.991   3.128  0.1308 -0.2267  0.2603
23237W        W39311   5.619  15.949   4.036 -0.1238  0.0419 -0.0372
23238W        W39312  10.720  15.437  11.678  0.0368  0.0385  0.1702
23239W        W39313  18.837  13.488  14.380  0.2122 -0.3280  0.1797
23240W        W39314   7.259   5.134  13.275 -0.3019  0.0324  0.0414
23241W        W39315  13.084   3.841   6.150  0.1633  0.1835  0.0635
23242W        W39316  11.644  11.971  10.967  0.0953 -0.0183 -0.0227
23243W        W39317   4.314  18.923   4.661  0.0170 -0.0543 -0.1387
23244W        W39318  16.713   9.839   0.089 -0.3957  0.4095 -0.1399
23245W        W39319  10.417   4.719  14.727  0.2984  0.0391 -0.2744
23246W        W39320   2.820   6.694  13.567  0.1257  0.1542 -0.1193
23247W        W39321  14.764  12.465   1.834  0.3186  0.2066 -0.3773
23248W        W39322  13.165   7.016   1.790  0.0085 -0.0276  0.0258
23249W        W39323   9.443  13.270   0.689 -0.1032  0.2646 -0.2517
23250W        W39324  14.419   8.962   4.637 -0.0111 -0.0342  0.0198
23251W        W39325  10.982   9.489  14.681 -0.0293  0.0388  0.0161
23252W        W39326  18.249   3.777   0.559  0.1055  0.0180  0.1685
23253W        W39327  15.551   7.557  10.167 -0.1216  0.1275 -0.2637
23254W        W39328  11.998   2.021   3.417  0.2156  0.1945 -0.0278
23255W        W39329   2.297  16.016   2.762 -0.1874  0.0053 -0.1791
23256W        W39330  18.297  18.569  12.232  0.0320  0.0983  0.1776
23257W        W39331   3.165  12.521   0.986  0.2923 -0.1776 -0.0114
23258W        W39332  17.574   6.920  12.491  0.0890  0.1089 -0.0192
23259W        W39333   2.167  16.848   2.448  0.0058  0.0157 -0.0678
23260W        W39334   7.528   1.067  14.016  0.0367  0.0156  0.2843
23261W        W39335   8.751  16.352  13.066  0.0933  0.2571  0.0885
23262W        W39336  10.173   5.009   3.611  0.3772  0.3204 -0.2063
23263W        W39337  12.096  16.474  11.715  0.1826 -0.0586 -0.0911
23264W        W39338   6.515  19.040   0.236  0.0638 -0.1569 -0.3234
23265W        W39339  10.292  15.519  14.394  0.2676 -0.1104  0.0698
23266W        W39340  16.041  14.081  10.050 -0.0428  0.0804  0.1769
23267W        W39341  15.564   6.335   5.115 -0.0080  0.4799 -0.1203
23268W        W39342  16.566  18.957   0.164  0.3178 -0.0867  0.0635
23269W        W39343  15.793   8.929  13.161  0.3455 -0.1335  0.0291
23270W        W39344  15.704   1.003  13.011  0.0375 -0.2475 -0.1399
23271W        W39345   0.562   7.129  12.058  0.1393 -0.0121 -0.0690
23272W        W39346   7.033   6.000   5.346 -0.2109  0.0467  0.0534
23273W        W39347  18.348   0.294  11.311  0.1936 -0.0979  0.1403
23274W        W39348  18.586   0.843  14.073  0.0672 -0.0806 -0.0412
23275W        W39349  18.356  17.088   9.565 -0.0059 -0.2787 -0.0309
23276W        W39350   8.610  17.707   2.707 -0.0821  0.3444  0.0540
23277W        W39351   1.590   0.129   3.524 -0.1452 -0.1596 -0.0211
23278W        W39352  18.607  16.379   2.357  0.2127  0.1561  0.0153
23279W        W39353   3.820  16.722   0.411  0.1548  0.0499 -0.3797
23280W        W39354  18.114  17.294  11.883  0.0442 -0.2574  0.0008
23281W        W39355   2.685   8.424   0.579  0.2330  0.0950 -0.1979
23282W        W39356  17.129   9.514  14.905  0.0146  0.1374 -0.1623
23283W        W39357  11.638  17.693  12.693  0.0707 -0.1315 -0.1316
23284W        W39358  16.808  10.627   3.259  0.0632  0.3659 -0.2110
23285W        W39359  17.503   9.754  11.356  0.2199 -0.1333 -0.1737
23286W        W39360   9.427  14.736  12.366 -0.2105 -0.0256 -0.0204
23287W        W39361   4.453   3.873   2.467 -0.1023  0.1202 -0.0346
23288W        W39362   7.999   4.411   0.704  0.0900 -0.0691  0.0240
23289W        W39363  12.395   8.247  13.153  0.1386 -0.0876  0.0519
23290W        W39364   7.057  10.572  13.988  0.0165  0.0176 -0.0020
23291W        W39365   8.061  18.980   1.210 -0.3042 -0.1210  0.1864
23292W        W39366  18.005   6.799   0.251  0.0655 -0.0866 -0.0121
23293W        W39367   7.517  12.849   1.104  0.1245 -0.0035 -0.1563
23294W        W39368   6.488  12.674   6.195  0.0805  0.0282 -0.1245
23295W        W39369   6.729   1.780   4.186  0.2038  0.0184  0.0658
23296W        W39370  14.516   1.225  12.400 -0.1050 -0.4921 -0.0677
23297W        W39371  15.988  17.269  13.371 -0.0982 -0.0154 -0.2053
23298W        W39372   0.173  15.837  10.821 -0.0993  0.1549 -0.1440
23299W        W39373  11.644  16.657  11.819  0.3333  0.0155  0.0220
23300W        W39374   7.536   3.517  14.274  0.0530  0.0199 -0.1596
23301W        W39375   0.613   3.864  14.979  0.2994 -0.1216 -0.0552
23302W        W39376   0.134  16.288  11.091 -0.0529  0.0307  0.2861
23303W        W39377   1.468   9.752  12.531  0.3377  0.0075  0.1669
23304W        W39378  16.727  15.544  12.699 -0.0344  0.0840  0.2126
23305W        W39379  15.572  15.481   2.901  0.0420 -0.4076 -0.0419
23306W        W39380   3.699  17.602  14.495  0.1689 -0.2610  0.0499
23307W        W39381   0.868   9.442  10.457 -0.0692 -0.0207  0.0469
23308W        W39382  10.678  17.111   1.743 -0.0399  0.1276 -0.1346
23309W        W39383   8.303   5.627   2.238  0.3081 -0.3086 -0.0829
23310W        W39384   6.712  18.784   1.562 -0.1400 -0.5226 -0.0249
23311W        W39385  16.762  12.685  10.310 -0.0514 -0.1126 -0.3134
23312W        W39386   2.669  14.235   1.643 -0.0113  0.3710  0.0038
23313W        W39387   9.073   0.620   4.713  0.0521 -0.0779 -0.0878
23314W        W39388   5.382  10.853  12.050 -0.2302  0.0934 -0.0531
23315W        W39389   3.992  11.050   1.397  0.1420  0.2650  0.1433
23316W        W39390   5.280   2.124   0.944  0.2305  0.2699  0.1761
23317W        W39391  13.109   1.841  14.412  0.1661 -0.4729  0.2129
23318W        W39392  13.023   4.313  10.441  0.3003  0.2643  0.1267
23319W        W39393   0.097   7.876   3.003 -0.4919  0.0103 -0.1697
23320W        W39394   3.017  19.286   4.311 -0.2317 -0.0850 -0.1494
23321W        W39395  11.564   1.700  10.551  0.0338 -0.5743  0.0938
23322W        W39396  10.007   6.575  14.721 -0.1398  0.1946 -0.2990
23323W        W39397   6.349   7.774  13.411 -0.0619 -0.0972  0.0295
23324W        W39398   7.903   5.473   3.045 -0.1012 -0.0668 -0.2113
23325W        W39399  18.904   1.328   3.156  0.0111  0.0268 -0.3576
23326W        W39400   5.920  16.136   5.737  0.2692 -0.0460 -0.0885
23327W        W39401   1.954  10.811  11.053 -0.0606  0.2426 -0.0653
23328W        W39402  12.391  18.581   1.457  0.0185  0.3866 -0.2607
23329W        W39403  14.479  13.323   0.999  0.2561  0.0846  0.1521
23330W        W39404   4.455  13.833  11.847 -0.0657 -0.1013  0.0108
23331W        W39405   6.951  14.807  12.422 -0.0325  0.0049 -0.2697
23332W        W39406   9.929  12.324   3.107 -0.1345 -0.1099  0.3309
23333W        W39407  18.976   6.332  11.282 -0.0909  0.0987 -0.0712
23334W        W39408  13.274  12.393   0.260  0.0678  0.3829 -0.1080
23335W        W39409  16.363  16.610   3.969  0.2461 -0.1321  0.0035
23336W        W39410  13.919  12.754   4.296 -0.2377 -0.0364 -0.2074
23337W        W39411  11.082  13.980   2.381 -0.1393  0.4010  0.0132
23338W        W39412  12.456   0.564   0.492 -0.1162  0.1948  0.1489
23339W        W39413   7.664  16.428  13.903 -0.0710  0.0857  0.1858
23340W        W39414   7.571   6.679   4.353 -0.2371 -0.1668  0.1836
23341W        W39415  16.957   4.960  14.493  0.1499 -0.2249  0.0295
23342W        W39416   5.695   8.381   1.011 -0.0930  0.1245  0.3234
23343W        W39417   0.657   9.279   2.248 -0.1238  0.2706  0.1248
23344W        W39418   4.661   4.683   1.498  0.0396 -0.0640 -0.1941
23345W        W39419   7.955   8.207   2.679 -0.1123  0.3449 -0.2133
23346W        W39420   9.551   7.509   1.959 -0.3912  0.0414  0.1382
23347W        W39421   6.529   7.194   1.616 -0.0383  0.1003  0.4939
23348W        W39422  18.076  10.453   2.694  0.2716  0.2302  0.2364
23349W        W39423  11.848  15.547   5.095 -0.0172  0.3325  0.1180
23350W        W39424  17.759   5.922   0.127  0.1132 -0.1633  0.0447
23351W        W39425  17.715  18.079   1.937 -0.2505  0.2935 -0.1414
23352W        W39426   8.900   7.203   4.606  0.1579 -0.1446  0.2360
23353W        W39427   6.352  10.771   4.106 -0.0886 -0.2256  0.2630
23354W        W39428   0.559  10.062  14.484  0.0551 -0.3437  0.1961
23355W        W39429  11.750   8.599  12.087  0.3720 -0.2554 -0.2422
23356W        W39430  17.489   3.910   4.226 -0.1729 -0.2272  0.0911
23357W        W39431  17.971  11.217  13.882  0.0831  0.4358  0.1541
23358W        W39432  15.840   9.113   4.613  0.0545 -0.0779  0.0331
23359W        W39433   4.127  15.015  11.880  0.0533 -0.2491  0.3196
23360W        W39434   4.704   6.621  10.801 -0.3016 -0.2700  0.0779
23361W        W39435   1.811  15.880   2.836 -0.2350 -0.0745  0.1559
23362W        W39436  13.062   5.185  14.738  0.0760  0.4520  0.0754
23363W        W39437  10.515  11.119   3.555 -0.0831  0.4103  0.0247
23364W        W39438  18.502  15.479  14.536 -0.0718 -0.3149 -0.1643
23365W        W39439   8.555  10.131  13.289  0.0477  0.1789 -0.2412
23366W        W39440   3.556   3.566  11.467  0.0556 -0.1237 -0.1149
23367W        W39441  15.621  10.044  10.227  0.0899 -0.0502  0.0579
23368W        W39442  19.107  10.368  11.437  0.2823 -0.1281 -0.1103
23369W        W39443  19.023   0.460  10.994 -0.1831 -0.0224  0.0248
23370W        W39444   3.611  13.491  12.460 -0.0873 -0.1351 -0.3844
23371W        W39445  16.671   8.885  13.217 -0.1747  0.0769  0.1385
23372W        W39446  11.774  13.005  13.874 -0.0947  0.0299 -0.0196
23373W        W39447   1.551   1.203  10.768  0.1599 -0.1520  0.0372
23374W        W39448   4.893   2.210  13.531  0.0283 -0.1660  0.1018
23375W        W39449  10.790   2.424   5.194 -0.2806  0.0299  0.4007
23376W        W39450  11.937   1.120   0.815  0.0154  0.0015  0.2208
23377W        W39451  10.876   6.879   5.178 -0.4524 -0.0109  0.2839
23378W        W39452  16.923   9.974  12.177  0.1910 -0.1423 -0.1121
23379W        W39453  15.513   0.102  12.014 -0.2959  0.1965  0.2932
23380W        W39454  13.070  14.323  13.117 -0.3241 -0.0351  0.2654
23381W        W39455   9.576   3.756   0.967  0.0195  0.1289  0.0603
23382W        W39456   6.056  13.582  14.901 -0.0270  0.0764  0.1080
23383W        W39457   4.446   2.579   4.536 -0.2032  0.1619 -0.0492
23384W        W39458   4.957   1.958   1.765 -0.1019 -0.0535 -0.2509
23385W        W39459   4.603  10.801  12.249 -0.0866 -0.0480 -0.1876
23386W        W39460   4.162   7.737   4.006  0.0242 -0.0177  0.3419
23387W        W39461   7.748   7.685   2.774  0.1407  0.0896 -0.1308
23388W        W39462  14.392  17.125   4.416  0.0270  0.1126  0.3277
23389W        W39463  14.522  15.210  12.944  0.0130  0.0634 -0.0243
23390W        W39464  10.593   2.716   1.924  0.4170  0.2699  0.1267
23391W        W39465   6.717  12.371  13.649  0.0587 -0.1779 -0.0334
23392W        W39466  11.635  11.133  10.793  0.0031  0.0127  0.0562
23393W        W39467   4.343   0.187   1.282  0.1119 -0.0499  0.1065
23394W        W39468  12.063  17.051   5.031  0.0078  0.0291  0.0387
23395W        W39469  16.094  17.911   2.119  0.4389  0.2754 -0.3609
23396W        W39470  15.637  16.729  11.507  0.1282 -0.0048 -0.2401
23397W        W39471  14.345   5.864   0.718 -0.0572 -0.0383  0.2840
23398W        W39472  12.816  16.398   3.261 -0.0042 -0.0823  0.3255
23399W        W39473   7.727  13.853  10.591 -0.0266 -0.1318  0.2552
23400W        W39474   0.595  11.319   5.193 -0.0305 -0.0068 -0.2325
23401W        W39475   9.713   9.821   2.102 -0.1492  0.0578 -0.2402
23402W        W39476   5.358   8.640   3.313  0.2058 -0.2631  0.1133
23403W        W39477  11.042  16.932   1.964 -0.1807 -0.0778  0.0268
23404W        W39478   2.811  12.545   4.110  0.1308 -0.3382  0.2622
23405W        W39479   5.584   1.472   5.922 -0.1715  0.0347  0.0176
23406W        W39480  10.201  19.253  10.694  0.4193  0.1170  0.0494
23407W        W39481   5.492   3.477  13.827 -0.0334 -0.1358 -0.1431
23408W        W39482   7.972   2.504  11.908 -0.1691 -0.1160  0.0414
23409W        W39483   4.525   3.062   4.628  0.0007 -0.2696 -0.2947
23410W        W39484  18.221   7.196   0.348  0.1406 -0.1008 -0.0724
23411W        W39485   6.908  11.175   1.969 -0.1297  0.2482 -0.1866
23412W        W39486  12.334  12.231   0.279 -0.0798  0.0684 -0.2110
23413W        W39487  13.459  18.698   4.095 -0.0123  0.1768  0.2185
23414W        W39488   9.475   0.721   2.183  0.0781 -0.4671  0.1687
23415W        W39489  12.821  10.663   1.655  0.2036  0.1623 -0.1942
23416W        W39490   9.295  11.732   0.101 -0.0992 -0.0999  0.2681
23417W        W39491   2.123  18.638   1.793 -0.2861  0.1459  0.2690
23418W        W39492   3.940  17.094   3.338 -0.1035  0.0484 -0.0109
23419W        W39493  10.247   3.161  14.377  0.0870  0.2417  0.0919
23420W        W39494  13.501   6.735   3.575  0.1757  0.0547  0.1687
23421W        W39495  12.132   8.887   5.270  0.0272  0.1195 -0.0166
23422W        W39496   4.546  13.556   0.945  0.3336  0.0673 -0.1703
23423W        W39497  13.149   5.727   3.490  0.0386  0.1267  0.1458
23424W        W39498  16.367   6.737  12.056  0.4110 -0.1804 -0.0836
23425W        W39499   9.619   0.440  13.538  0.0386  0.1361  0.1020
23426W        W39500  13.696   6.647   3.043 -0.1880  0.0592  0.1851
23427W        W39501   4.341   4.161   2.849  0.0062 -0.0971  0.2213
23428W        W39502  19.030   4.865  11.583  0.0238 -0.3351  0.0282
23429W        W39503  11.620   2.740   1.656 -0.1881  0.2684  0.2919
23430W        W39504  18.845  12.095  11.734 -0.3257  0.0854  0.1830
23431W        W39505  17.911  14.444  12.702 -0.0783  0.0463  0.0442
23432W        W39506  12.126  15.191   1.748 -0.0478 -0.0621 -0.0554
23433W        W39507   0.748   7.771   4.258  0.1519 -0.0237  0.3738
23434W        W39508   1.082   8.437   3.211  0.4297  0.0345 -0.1658
23435W        W39509   7.750   6.660   3.650 -0.1404 -0.0221  0.2355
23436W        W39510  11.989   8.573  13.000 -0.2678  0.2376 -0.0967
23437W        W39511   0.385  14.825  12.188  0.0244 -0.0706 -0.1349
23438W        W39512  11.640   2.818  11.474 -0.0794 -0.2777 -0.0021
23439W        W39513  12.723  15.306   5.229  0.0912  0.0537 -0.1436
23440W        W39514   0.231  11.501  10.081 -0.1426 -0.2690 -0.1808
23441W        W39515   1.436   6.236  12.945  0.0116  0.0517  0.0225
23442W        W39516  12.189   1.164  11.714 -0.1684  0.1250 -0.0436
23443W        W39517  18.317  14.415   2.474 -0.0320  0.0275  0.3474
23444W        W39518   0.539   0.964   3.241  0.3811  0.1422  0.0793
23445W        W39519  13.830   5.020  13.170 -0.0115 -0.0419 -0.0807
23446W        W39520  15.938   4.176  13.830  0.3119 -0.1166 -0.0940
23447W        W39521   9.081  17.203   4.054 -0.0102  0.1149  0.4279
23448W        W39522   8.237   3.094  13.802  0.0314 -0.1037  0.1367
23449W        W39523   9.807   8.890   3.480  0.0886  0.1241 -0.0082
23450W        W39524   4.618   8.743   4.187 -0.0004 -0.1170  0.5701
23451W        W39525   5.241   6.501   5.423  0.1298  0.1254 -0.0410
23452W        W39526   5.817   6.277   2.800 -0.1157  0.0506  0.2109
23453W        W39527  19.226   9.919   0.618 -0.0717  0.2918  0.1540
23454W        W39528   2.597   9.422  13.806 -0.0585 -0.2332  0.1933
23455W        W39529   4.689   0.100  10.814 -0.2468 -0.2334  0.0432
23456W        W39530   3.838   6.383   4.679  0.0703  0.4538 -0.0147
23457W        W39531   6.663  18.543  10.678 -0.2801  0.2154  0.2126
23458W        W39532   3.814   7.868   4.487 -0.0465 -0.0363  0.1826
23459W        W39533  11.726  18.321  15.035  0.0996 -0.2305 -0.3019
23460W        W39534   5.650  13.703   3.926 -0.0380  0.0972  0.0817
23461W        W39535  13.636  12.242  13.151 -0.3782  0.2419 -0.3433
23462W        W39536  12.181  13.900   3.870 -0.3297 -0.2230 -0.1696
23463W        W39537   4.647   0.085  14.088 -0.0783  0.1965  0.2834
23464W        W39538   0.578   7.750   0.076 -0.0541  0.2798 -0.3562
23465W        W39539  12.535  12.449  13.374  0.1135  0.0241 -0.1590
23466W        W39540   7.645   8.355   1.193  0.0587 -0.1173 -0.0546
23467W        W39541  13.377  10.882  13.911 -0.0328 -0.1167  0.0893
23468W        W39542   0.182  15.373  13.335  0.0808 -0.2062  0.1055
23469W        W39543   9.901   7.919  14.173 -0.4310 -0.0725  0.1205
23470W        W39544   4.624   8.537  14.630  0.2404 -0.1035 -0.2171
23471W        W39545   5.268  18.464  12.010  0.0897 -0.0359  0.0707
23472W        W39546   8.557   5.055   2.849 -0.2984  0.2260 -0.7391
23473W        W39547  10.762  10.259  14.104  0.2974 -0.1250 -0.4012
23474W        W39548   9.455   1.371  13.134 -0.0560 -0.2199  0.2068
23475W        W39549   5.496   1.790   1.936 -0.1374 -0.1086 -0.2454
23476W        W39550   4.653   1.153  11.054  0.0791  0.1088  0.1009
23477W        W39551   0.154   6.079   5.652  0.3325  0.0213 -0.1186
23478W        W39552  15.969  16.741   3.112  0.0861 -0.0525 -0.0224
23479W        W39553   7.362   4.458   5.035 -0.2878  0.2063  0.3633
23480W        W39554  16.304  10.612  12.528 -0.4179 -0.2035 -0.1502
23481W        W39555  15.297   1.169   0.633  0.1692 -0.0295 -0.1570
23482W        W39556  12.500   3.687  10.403 -0.1657  0.1771  0.2022
23483W        W39557  16.686   2.584   0.167 -0.2317  0.0308 -0.0253
23484W        W39558  10.152  14.282  14.916  0.1378 -0.2326 -0.1301
23485W        W39559  11.162   5.067   2.214  0.1998  0.0928 -0.0658
23486W        W39560  11.513   0.476  12.711  0.2118  0.1423  0.1996
23487W        W39561   4.103  11.364  10.850  0.0767  0.1029 -0.0326
23488W        W39562  17.176   5.513   9.480 -0.4293  0.0168  0.1698
23489W        W39563   3.547  17.346   2.464 -0.2166 -0.3081 -0.0981
23490W        W39564  17.869   8.791   2.671  0.3236  0.1743  0.3282
23491W        W39565   5.816   0.308   3.151  0.1806  0.0829  0.0994
23492W        W39566  15.359   8.124  13.897 -0.2943  0.3525 -0.0294
23493W        W39567  11.623  16.300   2.552  0.0301 -0.1000  0.2566
23494W        W39568  12.732   5.682   3.783 -0.0508  0.2055 -0.0581
23495W        W39569  15.527   3.292   4.567 -0.1072 -0.3018 -0.0699
23496W        W39570   1.316   9.110  12.194 -0.1098  0.2537  0.1694
23497W        W39571   6.306  13.457  11.899 -0.4215 -0.3015  0.0211
23498W        W39572  17.541   5.274   4.493 -0.1504 -0.1711 -0.0369
23499W        W39573  16.807  16.185  10.840  0.0153  0.2548  0.0366
23500W        W39574   5.103   9.364  14.575  0.0184  0.3243  0.0842
23501W        W39575  11.858  16.420   3.342  0.0797  0.0141 -0.0231
23502W        W39576  13.140   7.480   1.015  0.1429 -0.3629 -0.2711
23503W        W39577   7.776  15.607   3.232 -0.2020  0.1533 -0.0605
23504W        W39578   0.737   0.460  10.484 -0.4891 -0.1741  0.0494
23505W        W39579   6.163   8.597  12.371 -0.0582  0.1217  0.0169
23506W        W39580   7.367   8.759  13.228 -0.5833  0.1290  0.0514
23507W        W39581   3.075   8.955   1.916  0.1386 -0.1576  0.0687
23508W        W39582  12.725   5.137  11.634 -0.1673  0.0567  0.0686
23509W        W39583   3.351   2.694   5.185  0.0385 -0.2101 -0.0059
23510W        W39584   6.609   2.459   1.645  0.3700 -0.2081  0.2592
23511W        W39585   7.271  18.799   2.876 -0.1575 -0.0631 -0.2193
23512W        W39586   4.417   9.903   3.205  0.3157 -0.1430 -0.0455
23513W        W39587  11.981  11.639  13.567  0.2670  0.3493 -0.4325
23514W        W39588   6.631  14.407   5.555  0.2599 -0.0641 -0.3961
23515W        W39589  14.516   8.002  13.437 -0.2580  0.0712  0.1091
23516W        W39590   0.715   5.271  10.613  0.1316  0.2383  0.3181
23517W        W39591  12.470   3.127   5.277 -0.1934 -0.1499 -0.2274
23518W        W39592   1.216   6.806  12.995  0.0268  0.0868  0.0268
23519W        W39593  12.077  15.842   4.729 -0.0357  0.0977 -0.0826
23520W        W39594   3.104   1.166  11.308  0.0794  0.0686 -0.1543
23521W        W39595  12.538  19.259  13.668 -0.0480 -0.0602  0.2125
23522W        W39596   2.779   8.438  10.867  0.0312  0.1559  0.1749
23523W        W39597  17.913  14.301  13.512  0.2829 -0.0793  0.1039
23524W        W39598  17.935   0.475  10.432 -0.0386 -0.0558 -0.0440
23525W        W39599  18.978  18.988   3.565  0.1820  0.3006 -0.0426
23526W        W39600   0.457  16.973  10.296 -0.1871 -0.1005  0.2230
23527W        W39601   3.116   6.953  14.619  0.2152  0.4942  0.0225
23528W        W39602   2.732   9.433   4.789  0.2174 -0.0370 -0.2100
23529W        W39603   6.578  17.762   1.319  0.4342  0.0519  0.0843
23530W        W39604  11.188   0.396  11.584 -0.1405  0.2056  0.2189
23531W        W39605   8.474  12.276  12.651  0.0820 -0.2845  0.0363
23532W        W39606   2.013   4.003  12.734  0.0575  0.0569 -0.2092
23533W        W39607   8.300  16.421  13.795 -0.0657 -0.1280  0.2825
23534W        W39608   8.193  11.363  13.029 -0.0890  0.0188 -0.0774
23535W        W39609   9.451   9.123  12.180 -0.3193  0.0752  0.1360
23536W        W39610   2.757   9.184   1.063  0.1502  0.0567  0.1548
23537W        W39611  11.848  18.792  12.062 -0.3162 -0.4783 -0.0966
23538W        W39612   6.721   9.887  11.981  0.0704  0.1195  0.2425
23539W        W39613  11.099  12.838  11.964 -0.1111 -0.1132 -0.0893
23540W        W39614  12.314   5.446  13.662 -0.1791  0.0271 -0.1658
23541W        W39615   2.604  11.815  10.527 -0.1355 -0.1119 -0.0443
23542W        W39616   6.131   4.522   4.355  0.3634  0.0909 -0.1967
23543W        W39617   3.849  18.198   0.769 -0.0059 -0.0705 -0.3792
23544W        W39618   7.821  17.905  12.082  0.1112 -0.0657  0.0734
23545W        W39619   9.010   5.914   4.200  0.2178  0.1345 -0.0022
23546W        W39620  11.180  14.239  10.728 -0.2884 -0.0358  0.1396
23547W        W39621   2.793   4.493  11.551 -0.2386 -0.3793 -0.3515
23548W        W39622  12.669  17.802   5.396 -0.0401  0.1901 -0.3336
23549W        W39623  18.847   1.573  14.805  0.2919  0.0786  0.3101
23550W        W39624  12.480   0.679  12.471  0.0889  0.1589 -0.2951
23551W        W39625   3.703   8.268   2.697 -0.3761  0.1378 -0.0670
23552W        W39626   0.127   7.541   0.368 -0.4481  0.1453  0.1689
23553W        W39627   9.461  13.230  12.975 -0.3333 -0.1489  0.1009
23554W        W39628  16.150  11.988  11.160 -0.1586  0.0025 -0.0411
23555W        W39629  16.599   4.739   3.271  0.1970 -0.2756  0.0677
23556W        W39630   8.120   0.990   4.015  0.3382  0.0728 -0.1054
23557W        W39631   1.951   1.089  12.070 -0.0576 -0.3131 -0.1187
23558W        W39632  13.380   7.743   4.602  0.1242  0.0123  0.1300
23559W        W39633  17.165  11.316   1.337  0.0001 -0.0134 -0.0362
23560W        W39634  14.379  12.131   3.130 -0.2213  0.2224  0.0413
23561W        W39635  13.283   3.604   2.563  0.2107  0.0104  0.1563
23562W        W39636   2.814  14.957  10.312  0.0488 -0.0245 -0.1618
23563W        W39637  18.263  13.675   0.727  0.1489  0.1390  0.0702
23564W        W39638  15.189   0.442   3.845  0.2373 -0.1603 -0.4524
23565W        W39639   6.970  15.556   2.699 -0.1937  0.0574 -0.0961
23566W        W39640   3.545   6.978  13.833 -0.4132 -0.2181  0.2532
23567W        W39641  16.963   4.902  12.898  0.3849  0.2047  0.5291
23568W        W39642  11.409  15.113  12.486 -0.1766 -0.0319 -0.3462
23569W        W39643  11.750   1.733   3.014  0.1190  0.3058 -0.1421
23570W        W39644  14.561   6.515   4.053  0.2071  0.0854  0.0023
23571W        W39645   1.933  17.844   2.050  0.0756 -0.0582  0.2486
23572W        W39646  17.235   0.591   2.802 -0.2284  0.0386 -0.0817
23573W        W39647  18.369   7.590  12.440 -0.1357 -0.2655 -0.2303
23574W        W39648   5.366  10.746   3.653  0.2707 -0.0539 -0.1104
23575W        W39649  13.534  19.164   0.320  0.3177 -0.1737 -0.0121
23576W        W39650   6.455  13.333   0.297 -0.0883 -0.0624  0.1616
23577W        W39651   3.257  18.114   1.442  0.0522  0.0063  0.1365
23578W        W39652  10.548  18.763  10.297 -0.1521  0.2832  0.1417
23579W        W39653   7.020   0.301   0.528 -0.2256  0.2036 -0.0203
23580W        W39654  14.739   7.587   0.860  0.1507 -0.3021  0.0753
23581W        W39655  17.933   4.571   0.023  0.2479  0.1511 -0.0287
23582W        W39656   1.990   7.499   5.317 -0.0698 -0.1728 -0.1371
23583W        W39657  11.580   7.592   0.104 -0.0143  0.1131  0.0780
23584W        W39658  14.774  11.858  11.194  0.0129 -0.3172 -0.2146
23585W        W39659  18.063   1.841  12.760 -0.1923 -0.0078  0.0674
23586W        W39660  16.925  18.394   1.028 -0.2423  0.1058  0.4841
23587W        W39661   1.881   4.560   2.903 -0.1155 -0.1160 -0.0851
23588W        W39662  11.589   0.157   3.440  0.3629 -0.3540  0.0283
23589W        W39663   1.420   9.475  14.504 -0.2192  0.0510 -0.1706
23590W        W39664   9.090  16.665   1.099  0.1121  0.1000  0.0295
23591W        W39665   0.436   2.077   4.660 -0.1849  0.1767 -0.1023
23592W        W39666   4.390  16.539   2.633 -0.2409 -0.1185  0.0471
23593W        W39667   3.303   4.448   1.570  0.2763 -0.5487 -0.1097
23594W        W39668   8.857   8.551   3.722  0.0296 -0.1280  0.0908
23595W        W39669  15.866   1.746  10.143  0.2846  0.1394  0.2332
23596W        W39670   1.504  15.511   2.198 -0.0779  0.1448  0.3118
23597W        W39671  17.382   9.130   3.542 -0.0770  0.1611 -0.0777
23598W        W39672   7.083   4.133   5.919 -0.1996 -0.0535  0.0323
23599W        W39673   4.492   2.067   1.638  0.0788 -0.0704 -0.1417
23600W        W39674  17.193   7.442  13.726 -0.0889  0.0930  0.3774
23601W        W39675   0.503  10.991  12.907 -0.2298  0.1113 -0.2510
23602W        W39676   0.411  16.927   2.559  0.2760 -0.2236  0.1175
23603W        W39677  14.039   8.900  10.489 -0.1964  0.5186 -0.2888
23604W        W39678  15.215   6.191   2.000  0.1939  0.2049  0.3194
23605W        W39679   7.434   5.386   1.837 -0.4719  0.1611 -0.1191
23606W        W39680   6.654   0.912   1.089  0.0967  0.5083 -0.3750
23607W        W39681   4.359   2.275   4.121  0.0838 -0.1840  0.2163
23608W        W39682  16.583   9.738   4.724  0.1028  0.0661  0.4101
23609W        W39683   2.355   7.836   0.286 -0.0624  0.0322  0.1131
23610W        W39684   3.282   6.885   2.050  0.6805  0.1056 -0.0054
23611W        W39685   9.711   2.714   4.782  0.0912 -0.2859 -0.0070
23612W        W39686  11.738   3.497   4.125 -0.0824  0.0507 -0.1095
23613W        W39687   6.162  16.670   0.569  0.3104 -0.2143  0.1634
23614W        W39688   5.102   2.906  11.108 -0.2441  0.5410  0.0689
23615W        W39689   6.201   7.714   2.345 -0.1643  0.0527  0.1246
23616W        W39690  15.625  12.386  11.644 -0.0088 -0.1027  0.0504
23617W        W39691  12.461  15.775   2.624 -0.1038 -0.0929 -0.1653
23618W        W39692  15.683  13.193   9.181  0.0177 -0.0656  0.0558
23619W        W39693  18.232   0.238   2.748  0.3348 -0.0709  0.0449
23620W        W39694   8.299   3.129  11.469  0.2521  0.0794 -0.0533
23621W        W39695   2.944  13.359   0.870 -0.0263 -0.2619 -0.0039
23622W        W39696   2.309   2.442   3.308 -0.1332 -0.3059  0.0119
23623W        W39697   2.920   3.482  13.274 -0.2047 -0.1551 -0.1142
23624W        W39698   7.305   5.458   3.158  0.1425 -0.0170  0.1537
23625W        W39699  13.934  16.542  14.594  0.0804  0.1854  0.2539
23626W        W39700  12.633   6.223  14.072  0.0740 -0.0061 -0.4213
23627W        W39701  16.513   2.754  14.333 -0.1882 -0.0681  0.1152
23628W        W39702  17.353   4.964   0.729  0.0359  0.0320  0.1430
23629W        W39703  11.225  13.083   0.084  0.0110 -0.3399 -0.0542
23630W        W39704   8.476  18.002  14.951  0.2246  0.0562  0.2885
23631W        W39705   5.046  18.501  11.194 -0.1289  0.0949 -0.0920
23632W        W39706  17.983  10.740  11.743 -0.0009  0.2064 -0.1480
23633W        W39707   2.679  18.415   2.629 -0.1851  0.3267  0.0790
23634W        W39708   6.599   8.308   5.338 -0.2407  0.1443 -0.2269
23635W        W39709   7.044   8.407  13.345 -0.2566  0.1313  0.0746
23636W        W39710   6.751   7.394   5.256  0.0951  0.1385 -0.2359
23637W        W39711   3.504  15.365  11.841  0.3069 -0.2037  0.0755
23638W        W39712   5.324   9.278   4.115  0.3240 -0.1897  0.1483
23639W        W39713  19.245   1.355   1.800 -0.1152  0.0493  0.2325
23640W        W39714   6.388   3.031  13.121  0.2671  0.1055  0.3017
23641W        W39715  10.102  14.828   1.729 -0.0695  0.0467 -0.1324
23642W        W39716   8.680   7.720  12.024  0.0663  0.0196 -0.2053
23643W        W39717  18.784   0.343   5.235 -0.2430  0.0350 -0.1700
23644W        W39718   8.060   3.075   0.311 -0.0379 -0.0335 -0.2319
23645W        W39719   8.231  12.054   1.251  0.1887 -0.4353 -0.1101
23646W        W39720  13.140  16.779   2.983  0.0039  0.1495 -0.0502
23647W        W39721   7.686  10.532  10.866  0.0854  0.1746  0.3872
23648W        W39722  16.118   5.168   0.722 -0.0829  0.3840  0.2104
23649W        W39723   2.583  17.835  14.307  0.2536 -0.2236  0.0814
23650W        W39724  17.536  12.756   2.142  0.0763 -0.0389 -0.0296
23651W        W39725   5.325  16.894   4.848 -0.1518 -0.0806 -0.3285
23652W        W39726  14.661   5.411   4.752  0.0136  0.0098 -0.0841
23653W        W39727  15.176  17.179  13.141 -0.0196 -0.0970 -0.0403
23654W        W39728  18.774   7.245   0.368  0.0176 -0.1996 -0.2721
23655W        W39729  13.229  13.127  13.281 -0.1978 -0.0585  0.0701
23656W        W39730   5.513   3.474   1.326 -0.3991 -0.2210 -0.0517
23657W        W39731   1.166  17.915   3.087 -0.2609  0.2062 -0.2659
23658W        W39732  14.530  15.219   0.428  0.0888 -0.0422 -0.0328
23659W        W39733   6.272   2.812  14.072 -0.3359  0.3473 -0.3040
23660W        W39734   8.930   3.331   5.133  0.1239  0.0205 -0.2692
23661W        W39735   3.135   6.583   3.508  0.0437 -0.4708 -0.0465
23662W        W39736   2.753  10.614   0.798 -0.1536  0.2280  0.2425
23663W        W39737   6.179  19.076  13.381  0.1004  0.3351 -0.3206
23664W        W39738  18.964  10.877   0.909 -0.0986  0.0043  0.2062
23665W        W39739  18.679   1.107  11.958 -0.0407 -0.2502  0.1680
23666W        W39740  13.130  12.324  12.518  0.2527  0.1963 -0.0407
23667W        W39741   4.081   3.511   0.527 -0.0456  0.0282  0.3204
23668W        W39742  15.767   6.843   1.343  0.3529  0.1326  0.2852
23669W        W39743   7.159  18.483  10.624 -0.2176  0.0617 -0.0502
23670W        W39744   7.972   9.611   3.687  0.3311  0.2606 -0.0515
23671W        W39745   8.907   1.337   1.535 -0.0834  0.2196 -0.1056
23672W        W39746  11.479   7.275  11.310 -0.0296  0.0296 -0.1193
23673W        W39747  10.553   7.716  11.691 -0.0153 -0.1191  0.3415
23674W        W39748  19.066   4.411   2.872 -0.0272 -0.0834 -0.1903
23675W        W39749  11.591   3.288   3.447 -0.0706  0.3541  0.0967
23676W        W39750  11.962  10.050  13.512  0.1494 -0.1582  0.1017
23677W        W39751   4.846  16.914   3.155  0.2619 -0.4297 -0.1550
23678W        W39752  16.983  18.510   3.031 -0.1478  0.2098 -0.0158
23679W        W39753   2.070  17.413  10.662 -0.1666 -0.2217  0.0712
23680W        W39754   1.557  14.012  14.806 -0.2095 -0.3943 -0.1352
23681W        W39755  15.452  17.979  11.598 -0.1282  0.0106 -0.3724
23682W        W39756  15.513  13.298   0.039  0.1694 -0.1219 -0.1501
23683W        W39757   4.406   4.027  13.266  0.0045  0.1595  0.2596
23684W        W39758  11.740   7.497  12.777  0.3745 -0.1065 -0.1852
23685W        W39759   5.577   6.568   3.590  0.1508  0.0785  0.1100
23686W        W39760  17.753   3.585   3.541 -0.0150 -0.0661 -0.2517
23687W        W39761  11.179  12.430   4.944  0.3962  0.1881 -0.1268
23688W        W39762  18.981  15.637   3.935  0.0882  0.3090  0.1133
23689W        W39763   0.530   7.162  13.384  0.0838 -0.4510  0.3028
23690W        W39764   7.786  16.173   4.806  0.6212  0.1141  0.1733
23691W        W39765  17.340   5.097   1.241  0.0852 -0.2876 -0.1181
23692W        W39766   8.685   9.741   0.906 -0.0656 -0.1209 -0.0841
23693W        W39767   9.047   5.400  14.956  0.1146  0.1331  0.3964
23694W        W39768  18.406  10.017   1.213 -0.0991 -0.0627  0.1008
23695W        W39769   3.831   6.819   1.912  0.3140  0.4378  0.1101
23696W        W39770   0.317   3.194  12.801 -0.0410  0.1470  0.0758
23697W        W39771  11.655   3.830  11.744 -0.0613  0.0539  0.0798
23698W        W39772  11.192   8.530   2.932  0.0324 -0.1745 -0.0479
23699W        W39773   0.765   5.137  14.282  0.0250  0.0922 -0.1208
23700W        W39774  16.886  13.555   1.623  0.4165 -0.0913 -0.0676
23701W        W39775   9.982   4.051  14.762 -0.3720  0.1272 -0.0922
23702W        W39776   9.148   3.021  13.198  0.1445 -0.1384  0.0060
23703W        W39777  17.077  18.234  10.902  0.2335 -0.1885  0.0417
23704W        W39778  15.150   9.511   3.639 -0.4148 -0.0038  0.0215
23705W        W39779  11.582   3.272   2.159 -0.1223  0.0825 -0.0227
23706W        W39780   7.995   2.823  13.418 -0.0706  0.3659 -0.1191
23707W        W39781   5.682  10.673   5.148 -0.0658  0.2272  0.0743
23708W        W39782   0.989   9.237  14.554  0.2726 -0.0191  0.0772
23709W        W39783  13.523   5.094   0.931 -0.1343  0.2051 -0.0824
23710W        W39784  10.005  17.701  12.786  0.3671  0.3752 -0.1298
23711W        W39785   7.380  15.570  12.281  0.0556 -0.3994  0.0925
23712W        W39786   7.484  13.634   2.645 -0.1296 -0.1493 -0.0265
23713W        W39787   1.013  17.864  14.420 -0.1661 -0.0225 -0.0773
23714W        W39788  14.269  15.964   0.299  0.0329  0.0630 -0.3267
23715W        W39789   0.364  19.253   4.024  0.2795 -0.1280 -0.0092
23716W        W39790  18.936  17.182   4.492  0.0968  0.2276  0.0848
23717W        W39791   3.904   6.935   0.333  0.4509  0.0308 -0.0045
23718W        W39792  10.411  14.962  14.206 -0.0687 -0.0556 -0.1419
23719W        W39793  13.302  17.114   3.338  0.0536  0.0936  0.0026
23720W        W39794   7.665  16.389  14.750  0.0951 -0.0141 -0.0295
23721W        W39795  16.825   8.820   0.442 -0.0881  0.0242 -0.2612
23722W        W39796  17.161  10.853  15.011 -0.0280  0.1778 -0.1495
23723W        W39797   9.123  17.710   2.678 -0.2783  0.1166  0.0356
23724W        W39798   1.842  10.946  14.175 -0.0648  0.0466  0.0739
23725W        W39799   8.385   7.655   2.189 -0.0246 -0.0945 -0.0986
23726W        W39800   1.963  18.461  11.280  0.0953  0.0354 -0.2828
23727W        W39801  12.429  10.256   2.044  0.0336  0.0824 -0.0283
23728W        W39802   1.054   7.766   3.823  0.3724 -0.0549  0.2336
23729W        W39803   5.991   1.805   5.890 -0.1091 -0.0470 -0.2999
23730W        W39804  18.063  17.932   2.837  0.0471  0.2461  0.0412
23731W        W39805   9.777   0.279  14.006  0.3075  0.0573  0.1630
23732W        W39806   1.143   5.959   5.018  0.1168 -0.0025 -0.0519
23733W        W39807   2.712  15.659   4.165 -0.0151  0.0526 -0.2184
23734W        W39808  10.277   7.563  14.143 -0.2328  0.0337 -0.0543
23735W        W39809   5.600  10.699   3.092  0.0998 -0.1711 -0.1450
23736W        W39810   4.122  11.468  13.722  0.4033 -0.0693 -0.0952
23737W        W39811   8.215   3.456  10.167 -0.3693 -0.0217  0.1301
23738W        W39812   3.125  15.181  10.686  0.0051  0.2062 -0.1563
23739W        W39813   0.481  13.097   3.866  0.1549  0.1062  0.2040
23740W        W39814   1.639   6.682   5.876  0.2374 -0.0220  0.1244
23741W        W39815   7.398  13.747   4.853 -0.2410 -0.1343 -0.0781
23742W        W39816   4.664   0.716  11.283  0.0079  0.0227  0.4526
23743W        W39817  14.907   3.674  14.350 -0.0447  0.1168 -0.0350
23744W        W39818  15.514  10.837   3.465 -0.0323 -0.0898 -0.2344
23745W        W39819   1.011  11.887  13.049 -0.2405 -0.0316  0.1124
23746W        W39820  15.217   5.694  11.453  0.1885 -0.0359 -0.0624
23747W        W39821  11.928   4.613   4.030  0.0754  0.2488  0.0555
23748W        W39822   7.103   1.837   1.341 -0.1758  0.0221  0.0235
23749W        W39823   5.504  18.016   5.293 -0.4323 -0.0335 -0.0403
23750W        W39824   2.405   3.692  11.803  0.1992 -0.1796 -0.1892
23751W        W39825  15.983  14.889  10.096  0.3943 -0.0137 -0.1198
23752W        W39826  14.918  19.022   0.006 -0.1208  0.2911 -0.2427
23753W        W39827  10.157   7.788  14.645 -0.2125  0.2518 -0.0501
23754W        W39828   8.913   6.808   0.699 -0.3076 -0.2180 -0.1703
23755W        W39829   6.981  14.512   3.108  0.0940 -0.1705  0.3194
23756W        W39830  11.361  18.658   3.567  0.0835 -0.0277 -0.2022
23757W        W39831   9.679   3.363   3.956 -0.3065  0.3481  0.2529
23758W        W39832  16.271   0.986  13.239 -0.0088 -0.1396  0.3029
23759W        W39833   4.621   3.861  14.854  0.0545 -0.1798  0.0196
23760W        W39834  13.622   5.350   0.380  0.1333  0.2845  0.0936
23761W        W39835  10.827   4.688   0.631 -0.1040  0.2496 -0.0355
23762W        W39836  11.945   8.132  13.520  0.3026 -0.0373  0.0464
23763W        W39837  17.537   2.118  10.092  0.1735 -0.1053  0.2384
23764W        W39838   7.213  16.394   4.703 -0.1796  0.3098  0.3509
23765W        W39839  14.394   0.045   2.866 -0.1711 -0.0828 -0.1824
23766W        W39840  17.147  11.789   4.530 -0.1457 -0.1697 -0.0967
23767W        W39841  12.642  17.458   1.527  0.1083  0.2141 -0.0843
23768W        W39842  14.240   5.257   2.139 -0.0087  0.0982  0.2699
23769W        W39843   7.180  12.757   0.355 -0.0509 -0.3829  0.0880
23770W        W39844   0.560  17.375  10.560  0.0425 -0.0229  0.0843
23771W        W39845   9.622   9.105   0.262 -0.2325  0.0507 -0.0165
23772W        W39846  14.432  15.787  13.377 -0.1232 -0.0206  0.2435
23773W        W39847  16.655   6.284   2.155  0.1584 -0.3380  0.0244
23774W        W39848   5.050   8.631   3.681  0.1666  0.3224  0.0808
23775W        W39849  12.663  10.211  14.021 -0.0098 -0.1860 -0.2155
23776W        W39850  12.302  11.546  12.635  0.2645 -0.2118 -0.2179
23777W        W39851  10.557   6.265  12.020 -0.0041 -0.0569 -0.0466
23778W        W39852   7.936   4.386   4.931  0.1398  0.1091 -0.0264
23779W        W39853  12.963   9.467   5.173  0.2860 -0.1273 -0.1050
23780W        W39854   7.591  11.377   0.834 -0.1817  0.0934 -0.2734
23781W        W39855   5.920  12.450   1.632  0.1800 -0.0625 -0.0055
23782W        W39856   6.741  11.734  11.631  0.2499  0.1339 -0.0835
23783W        W39857   7.454  16.730  11.409  0.1129 -0.0545  0.1191
23784W        W39858   1.074  15.254  11.851  0.1468  0.1038  0.2499
23785W        W39859   7.515   0.507  11.469  0.1424  0.1161 -0.0808
23786W        W39860  14.090  15.970   1.815  0.0407 -0.3417  0.1878
23787W        W39861  12.259   6.003  14.987 -0.1350 -0.0677 -0.0743
23788W        W39862   3.851   2.831   1.118  0.1036  0.1881  0.0941
23789W        W39863   1.036   6.557  13.347  0.0805 -0.2120 -0.1636
23790W        W39864   3.042   9.126   0.589  0.4301  0.2461 -0.3185
23791W        W39865  14.718   2.210  12.786  0.1732  0.2675  0.0235
23792W        W39866  14.323   4.280   2.427 -0.1467  0.1794 -0.2505
23793W        W39867  11.359   8.838  11.623  0.2377  0.0250  0.1252
23794W        W39868   4.099   3.992  14.904  0.0823  0.0733 -0.0998
23795W        W39869   5.875   9.931  13.218  0.0653 -0.3646 -0.0106
23796W        W39870  14.231  14.533  10.150  0.0428  0.2704 -0.0994
23797W        W39871   9.714   1.580   1.287  0.1773 -0.1143  0.1757
23798W        W39872  19.253  16.114   0.870  0.0334 -0.1198 -0.2927
23799W        W39873   7.262   0.016  10.318 -0.2943 -0.1105 -0.1677
23800W        W39874   7.990   6.496   4.107  0.0409 -0.1711  0.2083
23801W        W39875  18.614  13.586   4.753  0.0170  0.3029  0.2480
23802W        W39876   7.749  15.455   1.258 -0.0723 -0.0157 -0.0494
23803W        W39877  16.936   6.006  13.238  0.0003  0.2715 -0.3281
23804W        W39878  12.230   0.631  11.039  0.2599  0.3338  0.1969
23805W        W39879  10.890  18.988   3.183 -0.3618 -0.1133  0.4801
23806W        W39880   6.022   7.539  13.737 -0.1341  0.1788  0.0627
23807W        W39881   5.881  10.139   5.245 -0.0549 -0.3806  0.2347
23808W        W39882   1.548   5.605  14.501 -0.2956  0.0158  0.2698
23809W        W39883   1.126   6.204   3.802  0.0750  0.2811 -0.0605
23810W        W39884   2.240  11.033  14.479 -0.0576  0.0237  0.0568
23811W        W39885  16.598   0.733  11.825  0.0440 -0.4972  0.0002
23812W        W39886   1.694   4.078  11.891  0.3102  0.0249  0.0362
23813W        W39887   7.711  19.110   1.770  0.2368 -0.0801 -0.3389
23814W        W39888  14.657  10.235  12.406 -0.0888  0.2051 -0.0940
23815W        W39889   2.239   4.349  13.755  0.0590 -0.0494  0.3237
23816W        W39890   6.817  10.567  12.621  0.1700  0.1564  0.1888
23817W        W39891  18.031   0.195  10.045  0.1839  0.0523 -0.3921
23818W        W39892   8.193  14.639  12.992  0.1017  0.0616  0.0622
23819W        W39893   3.746   6.193  13.020 -0.3233 -0.1548  0.1791
23820W        W39894   4.830   1.658   3.604  0.2702  0.0080  0.0892
23821W        W39895   4.267  10.827  12.945 -0.0556  0.1057 -0.2694
23822W        W39896   3.737  14.068  10.846  0.0983  0.0197 -0.0116
23823W        W39897   2.181   2.311   2.093 -0.0355 -0.0968 -0.0827
23824W        W39898   2.517  11.162   2.718 -0.0192 -0.1028  0.2464
23825W        W39899   4.807   9.252   1.155 -0.0805  0.1163  0.2366
23826W        W39900  10.081  14.146   0.720  0.1475  0.2699 -0.1121
23827W        W39901  17.810   7.329  11.853 -0.1051 -0.0785 -0.0544
23828W        W39902   0.571  16.001   2.561  0.0910  0.1664  0.0545
23829W        W39903  19.035   8.225   0.005  0.0072  0.0350 -0.2793
23830W        W39904   4.791  17.570  12.175 -0.2988 -0.0663  0.3993
23831W        W39905   9.864  12.887   4.428  0.2848  0.2879 -0.1059
23832W        W39906  15.924   8.108  14.892  0.1839  0.0727  0.1297
23833W        W39907  15.110  17.792  12.290  0.2377 -0.1831 -0.0440
23834W        W39908   1.706  13.431  11.430 -0.2067  0.0342 -0.0566
23835W        W39909  12.615  17.383   2.505  0.0347 -0.2166 -0.2098
23836W        W39910  17.527  11.505  10.617 -0.2960  0.1280  0.1192
23837W        W39911   0.407   5.836   3.091  0.0525  0.4956  0.1990
23838W        W39912  19.037  16.464   1.157 -0.1769 -0.2969 -0.0470
23839W        W39913   0.668   6.142  11.880  0.0821 -0.0975 -0.1171
23840W        W39914   6.689   0.782   2.717  0.0380 -0.2005 -0.0357
23841W        W39915   1.770  13.535   0.301  0.1561 -0.3659 -0.1599
23842W        W39916  11.755   7.377   2.479 -0.0734  0.1476  0.1254
23843W        W39917   9.308  14.315  12.700 -0.1931 -0.0926  0.0388
23844W        W39918   2.642   6.985   4.730  0.0327 -0.2519  0.1747
23845W        W39919  18.826  17.942  14.255 -0.2029 -0.2191 -0.3757
23846W        W39920   0.441  18.482   0.767  0.1098 -0.2243  0.1927
23847W        W39921   7.540  10.022   1.453  0.0768 -0.2596 -0.2765
23848W        W39922  12.366   6.428  14.835 -0.1626  0.1638 -0.0302
23849W        W39923  15.452   7.028   4.076  0.0824  0.0796  0.0819
23850W        W39924   2.424  17.191  10.989 -0.2469 -0.1069 -0.0762
23851W        W39925   9.545  19.208   3.821 -0.1655 -0.2581 -0.0972
23852W        W39926  12.932  14.198  10.291  0.1158  0.1069 -0.1546
23853W        W39927   5.533  16.066  13.038  0.3646 -0.3523 -0.0786
23854W        W39928   6.744  14.707   2.048  0.1036 -0.0500  0.0561
23855W        W39929   5.566   5.061   3.134  0.0799 -0.0662  0.1855
23856W        W39930   3.719   3.975  10.946  0.0175 -0.0279  0.1031
23857W        W39931   7.172   8.498  10.546  0.0419 -0.3249 -0.4987
23858W        W39932  12.210   3.668  11.944  0.0889 -0.0084  0.1025
23859W        W39933   8.420   5.444   1.186  0.0036 -0.1353  0.0132
23860W        W39934   8.172   7.787   0.744 -0.3617  0.0770  0.1391
23861W        W39935  12.042   6.873  10.961 -0.1926 -0.0405  0.0291
23862W        W39936  17.967  10.428   1.987  0.1060 -0.1281 -0.4083
23863W        W39937  14.656   3.855  10.415  0.0490  0.0991 -0.0857
23864W        W39938  12.525   3.864  13.523 -0.2110  0.0652 -0.2082
23865W        W39939  12.404  11.809   3.606  0.0430  0.2218 -0.1160
23866W        W39940  17.661   5.335  12.241  0.2969  0.1180  0.2061
23867W        W39941   3.115  17.002   2.596 -0.3043 -0.0305 -0.0537
23868W        W39942   3.294  15.158   1.912  0.1059 -0.1447 -0.1357
23869W        W39943   8.881   9.575  11.286  0.0366  0.1017  0.0939
23870W        W39944   4.790  17.360   4.918  0.0811 -0.2767  0.2136
23871W        W39945  18.952   2.189  13.549  0.0261  0.1824 -0.1404
23872W        W39946   5.001  13.833  14.541  0.1924  0.2633  0.0603
23873W        W39947  11.314  14.105  11.716 -0.0149 -0.1052 -0.2704
23874W        W39948   0.691   8.968  13.978  0.3535 -0.1348  0.2020
23875W        W39949   9.788  16.693   1.477 -0.1606 -0.0856 -0.0042
23876W        W39950   6.001  17.080  14.739  0.2022 -0.1879 -0.1032
23877W        W39951  15.010   6.772   9.732  0.1223 -0.0525  0.1666
23878W        W39952  12.944  14.999   1.387  0.0857  0.2871 -0.0740
23879W        W39953  11.079  16.767  12.352 -0.0343  0.0952  0.0321
23880W        W39954  14.438   7.665  12.883 -0.3424  0.0377  0.3332
23881W        W39955  10.979  17.277   4.579  0.2481 -0.4861  0.0191
23882W        W39956  14.036  18.970  10.067  0.1476 -0.1727  0.0062
23883W        W39957   2.913  12.213   3.063 -0.3610  0.0972  0.1613
23884W        W39958  11.895  18.891  12.602 -0.0339  0.0322 -0.4904
23885W        W39959   3.507   7.822   2.849  0.1449 -0.0758 -0.0998
23886W        W39960   7.128  18.619  13.448 -0.1348 -0.2873  0.1346
23887W        W39961   6.842  13.279  14.329 -0.2498  0.0809  0.1453
23888W        W39962   5.307  13.766   2.622 -0.1916  0.0006 -0.0996
23889W        W39963   5.773  15.918   0.730 -0.4548 -0.0402 -0.0002
23890W        W39964  14.154  10.665  11.212 -0.2200 -0.1362 -0.0013
23891W        W39965   4.529   5.892  11.520  0.0260  0.2514 -0.0054
23892W        W39966  15.737   5.316   4.249 -0.2864  0.1002  0.0126
23893W        W39967  17.725   2.271   3.855  0.1198  0.0527 -0.1939
23894W        W39968  16.244  10.971  12.888 -0.0750 -0.0754 -0.2661
23895W        W39969   5.331   5.782  11.277  0.2187  0.1462  0.1238
23896W        W39970   8.227  16.690  11.101  0.0096 -0.2906 -0.1491
23897W        W39971  19.304   7.187   1.288  0.1652  0.3127 -0.1905
23898W        W39972   5.681   2.434   4.738  0.3398 -0.2390  0.3169
23899W        W39973   6.318   5.801   1.707  0.1871  0.0682 -0.0733
23900W        W39974  15.382   7.335  10.921 -0.0581 -0.1041  0.4008
23901W        W39975  16.495   4.660  13.137  0.1055 -0.0224  0.1270
23902W        W39976  18.557  11.000   1.289  0.0424  0.1356 -0.1648
23903W        W39977   9.062   5.992   2.613  0.1236  0.1326 -0.0718
23904W        W39978   3.311   3.613   1.191  0.0544  0.2105  0.0720
23905W        W39979   2.286  15.104  10.172  0.0020  0.0461  0.1996
23906W        W39980  19.042  12.526  14.171 -0.0237  0.2318 -0.1947
23907W        W39981   8.026   4.323   4.397  0.2697 -0.0369 -0.0009
23908W        W39982  18.921  13.117  13.369 -0.0678 -0.3242  0.3216
23909W        W39983  16.181   7.175   4.473  0.1579  0.1005  0.0627
23910W        W39984  19.121   2.550  14.001  0.1607 -0.3615  0.2836
23911W        W39985  13.311   9.998  12.103  0.0231 -0.2266 -0.0221
23912W        W39986  17.265   8.595   1.763  0.0791  0.4065  0.1649
23913W        W39987   9.944  18.915   3.372  0.0185  0.0892 -0.1129
23914W        W39988   6.074  17.898  11.104  0.0504 -0.0555  0.2836
23915W        W39989   3.960   2.463  13.739 -0.0552  0.1088 -0.0340
23916W        W39990  11.996  11.130   2.325 -0.1860  0.1541 -0.0842
23917W        W39991   3.057  10.008   4.392 -0.0151  0.1897  0.0079
23918W        W39992  14.750   3.814  12.405 -0.1954  0.2983  0.0321
23919W        W39993  19.133   3.680   2.922  0.0843  0.0336 -0.1955
23920W        W39994  13.066   8.669  13.090 -0.2395  0.1648  0.1033
23921W        W39995   1.296   6.350   4.752 -0.1996  0.0225 -0.0493
23922W        W39996   2.360  11.641  11.173  0.1197  0.2779  0.0162
23923W        W39997   7.082   7.134  14.881 -0.3534  0.0096 -0.1963
23924W        W39998   1.162   3.874  12.250  0.3007 -0.0856  0.3159
23925W        W39999   6.047   9.095   3.822  0.0260  0.1228 -0.0058
23926W        W40000   3.466   2.136  11.076  0.3143  0.0375  0.2502
23927W        W40001  12.148  11.708  14.937 -0.0111 -0.0759  0.1188
23928W        W40002  11.585  16.256   1.265  0.0276  0.1462 -0.4928
23929W        W40003   1.040   6.443  14.769 -0.0249  0.3594  0.1267
23930W        W40004  16.869  16.634   4.223 -0.0482  0.0568 -0.0253
23931W        W40005   1.630   9.350  13.920  0.2833 -0.0519  0.0731
23932W        W40006   0.977   3.372   5.557 -0.1783  0.2918  0.0903
23933W        W40007   0.115  10.804   2.452 -0.2444  0.1890  0.2796
23934W        W40008   5.917   4.142   5.165  0.4073 -0.4759  0.0130
23935W        W40009   2.058   1.917  10.274  0.0512 -0.0443 -0.0657
23936W        W40010  10.260   7.954   0.645 -0.2411  0.0273 -0.1367
23937W        W40011   8.511   3.731   2.422 -0.1591 -0.1948 -0.0394
23938W        W40012   5.778  13.689  13.073 -0.1353  0.4424  0.1387
23939W        W40013   9.965   1.297  10.631  0.4003  0.0654  0.3374
23940W        W40014  16.559  14.554   3.750  0.2262  0.1378 -0.3876
23941W        W40015   9.743  17.206   0.699 -0.0841 -0.1641  0.1866
23942W        W40016  15.408  10.701   4.853 -0.0243 -0.2630 -0.2044
23943W        W40017   8.485   7.896   5.123 -0.1039 -0.2462  0.2348
23944W        W40018   3.407  12.978  10.710 -0.0985  0.0774  0.1826
23945W        W40019   4.789   6.535   1.062 -0.0985  0.1467  0.1206
23946W        W40020  11.074   8.248   3.333  0.1306  0.4229  0.0879
23947W        W40021   1.682  15.863  13.499 -0.0096 -0.0893 -0.3097
23948W        W40022   7.756   7.385   5.303 -0.0021  0.1319  0.1195
23949W        W40023   4.232   2.162   2.722  0.2112 -0.0374  0.2644
23950W        W40024   3.742   1.186  12.807 -0.0914 -0.1525  0.0862
23951W        W40025   1.743   4.692   1.046 -0.1918 -0.0027 -0.0342
23952W        W40026   5.447   9.452  13.765  0.1793 -0.2966  0.0638
23953W        W40027  15.804   0.956   2.188  0.0676  0.4949  0.1865
23954W        W40028  11.165   4.327  10.948 -0.0790  0.0888 -0.0284
23955W        W40029   3.658   0.710   4.677 -0.2666 -0.0289 -0.0834
23956W        W40030  15.505   3.996   0.063  0.1816  0.1452  0.0852
23957W        W40031   5.377  16.888   2.996 -0.1806 -0.0853  0.1221
23958W        W40032  16.533  18.524   2.544  0.0286  0.3797  0.1837
23959W        W40033   6.131   1.674   3.088 -0.0323  0.3785  0.1848
23960W        W40034  19.167  13.999  11.489 -0.2433 -0.1415  0.0011
23961W        W40035  18.112  18.718   0.086  0.0431 -0.0921  0.1453
23962W        W40036  10.317  13.299   2.546  0.2539 -0.4034  0.0286
23963W        W40037   8.046  12.186  14.449 -0.1157  0.2947  0.0418
23964W        W40038  13.057  13.948  10.949 -0.0138  0.3011 -0.1123
23965W        W40039   2.280   2.785   1.638  0.2874  0.1853 -0.1259
23966W        W40040   2.420   0.913   0.994 -0.0805  0.2178  0.0902
23967W        W40041   3.291  11.565   0.294  0.0356  0.0059  0.2020
23968W        W40042  15.752   6.933  13.391 -0.2908 -0.0468 -0.2637
23969W        W40043  15.945   4.439   0.940  0.3040 -0.1147 -0.1567
23970W        W40044  16.017  12.265  10.115  0.0426  0.1418  0.1780
23971W        W40045   1.616  11.766   3.480 -0.2430 -0.1698  0.0543
23972W        W40046   9.215   5.297   4.662 -0.0434 -0.3896  0.2059
23973W        W40047  10.282   6.347  12.954  0.4705 -0.0810 -0.2129
23974W        W40048  12.946   2.040   0.732 -0.1945  0.2117  0.0260
23975W        W40049   0.317  12.325  11.323 -0.2009 -0.2934  0.3408
23976W        W40050   4.207  15.533   1.381 -0.3146  0.0038  0.3916
23977W        W40051   2.695   0.943  11.451 -0.0359 -0.0098 -0.2555
23978W        W40052  10.195  16.351  11.939  0.3503 -0.1172 -0.0275
23979W        W40053  18.773   4.959  15.010  0.0127 -0.0448  0.0381
23980W        W40054  15.060   8.956   1.509  0.5998  0.2518 -0.2981
23981W        W40055  18.787  18.853  13.514 -0.1036  0.2170 -0.0118
23982W        W40056   3.615  10.529  11.566 -0.1999 -0.0482 -0.2003
23983W        W40057   7.441   2.747  14.800  0.1402  0.0209 -0.2086
23984W        W40058   5.802  16.650   1.407  0.0288 -0.2613  0.2315
23985W        W40059   6.909   9.852   1.757  0.2949  0.3098  0.2180
23986W        W40060  15.807   4.113   0.589  0.0543 -0.1092 -0.2005
23987W        W40061  14.286   9.460   3.102  0.0100 -0.1045 -0.2152
23988W        W40062   6.414  14.548  14.240 -0.2946  0.0676 -0.1193
23989W        W40063  17.796  15.686   4.279  0.0252  0.4373 -0.3093
23990W        W40064  16.991   8.689  14.593  0.2462 -0.2065 -0.2121
23991W        W40065  12.316  17.235   1.931 -0.1053 -0.2475  0.1926
23992W        W40066   7.324  11.084   2.949 -0.1059 -0.0364  0.1940
23993W        W40067  12.089   0.033   2.585 -0.2518  0.0822 -0.0324
23994W        W40068   2.569   8.595  13.511  0.0694 -0.0896  0.0552
23995W        W40069  14.676  14.023  11.751 -0.0013  0.2428 -0.1549
23996W        W40070  10.014   7.060  14.937 -0.5101  0.1070 -0.0959
23997W        W40071   0.510   1.793   0.527  0.1360  0.4746 -0.1330
23998W        W40072  12.109   4.723   0.260  0.2872  0.2148  0.5233
23999W        W40073   0.261  18.368   3.514 -0.5377  0.1299  0.0638
24000W        W40074  11.557  10.202   3.530 -0.2853 -0.0094  0.3082
24001W        W40075  10.907  16.346  14.617  0.0094 -0.0854  0.1125
24002W        W40076  16.592  16.546  11.276  0.1264 -0.2856 -0.1336
24003W        W40077  19.025   5.838   1.603 -0.0367  0.0849  0.2164
24004W        W40078   4.168  17.687   2.855 -0.1198 -0.3256 -0.2285
24005W        W40079   2.815  18.460  10.856  0.1137 -0.2342 -0.5210
24006W        W40080  16.405  17.471   2.142  0.2158  0.1545  0.0044
24007W        W40081   2.101  12.167  13.607  0.0906  0.2158 -0.2040
24008W        W40082  17.735  17.936   4.101  0.1098  0.1597 -0.1795
24009W        W40083  13.660  11.087  12.979 -0.1350 -0.3317  0.0894
24010W        W40084   2.344  18.349  10.869 -0.3348  0.0059  0.0460
24011W        W40085   0.373   0.280   1.028 -0.1658  0.1152 -0.3189
24012W        W40086  18.051  10.621  12.561 -0.3884  0.1134  0.1965
24013W        W40087   8.248  15.203  12.357 -0.0946  0.3969  0.1538
24014W        W40088  11.356   8.854  12.323  0.0180  0.0134 -0.0375
24015W        W40089  11.035  15.828   0.587 -0.0799 -0.1750 -0.1108
24016W        W40090   0.545   5.457   2.056 -0.0615  0.1810  0.3129
24017W        W40091   7.939  14.895  11.946 -0.1403  0.1971 -0.0373
24018W        W40092   8.539  11.354   5.238  0.2273  0.2040 -0.1334
24019W        W40093  19.238   5.767   2.906  0.0203  0.2896 -0.0327
24020W        W40094  17.468   8.124   1.474 -0.0947 -0.0475  0.0215
24021W        W40095  18.686   6.463   1.662  0.1311 -0.0338  0.2432
24022W        W40096   5.125   6.003  13.035  0.0851  0.0924 -0.4379
24023W        W40097  14.223  19.082  10.597  0.2095 -0.0952 -0.2561
24024W        W40098  16.836  11.693   0.956  0.1421 -0.0398  0.1377
24025W        W40099  10.334  17.962  14.719 -0.1264  0.2069  0.0804
24026W        W40100   3.975   9.267   4.532 -0.0536  0.0607  0.0020
24027W        W40101   1.557   5.689  11.629 -0.1233 -0.0025  0.3861
24028W        W40102   8.600  16.768  14.420 -0.2300  0.5728  0.1833
24029W        W40103  17.574   9.273   1.365  0.0106 -0.2341  0.3674
24030W        W40104  15.341  18.057  10.003  0.0197  0.0163  0.0003
24031W        W40105   9.943  16.535   0.815  0.1486 -0.0087  0.2045
24032W        W40106  10.162  10.442   1.885 -0.0530  0.1760  0.0432
24033W        W40107  14.727  12.886  11.910 -0.0827  0.4713  0.1551
24034W        W40108  16.869  14.143   3.388 -0.2825  0.0242 -0.0288
24035W        W40109   5.487   1.681   2.481 -0.1949 -0.1425 -0.0321
24036W        W40110  12.735   2.916   0.633 -0.0302 -0.1306  0.1152
24037W        W40111  11.463   9.721   3.077  0.1506 -0.4341  0.0591
24038W        W40112   2.098  11.666  13.776  0.0031 -0.1188  0.1899
24039W        W40113   8.325  10.700   2.359  0.3953  0.2794 -0.0590
24040W        W40114   0.140   4.372  10.600 -0.0726  0.2774  0.1457
24041W        W40115  10.828   1.978   3.698 -0.2454 -0.0553  0.0370
24042W        W40116   8.509  12.280  11.299 -0.0320  0.0477 -0.1351
24043W        W40117  18.658   0.968   4.206  0.0861 -0.0543  0.0224
24044W        W40118  11.627   6.478   0.428  0.1608 -0.0935  0.1280
24045W        W40119  11.829   4.294   2.142  0.0619  0.2320  0.0658
24046W        W40120   0.682   4.380   3.757  0.2693  0.0785  0.2934
24047W        W40121  14.284   7.561  13.347  0.1497  0.1966 -0.1779
24048W        W40122  10.656  17.113   3.675 -0.2419 -0.0788  0.2232
24049W        W40123  11.557   6.337   9.535 -0.1088  0.0893  0.0276
24050W        W40124   6.641   3.083   2.114 -0.1350  0.0264  0.0823
24051W        W40125  13.856   7.422   4.528  0.2891  0.0742 -0.2282
24052W        W40126   7.223   7.230   0.554  0.0464  0.2076 -0.2495
24053W        W40127  16.045  18.750  11.672 -0.3354 -0.0902 -0.1264
24054W        W40128   1.268   5.160   3.461  0.1749 -0.1183 -0.1871
24055W        W40129   6.241   4.940   5.168  0.0428  0.2568  0.3002
24056W        W40130  17.340   0.752  13.292  0.2003 -0.0017 -0.0252
24057W        W40131  11.294   3.480  13.634  0.2998 -0.0454  0.0364
24058W        W40132  13.929  18.675  12.196  0.0937 -0.0705 -0.1206
24059W        W40133   9.980  18.075  10.910 -0.1482 -0.1946 -0.0872
24060W        W40134   1.414   1.435   4.849  0.0678 -0.0525  0.1986
24061W        W40135   5.437   6.868  13.739 -0.2197 -0.0793  0.0908
24062W        W40136   1.048   1.746   4.072  0.0352 -0.1470 -0.1882
24063W        W40137   8.915   8.096   4.108 -0.0380  0.0482 -0.3227
24064W        W40138   1.630  17.122  10.357 -0.0985 -0.0732  0.0424
24065W        W40139  18.028  14.903  12.615 -0.1990 -0.3385 -0.1299
24066W        W40140   5.399  14.452   1.514 -0.0996  0.2852 -0.2118
24067W        W40141  19.050   7.651   1.609 -0.1381  0.1503  0.3320
24068W        W40142   4.860  10.917   0.319 -0.0272 -0.1432  0.1915
24069W        W40143  16.621   6.189   0.655 -0.2213  0.1416 -0.2470
24070W        W40144  14.643  10.312   1.150 -0.1027  0.1419  0.0688
24071W        W40145  11.925  14.737   2.832  0.0971 -0.0185 -0.0028
24072W        W40146   1.790   9.090   3.549  0.2299  0.0353  0.0299
24073W        W40147  11.044  14.385   4.583  0.1170 -0.1700 -0.0281
24074W        W40148  11.516  14.830   1.442  0.0680 -0.1736  0.0760
24075W        W40149  13.258   5.105  11.087  0.1394 -0.1071  0.2145
24076W        W40150  15.852   6.096   0.310  0.0456  0.0127 -0.2563
24077W        W40151   1.863   2.738   0.422 -0.7079 -0.2343  0.0085
24078W        W40152  11.357   9.519   6.114  0.2626 -0.1100 -0.3648
24079W        W40153  13.993  17.620  12.191 -0.1507  0.0194  0.0309
24080W        W40154  17.391   7.144   2.233 -0.1178  0.1429  0.3263
24081W        W40155  12.650  12.632  11.784 -0.2135  0.0749  0.1586
24082W        W40156  13.691  13.790   0.646 -0.0520  0.1663  0.1515
24083W        W40157  17.461  11.636   1.648 -0.2785 -0.0729  0.0441
24084W        W40158   0.539   5.362   1.569  0.0076 -0.3271 -0.0587
24085W        W40159   8.574   0.107  13.607  0.1736 -0.1662 -0.0793
24086W        W40160  10.440   1.853   1.231  0.0749 -0.0936  0.2352
24087W        W40161   6.484   0.152  14.093 -0.1212  0.1433  0.2598
24088W        W40162   7.957  16.137   1.856  0.1088 -0.2084  0.1534
24089W        W40163  13.039   1.233  10.613  0.0999  0.0013 -0.1467
24090W        W40164  10.306   4.307   0.013 -0.2143  0.2573  0.0511
24091W        W40165   0.824  15.425   0.053 -0.0474  0.1745  0.0247
24092W        W40166   1.076   4.903  12.430  0.0922 -0.2936  0.2434
24093W        W40167  17.476  11.589  12.805 -0.0859  0.2032  0.2142
24094W        W40168   9.169   9.307  13.434 -0.1215 -0.1229  0.4077
24095W        W40169  14.330   4.170  13.901 -0.2461  0.0202 -0.2429
24096W        W40170   4.413   8.666   5.142  0.0987  0.0187  0.0128
24097W        W40171  10.914  16.896  14.616 -0.0841 -0.2883  0.0777
24098W        W40172  15.594  16.001  15.025 -0.2733  0.1303 -0.2536
24099W        W40173  13.676   8.542   4.002  0.1661  0.0397  0.1927
24100W        W40174  17.723   9.415   9.976  0.2727 -0.1538 -0.2622
24101W        W40175   7.867   5.942  11.598  0.0863 -0.0725 -0.0417
24102W        W40176   9.785   4.043   0.641  0.0587 -0.2312 -0.1027
24103W        W40177  12.571  10.849  11.914  0.0714  0.3307 -0.5013
24104W        W40178   3.243   5.239   0.099  0.0709 -0.6059 -0.1632
24105W        W40179  12.019  17.479   4.093  0.0795  0.0136  0.1751
24106W        W40180   3.569   5.910   2.814  0.0566 -0.1428 -0.2172
24107W        W40181  11.977  11.807  13.017 -0.1840 -0.2091 -0.2531
24108W        W40182  13.529   7.621  11.431 -0.0811 -0.2833 -0.0879
24109W        W40183   1.058   5.598  11.315 -0.1451  0.1224 -0.1238
24110W        W40184   2.948   3.929   1.708 -0.0655  0.0285  0.0644
24111W        W40185  10.793  14.383  14.483  0.1367  0.2051 -0.1306
24112W        W40186  15.163   6.916   1.416  0.1391 -0.1265 -0.1070
24113W        W40187  16.685   6.691   0.373 -0.4129 -0.3126 -0.1780
24114W        W40188  10.809   8.975   4.468 -0.3382 -0.0490  0.2823
24115W        W40189   5.461  11.109  13.344  0.0269  0.2289 -0.0234
24116W        W40190   2.378   5.827   3.517  0.0240  0.1815  0.1137
24117W        W40191  15.875  17.163  14.747 -0.0667  0.1750  0.1275
24118W        W40192   3.243   4.969   4.082 -0.1687 -0.3664 -0.1344
24119W        W40193   0.283  11.703   1.332 -0.0110 -0.0121 -0.1728
24120W        W40194  13.899  16.349  10.891  0.2840 -0.2554  0.0966
24121W        W40195   3.576   9.203   2.589 -0.1403 -0.0942 -0.0950
24122W        W40196   1.290  10.284  10.665  0.3204  0.0675 -0.4389
24123W        W40197   0.422   4.997   1.895  0.1878  0.0016 -0.0897
24124W        W40198   2.596  12.937   3.835  0.0147  0.1330  0.1762
24125W        W40199   4.257  10.725  13.447  0.1800 -0.0716  0.1783
24126W        W40200  10.138  11.850   2.472 -0.4429  0.0193 -0.0587
24127W        W40201  17.873   6.076  14.237  0.3904  0.1498 -0.0238
24128W        W40202   7.992   9.163   1.908  0.2650 -0.0626 -0.1848
24129W        W40203   3.165   4.470   2.550  0.1137  0.1998  0.4597
24130W        W40204  16.588  18.865  13.406 -0.2127  0.4009  0.2088
24131W        W40205   6.072   0.549   1.421  0.1064  0.1111  0.0395
24132W        W40206   6.356  13.239   3.066  0.0130 -0.0122 -0.1410
24133W        W40207   8.169  18.241  10.422 -0.1696  0.1271 -0.0172
24134W        W40208  17.868   8.296   1.102 -0.0713 -0.1711 -0.1390
24135W        W40209   0.732   6.458   3.489  0.1583  0.0692  0.0599
24136W        W40210   0.148  13.208   4.803 -0.2495 -0.0750 -0.2593
24137W        W40211  15.559  15.930  10.328  0.0875 -0.0623 -0.3629
24138W        W40212   0.822   4.634   1.273 -0.0131 -0.3976 -0.0285
24139W        W40213   9.109   5.574  13.975  0.3404 -0.0117 -0.2103
24140W        W40214   2.172  13.778  10.797  0.2132  0.2868  0.0118
24141W        W40215   4.646   6.804   6.067 -0.0327 -0.0926 -0.1430
24142W        W40216   4.792  17.818  14.102 -0.0682  0.2086 -0.0375
24143W        W40217  12.030   1.301   2.809 -0.1731 -0.3747 -0.0101
24144W        W40218   3.584   4.335  12.114 -0.0447  0.1671  0.1748
24145W        W40219   5.406   6.793  12.629 -0.0184 -0.2627 -0.0006
24146W        W40220  18.075   2.645  14.555  0.0399  0.3313 -0.3301
24147W        W40221  17.948  14.818   2.697  0.4890 -0.2370  0.0734
24148W        W40222  16.282   3.083   3.870 -0.2604 -0.3103  0.2305
24149W        W40223   5.327   1.226   1.405  0.2914  0.0777  0.2721
24150W        W40224  18.790  10.717   4.694 -0.0395 -0.1422  0.1121
24151W        W40225   9.114  14.056   4.704  0.1067 -0.0169  0.1836
24152W        W40226  14.164  17.887   1.966  0.0012 -0.0595 -0.3643
24153W        W40227  14.209   8.387  13.305 -0.1303 -0.3435 -0.1646
24154W        W40228   6.602  16.898  14.113  0.1165 -0.0469 -0.0856
24155W        W40229  14.965   3.622   2.979  0.2578  0.3290 -0.3357
24156W        W40230  18.506  17.961   4.954  0.2155  0.0813  0.4442
24157W        W40231  10.784   7.462  12.039 -0.1496 -0.0219  0.0580
24158W        W40232   3.455   4.176  11.317  0.1603 -0.2035  0.0058
24159W        W40233   1.679   1.258   3.901  0.0932  0.0280 -0.2686
24160W        W40234   7.987  17.331  11.994 -0.3535  0.0351 -0.0194
24161W        W40235   7.244  13.798   0.120  0.0351 -0.0688 -0.1017
24162W        W40236  12.884  16.111   9.972  0.1668 -0.2270 -0.0318
24163W        W40237  12.924   3.724  12.741 -0.2523  0.2269 -0.3227
24164W        W40238  13.295  10.037   1.535  0.0103  0.0349 -0.1463
24165W        W40239  15.782   3.586  14.796 -0.0921  0.2769  0.1146
24166W        W40240   4.390   2.003   4.562 -0.1169  0.0712  0.1385
24167W        W40241   2.565  15.250  13.342  0.3567 -0.1279  0.6329
24168W        W40242  10.157  18.575  13.756 -0.1198 -0.0150 -0.1902
24169W        W40243   2.198  18.558  10.447 -0.1640 -0.1852  0.2483
24170W        W40244  12.598  13.693  13.900 -0.1230  0.1195  0.1437
24171W        W40245  16.162   8.755  10.626 -0.0300 -0.1006  0.0861
24172W        W40246  17.873   6.140   1.561  0.0997 -0.1272  0.4241
24173W        W40247   3.189  11.954   0.992  0.0403 -0.3558  0.1261
24174W        W40248  14.460   6.437  10.863 -0.1231  0.1186 -0.1364
24175W        W40249   9.877   6.280   3.811 -0.2675 -0.3588  0.0408
24176W        W40250   1.821  15.294  11.170 -0.0138 -0.0451 -0.1402
24177W        W40251   4.505   9.618  10.967  0.0286 -0.1116 -0.0525
24178W        W40252  16.029   6.729   5.457 -0.5631 -0.0667  0.1845
24179W        W40253   2.556   2.744   2.132  0.1884 -0.1059  0.2404
24180W        W40254  19.198   9.853  13.157  0.1059 -0.0083 -0.0545
24181W        W40255   9.548  10.447   4.807 -0.4923 -0.2989 -0.1156
24182W        W40256   1.328   4.959  11.948 -0.2218  0.2496 -0.1536
24183W        W40257  15.409  11.150   2.090  0.2974 -0.0602 -0.2455
24184W        W40258  18.202   4.442   2.313 -0.0035  0.0768  0.0694
24185W        W40259   2.848   7.093   1.150  0.0176 -0.0916  0.0374
24186W        W40260   7.669  14.687  10.734 -0.0792  0.0479 -0.0722
24187W        W40261   0.093   2.642   0.409 -0.3638 -0.1326  0.1060
24188W        W40262  12.151   2.740  13.042 -0.2486 -0.2127  0.0737
24189W        W40263   2.690  14.674   0.327  0.1878 -0.0850 -0.0299
24190W        W40264  18.519  17.063   1.119 -0.0904  0.0031 -0.0571
24191W        W40265   2.807  18.949   2.712  0.1749  0.1384  0.3889
24192W        W40266   2.007   9.963   3.139 -0.1142 -0.1070 -0.0585
24193W        W40267   2.699   1.133  13.376  0.4186  0.2326 -0.0911
24194W        W40268   6.558   2.723   5.751  0.2417  0.0407  0.1401
24195W        W40269   4.338  14.689   1.403 -0.5151  0.0712 -0.2132
24196W        W40270   5.600  11.278   5.825 -0.2054  0.3762 -0.2478
24197W        W40271   6.171  12.991   3.932  0.0765  0.0260 -0.0447
24198W        W40272   4.146   6.496   0.216  0.0275 -0.0670  0.0726
24199W        W40273   2.083   4.082   2.821 -0.0022  0.0935 -0.1036
24200W        W40274  16.905  13.844   2.714  0.0816 -0.3434 -0.2421
24201W        W40275   9.271   7.473   3.699 -0.2474 -0.2424 -0.0154
24202W        W40276  18.687  14.695   4.352  0.2754 -0.1397 -0.1839
24203W        W40277   5.426  10.108  14.583 -0.2318 -0.1702 -0.0468
24204W        W40278   2.653  15.708   2.578 -0.4562  0.1131 -0.4452
24205W        W40279   2.072  19.072   9.397 -0.3611 -0.0248 -0.1762
24206W        W40280   4.598   9.571  11.576 -0.5696 -0.2705  0.2922
24207W        W40281   4.695   0.905  13.653  0.0477 -0.6060  0.0563
24208W        W40282   5.793   0.339   5.143 -0.0769  0.0847 -0.2498
24209W        W40283  11.617  13.783  12.986  0.0695  0.0545  0.0196
24210W        W40284  15.370   3.650   5.617 -0.5153  0.0822 -0.1719
24211W        W40285  15.291  11.333  14.319  0.4175 -0.0508  0.0190
24212W        W40286   2.281  16.247   1.206 -0.2080  0.3066  0.0292
24213W        W40287   0.757  10.191  10.449 -0.1292 -0.0685 -0.0911
24214W        W40288  10.365  19.027  11.250 -0.1413 -0.0566 -0.3573
24215W        W40289   3.685   1.566   1.498  0.1525  0.3669 -0.0010
24216W        W40290   5.549  14.040   9.628  0.1796 -0.1043 -0.2010
24217W        W40291   1.012  14.693  12.815 -0.4323 -0.0715  0.0859
24218W        W40292   4.515  18.123  10.788  0.0288  0.3640  0.4117
24219W        W40293   9.437   8.512   1.101 -0.4969  0.0057  0.1520
24220W        W40294  14.230  16.757  13.032  0.0303 -0.1032 -0.0247
24221W        W40295   6.835  10.753   4.304 -0.3034  0.1603  0.0732
24222W        W40296  14.849  15.359   5.127 -0.2162 -0.1044 -0.0145
24223W        W40297   6.190  16.609   3.566 -0.0286 -0.2553  0.1641
24224W        W40298   8.437  13.948  12.755  0.2507  0.1320  0.0271
24225W        W40299  10.564   6.395  13.703 -0.0836 -0.0865 -0.3556
24226W        W40300   6.292  12.332   3.112 -0.2310 -0.1614 -0.0285
24227W        W40301  18.025  15.577  11.750  0.0013 -0.3026 -0.1870
24228W        W40302  11.430  14.748   4.676  0.2258 -0.3998 -0.0409
24229W        W40303  15.701  10.151   3.050  0.0766  0.0333  0.1631
24230W        W40304  14.283  10.586  14.061 -0.4105 -0.2348  0.2143
24231W        W40305   0.874   5.731  10.430 -0.0326 -0.0127  0.2410
24232W        W40306   2.809   2.626  13.285 -0.1133 -0.1593  0.1493
24233W        W40307  14.399   5.739   5.055 -0.0410  0.0346 -0.1505
24234W        W40308  16.260  12.472   1.123  0.2995  0.1818 -0.1176
24235W        W40309  18.553   3.568   3.209  0.1972 -0.0516 -0.1422
24236W        W40310  18.248   2.869  11.479  0.2037  0.1728  0.1764
24237W        W40311   2.264  13.900  13.896  0.3813  0.3398  0.3084
24238W        W40312   3.443   1.361   0.986  0.0233  0.1373  0.1542
24239W        W40313  15.829   9.000   3.203 -0.4358 -0.1083 -0.3975
24240W        W40314  17.230  18.689  11.025  0.0953 -0.0938 -0.0823
24241W        W40315  16.079  19.113   3.126  0.1826  0.1805  0.4008
24242W        W40316  10.191  16.046  10.747  0.0937 -0.1261 -0.0977
24243W        W40317   7.588  13.071   4.231  0.0583 -0.1716  0.0508
24244W        W40318   2.299  16.092   0.549 -0.1850 -0.5568 -0.2070
24245W        W40319   1.697   0.387  10.998  0.4158  0.3011  0.2008
24246W        W40320  13.296   8.184  14.631 -0.0343  0.0457 -0.0015
24247W        W40321   4.938   8.118  11.318  0.3441  0.0543  0.3582
24248W        W40322  10.770   5.965   3.626  0.3229 -0.2640  0.1015
24249W        W40323  12.494   0.072  14.567 -0.3052 -0.3007  0.3255
24250W        W40324   3.108   9.178   2.880  0.1316  0.1299 -0.1192
24251W        W40325   8.646   5.940   2.910 -0.0002 -0.0539  0.0308
24252W        W40326   6.508  12.549   0.134  0.0092  0.0233 -0.0947
24253W        W40327   6.186  15.882  10.985 -0.1900  0.0184  0.5306
24254W        W40328   1.490   5.758   0.433 -0.1267 -0.1215 -0.0831
24255W        W40329  11.597   3.668  13.959  0.1981 -0.2585  0.0846
24256W        W40330  11.325   5.225  11.564  0.2068  0.1541  0.0942
24257W        W40331  13.442  17.434   1.105 -0.0529  0.1303  0.0834
24258W        W40332   5.092   6.995  11.029 -0.0303 -0.3736  0.1795
24259W        W40333   2.171   5.012   0.091  0.1225 -0.0903  0.2306
24260W        W40334  17.327   9.799   5.152  0.0477 -0.1051  0.2301
24261W        W40335   8.743  18.514   3.649  0.0030 -0.0454  0.1315
24262W        W40336   6.824  12.131   5.218 -0.3140 -0.0544 -0.0146
24263W        W40337  15.668   6.499   0.631  0.0266  0.1080 -0.0537
24264W        W40338   9.478  14.102   1.143  0.1544 -0.2559  0.1343
24265W        W40339   6.207  17.197  14.277  0.1304  0.0277 -0.2351
24266W        W40340   2.584   6.803   5.374 -0.0985 -0.0675 -0.2284
24267W        W40341   2.819  17.004  14.020  0.1543  0.0342  0.1212
24268W        W40342   3.784  15.210   1.272  0.2035  0.0859 -0.2827
24269W        W40343  11.311   7.243   2.250 -0.3065  0.1711 -0.2630
24270W        W40344  11.534   0.717   4.308 -0.0029 -0.1258  0.1477
24271W        W40345  18.947   9.178   1.375 -0.0485  0.2398  0.0827
24272W        W40346   3.653   3.955  10.433  0.4787 -0.5646  0.0200
24273W        W40347  13.942  14.407   3.097  0.0408 -0.2038 -0.1768
24274W        W40348  12.333   6.841  13.235 -0.0322  0.0258 -0.1884
24275W        W40349  16.591  15.972   2.956 -0.2087  0.0967  0.0465
24276W        W40350   6.839   5.484  13.204 -0.0530 -0.0567 -0.1234
24277W        W40351   4.576  16.436  14.462 -0.1348  0.0841  0.2327
24278W        W40352   6.674   7.550  14.804  0.1121  0.0942  0.0424
24279W        W40353   4.395   3.040  13.561  0.3272 -0.3778 -0.0195
24280W        W40354  13.863  12.891   2.276  0.2261  0.4047  0.1480
24281W        W40355  15.019  15.647   2.724  0.0046  0.2109  0.0675
24282W        W40356   4.142   5.876   5.974 -0.0468  0.2605  0.1705
24283W        W40357  12.981  10.877  11.628 -0.0786 -0.0620  0.1878
24284W        W40358  18.572  16.137  13.026  0.1579  0.5101  0.0948
24285W        W40359   2.367   3.298  12.178 -0.1473  0.3334 -0.1438
24286W        W40360  14.288   8.039   0.779 -0.0729  0.3664  0.2255
24287W        W40361  10.719  12.488   4.780 -0.0797 -0.4367  0.2648
24288W        W40362  11.070   6.751   1.551  0.2242 -0.0253  0.3197
24289W        W40363  15.861  12.730   0.765  0.0809  0.1122  0.1601
24290W        W40364  18.513   8.790  13.805  0.0334 -0.0385  0.2354
24291W        W40365  17.502   0.041   5.059 -0.2171  0.3224 -0.0021
24292W        W40366  17.110  15.427   9.990 -0.3190  0.4992 -0.0433
24293W        W40367   9.981   0.551   2.624  0.0748 -0.0819  0.3007
24294W        W40368  19.171  11.662   2.447  0.0253 -0.1615 -0.1480
24295W        W40369   9.910   8.901   0.868  0.0031  0.1531 -0.1143
24296W        W40370   5.848   9.962  11.809 -0.0739 -0.0049  0.0657
24297W        W40371  10.267   8.296  10.917 -0.3978 -0.4048 -0.2210
24298W        W40372  10.334  13.071  14.966  0.0381  0.1071  0.0963
24299W        W40373   4.911  15.496   4.681  0.1845  0.1784 -0.1946
24300W        W40374  12.604  10.050   3.600  0.2501 -0.2206 -0.0114
24301W        W40375   0.607  11.575   4.222  0.0816 -0.3397 -0.2349
24302W        W40376   5.305   9.492  11.701  0.0569  0.1441  0.1148
24303W        W40377   6.735   8.981   1.756 -0.2187 -0.1904 -0.2842
24304W        W40378  15.073  12.922  13.302 -0.0887  0.1642 -0.0277
24305W        W40379   8.620   8.104  11.724 -0.0513  0.2639  0.0847
24306W        W40380  13.082   8.454  13.656 -0.1384  0.1331 -0.0886
24307W        W40381  10.705   4.146  14.099 -0.1284  0.1143 -0.3157
24308W        W40382  17.552  14.106   3.530  0.0708 -0.3881  0.2236
24309W        W40383   5.359   1.252   4.935 -0.0022 -0.3705 -0.0219
24310W        W40384  18.857  11.102   3.776  0.1251  0.0622 -0.3082
24311W        W40385   8.956   6.522   2.301  0.2183 -0.3471  0.1362
24312W        W40386  17.680  16.161   1.934 -0.1511  0.0151 -0.0552
24313W        W40387  16.775   0.740  13.302 -0.0074  0.1513  0.1104
24314W        W40388   0.384   4.925  12.499 -0.1818 -0.1010  0.2175
24315W        W40389  16.366  10.469   9.127  0.0622  0.1121  0.1316
24316W        W40390   3.928  18.192  14.564 -0.2105 -0.1776  0.0681
24317W        W40391   8.107  18.350  11.849  0.2864 -0.0899 -0.2262
24318W        W40392   7.344  14.535   4.173  0.1787  0.0147 -0.0283
24319W        W40393  12.468  12.779   3.547 -0.1772  0.2267 -0.2161
24320W        W40394  18.650   8.863  12.862  0.1104  0.0364 -0.0019
24321W        W40395  18.331  11.032   4.600 -0.1704 -0.0184 -0.1182
24322W        W40396   6.739  15.224  11.355 -0.1297 -0.1233 -0.2252
24323W        W40397   9.233  17.156  13.831 -0.0621 -0.2218  0.0410
24324W        W40398   6.097   0.371   0.563 -0.1387  0.2644 -0.1341
24325W        W40399   2.783  15.524  12.842  0.0099 -0.1864 -0.1051
24326W        W40400   9.218   2.336  14.118 -0.1430  0.2837  0.1169
24327W        W40401  16.229   9.413   4.702 -0.2393 -0.3083  0.1049
24328W        W40402   3.024  14.352  13.640 -0.0862 -0.0312 -0.0731
24329W        W40403   8.801   2.569  13.574 -0.2180  0.4110 -0.1480
24330W        W40404   5.407   6.172  11.629  0.0422  0.0887  0.1013
24331W        W40405   7.884  13.049   0.650 -0.0741  0.1590  0.1461
24332W        W40406   8.360   7.186  10.352 -0.3385 -0.2166  0.2854
24333W        W40407   6.251  16.230   0.776  0.0823  0.1390  0.0340
24334W        W40408  16.444   9.756   1.987 -0.0886 -0.2570  0.0661
24335W        W40409   1.470  18.219   2.801  0.0721 -0.0174  0.1079
24336W        W40410   3.861   6.607   1.346 -0.2302  0.0053  0.2909
24337W        W40411  12.261  17.913  11.555 -0.0401 -0.0371  0.0714
24338W        W40412   0.761  14.473   0.097 -0.1405 -0.0572 -0.1335
24339W        W40413  14.363   9.963   0.289 -0.2379  0.1494  0.0709
24340W        W40414   2.629  17.993   5.507  0.2067  0.0135 -0.2367
24341W        W40415   3.943   6.033   3.305 -0.0032  0.3017 -0.0112
24342W        W40416   9.112   4.094   5.326 -0.1029 -0.0898 -0.0923
24343W        W40417  10.934  17.314  11.804 -0.2159  0.1402  0.0887
24344W        W40418  19.009  14.417  11.303  0.3071 -0.0311 -0.5080
24345W        W40419   1.089  13.897   4.056  0.0724  0.2055 -0.3742
24346W        W40420  10.336  14.654  14.663 -0.1881 -0.1413  0.1728
24347W        W40421  17.128  13.388  10.936 -0.0779 -0.2059 -0.0800
24348W        W40422  13.828   6.848  13.279  0.0800  0.0418 -0.1643
24349W        W40423   7.381   7.293   5.956  0.4358 -0.0945 -0.1747
24350W        W40424   1.742  18.902  11.903  0.1105 -0.2628 -0.0503
24351W        W40425  18.047  12.432  10.638  0.2057 -0.2407  0.0439
24352W        W40426   1.575  12.899   3.039  0.2257 -0.1628 -0.1700
24353W        W40427   0.192  19.192  12.853 -0.1713 -0.1642 -0.2057
24354W        W40428   6.695   6.466   5.286 -0.1074 -0.2944  0.1165
24355W        W40429  12.277  12.472   3.077  0.1269 -0.1379 -0.1477
24356W        W40430  13.349   9.320  11.522 -0.3047  0.4894  0.1106
24357W        W40431  14.305  13.332  14.199  0.0338  0.1027 -0.0755
24358W        W40432   5.475   9.094   3.705  0.1195 -0.0436  0.1393
24359W        W40433   3.485  15.189   0.479  0.2509  0.0037  0.5394
24360W        W40434   0.177  14.170  13.078  0.3360 -0.0295 -0.2121
24361W        W40435   3.310  17.283  13.339 -0.1374 -0.0316 -0.1692
24362W        W40436  16.442  14.224  12.225  0.2806 -0.2244 -0.4858
24363W        W40437   8.177  15.502   4.049  0.0852  0.2570 -0.1292
24364W        W40438  16.150   9.798  10.954 -0.4387  0.1872  0.1124
24365W        W40439  18.063  11.064  11.024  0.2096 -0.1653  0.0767
24366W        W40440  18.380   3.999  12.584 -0.3211 -0.1585 -0.3695
24367W        W40441   0.738   2.438   4.490  0.2439 -0.1565 -0.1550
24368W        W40442  13.753  13.425   3.379  0.1960  0.3093  0.1451
24369W        W40443   2.341   1.784   0.512  0.1223 -0.0854 -0.2634
24370W        W40444  10.739   8.716   0.362 -0.0070  0.3767 -0.2376
24371W        W40445   9.785  17.147   0.188  0.1408  0.0029  0.1040
24372W        W40446  18.894   2.539  12.723  0.0020  0.0836  0.1068
24373W        W40447   3.193   7.058   3.342  0.2438 -0.1330 -0.1883
24374W        W40448   8.092   5.397  10.357 -0.1633  0.2116  0.0446
24375W        W40449   0.713   6.832  13.050 -0.2055  0.0500  0.0705
24376W        W40450  16.193   0.886   0.748  0.0554  0.1884  0.1065
24377W        W40451   9.658  18.929   1.649 -0.2703 -0.1872  0.2099
24378W        W40452   3.834  10.492  13.734  0.0992 -0.0028 -0.1534
24379W        W40453  11.724  12.187  12.762 -0.3297 -0.1128  0.0612
24380W        W40454   1.275  17.056  14.462 -0.0593 -0.2217 -0.0450
24381W        W40455  11.962   0.654   1.300 -0.2015 -0.0351  0.1056
24382W        W40456  16.887  12.902   0.153  0.0270 -0.2829  0.0779
24383W        W40457  11.364  16.890  12.776 -0.0985 -0.0350 -0.1826
24384W        W40458   9.563   5.612   4.922 -0.1442  0.1368  0.1767
24385W        W40459   0.850  16.866   0.600  0.0388  0.0898 -0.1413
24386W        W40460   0.065  18.261  13.247 -0.0928 -0.2570  0.0890
24387W        W40461  14.587  17.738  12.093  0.1679 -0.0556  0.2880
24388W        W40462  18.389  13.539   9.321  0.0084  0.1853 -0.1971
24389W        W40463  14.780  11.315   9.540 -0.3412 -0.0394 -0.1759
24390W        W40464   8.791  17.467   3.106 -0.1809 -0.0569  0.3149
24391W        W40465   1.877   7.982   1.320 -0.0473 -0.0447  0.3669
24392W        W40466  14.197  17.595   4.241 -0.1616  0.0099  0.4729
24393W        W40467  10.651  10.772  12.823 -0.1764  0.0177 -0.2052
24394W        W40468   6.536   3.874  13.344 -0.0489 -0.4546  0.0734
24395W        W40469   2.544   1.922  11.896  0.0336  0.2008  0.1494
24396W        W40470   4.525   1.833   3.972 -0.1905 -0.2004 -0.1986
24397W        W40471   7.098  16.999   4.922 -0.1417 -0.0407  0.0004
24398W        W40472   6.500   9.212   5.354 -0.0879 -0.1591 -0.1648
24399W        W40473   9.673   8.041   1.839  0.2939  0.1431  0.1782
24400W        W40474  12.861   9.524  14.801 -0.1683 -0.0109 -0.0038
24401W        W40475   6.968  16.121  11.547  0.1226 -0.1540  0.0498
24402W        W40476   0.282   2.544   0.872  0.0799 -0.1885 -0.2286
24403W        W40477  14.655   3.208   4.719  0.1036  0.2188  0.1884
24404W        W40478  13.500  15.667  10.518  0.1678  0.0694  0.2539
24405W        W40479   4.147   4.910  12.735  0.2432  0.0813  0.1249
24406W        W40480   2.587   9.894  10.616  0.1225  0.0956 -0.0131
24407W        W40481  13.913  13.305   4.304  0.2299  0.2468  0.2556
24408W        W40482  12.884   3.167  12.988 -0.0209  0.2444  0.0286
24409W        W40483  17.759  14.504  10.904  0.0868 -0.0016 -0.2338
24410W        W40484   9.809   4.807   2.342 -0.0701  0.0862 -0.2861
24411W        W40485  12.244  15.955  11.623 -0.0276 -0.4448  0.4746
24412W        W40486   6.711   9.963   4.658 -0.0412  0.0046  0.2229
24413W        W40487  10.058  12.203   1.593  0.1498  0.1894  0.0251
24414W        W40488  18.234  10.110   3.302 -0.0671 -0.7692 -0.4700
24415W        W40489   4.009  13.130   2.193  0.2244  0.1911 -0.5430
24416W        W40490   2.148   7.467  11.579 -0.2304  0.0187  0.2717
24417W        W40491  11.264   1.305  10.633 -0.1610  0.1787 -0.0286
24418W        W40492  10.636   2.890  11.260 -0.1714  0.2368  0.1868
24419W        W40493  16.912  16.720   9.947  0.0523  0.2441 -0.1340
24420W        W40494   8.930   6.237   1.933  0.3556 -0.0318  0.1240
24421W        W40495  17.650  12.826  11.935 -0.0864 -0.0936 -0.1793
24422W        W40496  13.406   6.178   3.511  0.2208 -0.2683 -0.2395
24423W        W40497  11.047  11.933  13.187 -0.1488 -0.0944  0.0110
24424W        W40498   0.173  15.801  12.088  0.2328  0.0060 -0.1360
24425W        W40499  11.997  11.094   5.510 -0.1108  0.0917 -0.2343
24426W        W40500  16.529  18.966   2.262 -0.4048 -0.0413  0.0191
24427W        W40501   7.788  14.774  13.779 -0.2544  0.0379 -0.1214
24428W        W40502  14.241   7.250  14.658 -0.1067 -0.0262  0.1204
24429W        W40503   7.496   5.982  12.475  0.1092  0.2503  0.1741
24430W        W40504  18.502  17.829  15.012  0.2156 -0.2089  0.1550
24431W        W40505  15.003   3.166  14.384  0.0799  0.1862 -0.1317
24432W        W40506   2.136   0.817   4.944 -0.2961  0.3326  0.1919
24433W        W40507  17.900   9.288   3.323 -0.2805  0.2551 -0.3004
24434W        W40508  12.307   8.060   2.936 -0.2922  0.3075 -0.1055
24435W        W40509  16.058  14.158  11.764 -0.0453 -0.2379 -0.1755
24436W        W40510  10.635  18.464  12.635 -0.0501 -0.1908 -0.0903
24437W        W40511  12.986   3.959  13.701 -0.1452  0.1040  0.0607
24438W        W40512  17.304   8.432   1.128 -0.0028  0.2832  0.0207
24439W        W40513   4.026   3.786  12.987  0.1622 -0.0958  0.4721
24440W        W40514   8.716   6.622  14.667  0.1658 -0.0762  0.0683
24441W        W40515  13.288   8.228  13.069  0.1016  0.0183 -0.1856
24442W        W40516   1.616   2.081   2.768  0.1479 -0.1495 -0.2961
24443W        W40517   4.691   6.445  13.711  0.3154 -0.0352 -0.0855
24444W        W40518  16.740  10.273  14.217  0.1146 -0.0531 -0.0846
24445W        W40519  19.163   2.144   2.194  0.1726 -0.1187  0.2125
24446W        W40520   2.399   5.435   4.222  0.1861 -0.1657 -0.1452
24447W        W40521  10.475  12.513  13.569  0.2345 -0.2521  0.1805
24448W        W40522   7.098   5.455  11.772 -0.1585 -0.2460 -0.0115
24449W        W40523   3.287  18.588   3.471  0.5893 -0.1608  0.1591
24450W        W40524  13.482  11.846   2.675 -0.4307  0.0713  0.0853
24451W        W40525   1.621   5.076   5.491 -0.2708  0.0733 -0.1830
24452W        W40526   5.048   9.956  11.893 -0.1042  0.0094 -0.2222
24453W        W40527  13.981   5.912   3.380  0.1361  0.3897  0.1616
24454W        W40528  10.721  12.350   3.139  0.0842 -0.0555 -0.2280
24455W        W40529  11.878   9.692  11.423  0.2961 -0.2449 -0.1562
24456W        W40530   8.357   0.846   4.728  0.3107 -0.1013 -0.0661
24457W        W40531  14.565   1.007  13.888 -0.0693  0.3229  0.2511
24458W        W40532   5.116   7.452   3.838  0.1567  0.1311 -0.0137
24459W        W40533   8.625   8.939   3.169 -0.4899  0.0569  0.0712
24460W        W40534   1.366   0.223  14.637 -0.0484  0.2552  0.1059
24461W        W40535   6.194  14.400  10.070 -0.0960 -0.1065  0.0425
24462W        W40536  12.893  13.141   3.922  0.0257 -0.1900 -0.2910
24463W        W40537   2.593  10.247  14.202 -0.0707 -0.2446 -0.1611
24464W        W40538   6.165   0.747   5.015 -0.2373  0.5743  0.0865
24465W        W40539  14.907   4.562  11.189  0.0435  0.4575  0.1256
24466W        W40540  13.949  14.344  11.174  0.2434 -0.5141 -0.3257
24467W        W40541   5.880   9.160   4.385  0.0648  0.1832 -0.2024
24468W        W40542   4.143   4.454  13.566  0.1031 -0.2010 -0.2799
24469W        W40543  15.114   0.106   3.470  0.0334  0.0747  0.0058
24470W        W40544  13.582   4.148  11.254 -0.2825  0.2267 -0.0402
24471W        W40545   5.674  11.544   1.714 -0.4183 -0.4896 -0.0397
24472W        W40546  11.740  14.708  11.327  0.1557  0.1506 -0.1950
24473W        W40547   2.953  12.536   2.548 -0.4074 -0.0044 -0.1498
24474W        W40548   0.335  17.481  10.002  0.1776 -0.1465  0.0172
24475W        W40549   7.456  13.437  10.634  0.3711 -0.1868  0.1752
24476W        W40550  15.056  18.972   9.191  0.0032  0.0079 -0.1804
24477W        W40551  15.206  15.825   0.430 -0.1669 -0.0499 -0.0998
24478W        W40552  18.718  14.850   2.509  0.3667  0.0331 -0.3246
24479W        W40553  10.934   2.155   2.841  0.1430 -0.0562 -0.2441
24480W        W40554   2.038   9.273   4.854  0.0752 -0.2141  0.2679
24481W        W40555   1.333   9.095   3.807  0.1316 -0.1316  0.0521
24482W        W40556  12.437   0.849   1.617  0.1661 -0.0186 -0.1629
24483W        W40557   3.249   4.982  12.813 -0.1929 -0.2381  0.1646
24484W        W40558   0.930  16.487   1.276 -0.2811  0.2420 -0.2231
24485W        W40559   5.498   9.399   5.324 -0.1165  0.0337  0.1388
24486W        W40560  11.657  19.196  11.250 -0.1681  0.2296 -0.2492
24487W        W40561  11.393  10.735   3.807  0.2780 -0.1021  0.0654
24488W        W40562  14.608  17.877   4.224  0.1946  0.3157  0.3403
24489W        W40563   6.915   4.596  11.587 -0.0319  0.0949 -0.1842
24490W        W40564   3.040  17.768   3.747 -0.0521 -0.1200  0.1210
24491W        W40565  13.884  18.970   4.022  0.0364  0.0329  0.0509
24492W        W40566  16.936  10.790   5.175  0.1541  0.0969  0.0442
24493W        W40567   7.367  19.253  12.083  0.0794  0.3098 -0.2561
24494W        W40568  10.795   2.939  14.298 -0.1120 -0.1552 -0.1612
24495W        W40569  16.274  15.671   4.489  0.0208  0.1783  0.2353
24496W        W40570   9.896   5.257  13.384  0.0928  0.0999  0.2859
24497W        W40571   2.123   0.723  13.965  0.0370  0.4373  0.1341
24498W        W40572  16.784   3.895  13.305  0.1600 -0.2085 -0.0481
24499W        W40573   5.119  17.456   3.490 -0.1018  0.2577  0.2723
24500W        W40574   0.169   9.539  14.452  0.2050  0.2782 -0.3484
24501W        W40575  17.019  10.770  14.175  0.3097 -0.3432 -0.0944
24502W        W40576  14.606  16.430   2.670 -0.3968  0.0854 -0.0432
24503W        W40577  17.558   1.861  12.625 -0.0629 -0.2171  0.0489
24504W        W40578   0.866   8.708   1.476  0.2104 -0.0440  0.0682
24505W        W40579  10.359   7.166   4.461  0.1211 -0.0120  0.3863
24506W        W40580   1.978   5.293  13.809  0.2343  0.0951  0.2667
24507W        W40581   5.920   0.958   9.993 -0.1503  0.0933 -0.2827
24508W        W40582  14.519  17.276  10.368  0.2173 -0.0653  0.1795
24509W        W40583   5.982  18.435  14.783  0.1000 -0.0329  0.0986
24510W        W40584   9.671   0.943  12.846 -0.0425  0.0153 -0.3590
24511W        W40585   2.399   9.474  14.417 -0.1546  0.0884  0.3847
24512W        W40586   4.581  14.160   2.341 -0.0076  0.0220  0.0828
24513W        W40587  10.093   3.153  12.399  0.1189  0.0303  0.0610
24514W        W40588  13.761   8.564   4.557 -0.2596 -0.1863  0.0522
24515W        W40589   7.032  16.411  13.851  0.0178 -0.1005  0.0641
24516W        W40590   6.805  17.482   2.778  0.3927 -0.2937 -0.0991
24517W        W40591  16.346  10.761  14.763 -0.2654 -0.3102 -0.1949
24518W        W40592   9.497   7.545   0.325 -0.1905  0.2333  0.0114
24519W        W40593   6.313   4.064   3.713 -0.3119 -0.2251 -0.1204
24520W        W40594  10.215   2.385  11.620  0.0052  0.0580  0.0648
24521W        W40595   6.035   5.218  13.849  0.1655  0.0078 -0.2127
24522W        W40596  16.144   4.423   4.420 -0.2887 -0.0724  0.3581
24523W        W40597  16.471  13.030   5.326  0.1057  0.1592  0.3460
24524W        W40598   8.548  16.714   4.689  0.2253 -0.2435  0.2847
24525W        W40599   0.249   8.148   1.891  0.3041  0.0137 -0.2094
24526W        W40600  18.083   1.604   0.988 -0.0292  0.3657 -0.3263
24527W        W40601   1.528   5.277  12.695  0.1770 -0.0756 -0.0360
24528W        W40602  12.782  16.929   3.315 -0.2616 -0.0374  0.3300
24529W        W40603   3.766   2.539   0.242  0.1993  0.1142 -0.1738
24530W        W40604   6.257   0.561  14.448  0.3171  0.2700  0.2506
24531W        W40605  19.072  12.191   0.741  0.1066  0.0240 -0.2147
24532W        W40606  14.538   9.882   3.220 -0.1628 -0.0251  0.1239
24533W        W40607  19.115   0.378   2.406 -0.1715  0.2064 -0.0701
24534W        W40608   0.100  13.515  11.734 -0.0642 -0.0261 -0.1511
24535W        W40609   9.934  13.267  10.689 -0.0441 -0.1238  0.0216
24536W        W40610   6.733  17.664  15.021 -0.0703  0.2831  0.0089
24537W        W40611  12.109   4.058  14.262  0.1429  0.0588 -0.0724
24538W        W40612  11.770   5.881   3.932  0.0033  0.1387  0.0861
24539W        W40613   0.584  17.898  12.203  0.1478 -0.1606  0.1247
24540W        W40614  17.270   2.420   4.747  0.0577  0.0376  0.0741
24541W        W40615   2.446  10.040  11.709  0.0373  0.0618  0.1168
24542W        W40616  10.103  10.114  12.666 -0.2529  0.1421  0.0204
24543W        W40617  10.961   8.404   4.565  0.2203 -0.3397 -0.0280
24544W        W40618   5.327  19.193  12.520  0.0268 -0.3098  0.0150
24545W        W40619  12.411   1.718  13.559 -0.1068 -0.0499  0.0980
24546W        W40620   3.731   2.313   2.274 -0.3679  0.0375 -0.1236
24547W        W40621   7.375   3.484   5.088 -0.1417  0.0083 -0.0268
24548W        W40622   7.946   7.907   2.054 -0.1313 -0.1905 -0.1795
24549W        W40623   6.103  18.699   1.433 -0.0817 -0.0323 -0.1384
24550W        W40624   5.796   8.034  13.837  0.1225 -0.2751 -0.1450
24551W        W40625   2.828   6.212  13.729  0.3970 -0.2013  0.4405
24552W        W40626  14.553   7.981   1.170  0.2301 -0.2676 -0.1187
24553W        W40627   0.336  10.699   4.200 -0.5219 -0.1006 -0.1347
24554W        W40628  13.074  19.129  13.860 -0.0108  0.3949 -0.1610
24555W        W40629   2.076   9.171   2.013 -0.0072  0.0030  0.2616
24556W        W40630  12.350  11.513   2.393  0.1443 -0.4420 -0.1151
24557W        W40631   2.410   1.370  13.020  0.0667 -0.1815  0.2456
24558W        W40632  15.245   3.165  13.490 -0.2795  0.0647  0.0520
24559W        W40633  14.354   8.444  13.824  0.1527 -0.1564 -0.0130
24560W        W40634  17.499  16.674  11.175 -0.3341  0.0656 -0.0571
24561W        W40635   8.432   8.820   0.707 -0.0704  0.1026  0.2062
24562W        W40636   7.011  13.235  13.637  0.1977 -0.1073 -0.1813
24563W        W40637  15.479  16.918   2.812 -0.1213 -0.0149 -0.0911
24564W        W40638  13.843   3.345  11.731  0.1585  0.1369 -0.0958
24565W        W40639   3.443  15.622   2.689  0.1148 -0.2658  0.0239
24566W        W40640   9.204   3.909  11.345 -0.1271 -0.1686  0.4102
24567W        W40641   8.611   7.220  14.454  0.1659 -0.2791  0.3366
24568W        W40642   6.825  11.045  13.806 -0.3667  0.0773 -0.2112
24569W        W40643   9.094  12.507  11.106 -0.0361  0.1369 -0.2063
24570W        W40644   9.640  15.318  11.617  0.0012 -0.2934  0.0773
24571W        W40645   4.849  16.043   0.104  0.2225  0.1584  0.0411
24572W        W40646   9.605  13.419   6.089  0.1143  0.0794  0.0409
24573W        W40647   4.763   4.385   5.071  0.1115 -0.0882  0.1360
24574W        W40648   1.184  14.881   0.931  0.1156 -0.0464  0.2654
24575W        W40649  11.174  19.172   2.720 -0.1132  0.0975 -0.1923
24576W        W40650  19.010  13.589   3.748 -0.1603  0.2407 -0.2375
24577W        W40651   0.546  15.355  12.283  0.1211  0.3676 -0.0854
24578W        W40652  14.244   3.288   5.010 -0.0386 -0.2864  0.2680
24579W        W40653   7.634  12.706  14.052  0.0131 -0.2267  0.0762
24580W        W40654   6.758  11.419   1.551  0.0990 -0.2258 -0.2597
24581W        W40655  11.766  11.238   5.024  0.0242 -0.0543 -0.0500
24582W        W40656   9.281  12.979  12.033 -0.0521 -0.1929 -0.1420
24583W        W40657  13.136   3.752   4.535 -0.1269  0.1448  0.0932
24584W        W40658  14.802  16.895  11.518 -0.0029 -0.0686 -0.1635
24585W        W40659  15.953   3.089  14.729 -0.2176 -0.1178 -0.2901
24586W        W40660   8.803  10.566   3.033  0.1732 -0.0539 -0.0634
24587W        W40661   9.750  11.537   4.393  0.0890  0.0783  0.2322
24588W        W40662  17.354  10.159  10.564  0.1020 -0.1227  0.0815
24589W        W40663  10.818  13.041  11.202  0.2574  0.0032  0.0736
24590W        W40664   4.596  12.602   1.856  0.0407 -0.0987 -0.1840
24591W        W40665   4.707  16.878   3.808 -0.2086  0.0375 -0.1235
24592W        W40666  19.004   5.456   5.276  0.0725  0.1648  0.3422
24593W        W40667  11.009  17.363   2.206 -0.1323 -0.1844 -0.0616
24594W        W40668  14.183  18.533   0.185  0.1110 -0.0868 -0.2744
24595W        W40669   8.753   4.812   1.835 -0.1363 -0.1501  0.0725
24596W        W40670   0.632  12.109   1.837 -0.2427 -0.0712 -0.2391
24597W        W40671  10.522   8.615   0.925 -0.0841  0.3950  0.1616
24598W        W40672   9.530  14.759   1.045 -0.0414  0.2057 -0.0393
24599W        W40673  13.568  15.149  14.205 -0.0918  0.0353  0.0553
24600W        W40674   2.163  15.276  14.314  0.0769 -0.1700 -0.1557
24601W        W40675   7.049  13.099   6.102  0.3057  0.4141  0.1471
24602W        W40676  11.148   8.834   0.128  0.2446 -0.0716 -0.0431
24603W        W40677   6.717  16.067  13.628 -0.1562 -0.1285 -0.0975
24604W        W40678   1.414   9.826  14.830 -0.1352  0.2315  0.1411
24605W        W40679  14.615  11.713   1.526 -0.0917 -0.0899 -0.4352
24606W        W40680  14.280  19.031  14.494 -0.2546 -0.1473 -0.3851
24607W        W40681  10.916  14.695   0.605 -0.0318  0.6004  0.0373
24608W        W40682   1.160   8.861  13.770 -0.2347 -0.1320  0.3661
24609W        W40683   2.220  18.631   1.271 -0.0864  0.2002 -0.2514
24610W        W40684   3.558  16.691  12.826 -0.1981 -0.2576  0.0944
24611W        W40685  17.999   1.348  10.330  0.1070 -0.2452 -0.2981
24612W        W40686   9.868   2.708  12.499  0.1089 -0.0901  0.0752
24613W        W40687   5.585   3.707   3.182  0.1356 -0.1851 -0.0201
24614W        W40688  15.303   9.908   2.819 -0.1739 -0.1918  0.1896
24615W        W40689  14.237   4.997  13.675  0.0684  0.0174  0.0201
24616W        W40690   0.803   1.705   2.376  0.4683 -0.1833  0.0097
24617W        W40691   1.583  16.993   4.988  0.0053  0.1671  0.1897
24618W        W40692   9.898  16.040   0.999 -0.1357  0.0494  0.0457
24619W        W40693   7.253   8.053   1.009  0.0463 -0.0548 -0.2336
24620W        W40694  14.773   4.826  12.710 -0.3388  0.1065 -0.0105
24621W        W40695   1.107  14.609  14.253  0.0748  0.2151 -0.0747
24622W        W40696   9.636  15.432  10.353  0.2081 -0.3339  0.3558
24623W        W40697   5.035   9.611  12.692 -0.0483 -0.4198 -0.0073
24624W        W40698   9.733  14.717   4.668  0.0159  0.0319  0.4132
24625W        W40699   4.850  15.705  10.394 -0.1474 -0.2113 -0.1251
24626W        W40700   6.170  11.722  13.650 -0.0977  0.1593  0.1472
24627W        W40701   8.127  12.626   3.579 -0.0262 -0.3446 -0.0579
24628W        W40702  10.719   4.320   3.605 -0.0355  0.0822 -0.1029
24629W        W40703  16.767  16.150   3.933  0.1323 -0.3884  0.1088
24630W        W40704   9.204   9.338   3.279  0.0923  0.2762  0.0510
24631W        W40705   8.341  16.333  11.571  0.0267 -0.4869  0.1394
24632W        W40706   7.717  18.843  14.018  0.0352 -0.1836 -0.1085
24633W        W40707  11.089  13.131   4.202  0.3296 -0.4046 -0.5101
24634W        W40708  12.379   7.490   3.766 -0.0040  0.0613 -0.0556
24635W        W40709  13.591  13.586   4.532 -0.1740  0.1684 -0.0870
24636W        W40710  15.960   9.112   1.393  0.1775 -0.0703 -0.0674
24637W        W40711   5.731   4.304  14.285  0.0626 -0.0704  0.1290
24638W        W40712  16.109   1.195   3.523  0.9197  0.0515 -0.2052
24639W        W40713   0.196  13.302  10.349 -0.1744  0.3407 -0.1160
24640W        W40714  18.405   2.879   4.404 -0.1676 -0.5282  0.3439
24641W        W40715   1.218  16.930   5.342 -0.0548 -0.3106 -0.2067
24642W        W40716   9.408   2.978   4.402  0.0550 -0.2819  0.3153
24643W        W40717  16.330   1.366   0.725  0.0990 -0.0505  0.3438
24644W        W40718   9.730   5.191  10.703  0.2354 -0.2098  0.0465
24645W        W40719   6.198  17.545  14.806  0.1757 -0.2010 -0.2459
24646W        W40720   0.630   1.297   3.670  0.0149  0.0692 -0.1445
24647W        W40721  17.017   6.738  11.207 -0.1227  0.0501  0.0211
24648W        W40722  11.251   0.893  12.674 -0.0418 -0.1379  0.0913
24649W        W40723  14.746  14.929   4.314 -0.0405 -0.2390 -0.3247
24650W        W40724  17.302   0.508  11.075 -0.1249 -0.0468  0.0793
24651W        W40725  16.079  10.162   8.869 -0.0239 -0.0070  0.0248
24652W        W40726  14.779   1.648   2.907 -0.4507  0.2412  0.0509
24653W        W40727   1.337  17.404   3.205  0.3630  0.0410  0.1062
24654W        W40728   6.464   7.318  12.781  0.6542  0.2121  0.1294
24655W        W40729  16.018  12.391  11.977 -0.0117  0.0144 -0.3672
24656W        W40730  12.879  11.271   0.298  0.2992 -0.2668 -0.1619
24657W        W40731   7.807  15.547  12.726 -0.1378 -0.0183  0.2176
24658W        W40732   8.067  11.151   5.188  0.1831 -0.0975  0.3036
24659W        W40733  11.749   3.185   1.711 -0.1195 -0.2635  0.1253
24660W        W40734   6.357  16.279  10.672 -0.5062 -0.4937 -0.2552
24661W        W40735   0.409   1.462   2.582 -0.0713  0.3682 -0.0728
24662W        W40736   6.871  14.009   2.910 -0.0356  0.1256  0.0807
24663W        W40737   8.582   9.127  14.032 -0.0493 -0.0927 -0.1893
24664W        W40738   4.566  10.364   1.758  0.1563 -0.1090 -0.0744
24665W        W40739   6.837   4.119   4.755 -0.0005  0.0749 -0.0259
24666W        W40740  13.894  15.594   4.616  0.0948 -0.1515  0.3687
24667W        W40741   4.933   3.352  10.186 -0.0740 -0.1279 -0.0327
24668W        W40742   4.757  15.480  10.995  0.2357 -0.2159 -0.0973
24669W        W40743  13.568  14.952   0.320  0.1641  0.0778  0.0560
24670W        W40744  18.900   6.497  14.943  0.5531  0.4519  0.4172
24671W        W40745   1.558  18.667  12.485  0.0622  0.0302  0.1017
24672W        W40746  11.696  13.728   0.743 -0.2764  0.1364  0.2573
24673W        W40747  12.680   7.311  14.304 -0.1537  0.0088  0.0835
24674W        W40748  14.130   0.143  10.982  0.2086 -0.3613  0.1516
24675W        W40749   3.711  16.845   1.421 -0.1459 -0.3714 -0.0639
24676W        W40750   2.334  15.395   3.968 -0.3983 -0.1082  0.1245
24677W        W40751   1.976   5.260   5.139  0.1602  0.1422 -0.0694
24678W        W40752   7.283  10.266  10.498  0.1436  0.2007 -0.0299
24679W        W40753  15.109  16.159   3.454  0.1221  0.0677 -0.0157
24680W        W40754   6.848  16.504   5.653  0.1818  0.2758  0.2890
24681W        W40755   6.778   7.608  11.533 -0.0007 -0.3648 -0.3128
24682W        W40756   2.711  14.121  13.339  0.2693 -0.1217  0.1113
24683W        W40757  13.448   5.807   1.590  0.1078 -0.0776 -0.3179
24684W        W40758   7.317  10.950   3.871  0.2715 -0.1781 -0.0125
24685W        W40759  15.738  13.500   0.748  0.3123 -0.0107 -0.1567
24686W        W40760   5.539   1.195  14.429  0.1035  0.1170  0.1453
24687W        W40761  12.283  11.108   4.154 -0.1000 -0.0092 -0.1402
24688W        W40762   8.705  14.681   3.002  0.0070 -0.0346 -0.1029
24689W        W40763   7.993  12.151   2.831  0.3330 -0.2682 -0.0166
24690W        W40764   2.762   5.031  10.750 -0.0126  0.0950  0.1286
24691W        W40765  19.238   0.614  12.519  0.1069  0.0110 -0.1511
24692W        W40766   2.793   3.711  12.173 -0.1344 -0.3040 -0.6618
24693W        W40767   4.588  15.907  12.500  0.2513  0.0366  0.3068
24694W        W40768   7.808  14.966   0.845 -0.1349  0.1056 -0.2493
24695W        W40769   6.684  16.307   4.783 -0.1397  0.0043  0.0375
24696W        W40770  10.301  16.910   1.577  0.1513  0.0875  0.2192
24697W        W40771   5.958  14.058   0.001  0.2998  0.5066 -0.0930
24698W        W40772  12.342  10.560   1.513 -0.0349 -0.1374  0.3453
24699W        W40773  18.064  16.258  10.536 -0.2740 -0.1202 -0.0302
24700W        W40774   1.238   8.846   2.339 -0.2255  0.0731  0.0520
24701W        W40775  12.588   6.745   5.698  0.3433 -0.0349  0.4019
24702W        W40776  11.892  18.007  13.122 -0.2097  0.1130 -0.0863
24703W        W40777   8.747   1.188  12.957  0.1205  0.1259  0.2165
24704W        W40778  15.264  11.395   3.230  0.0474  0.0835 -0.4184
24705W        W40779   3.550  15.553   2.197 -0.1979  0.2989 -0.0859
24706W        W40780  11.484  10.591   6.159  0.1131 -0.0127 -0.3471
24707W        W40781   6.607  15.428   0.112  0.0729  0.3102  0.0943
24708W        W40782   1.293  15.948  12.370  0.2089  0.0245 -0.1068
24709W        W40783   3.704   7.254  12.970  0.1333 -0.0058 -0.0341
24710W        W40784   5.794   7.742   2.650  0.0960 -0.0269 -0.0295
24711W        W40785  14.173   8.956  12.076 -0.0998  0.1670  0.1509
24712W        W40786  10.568  10.031   4.989  0.3975 -0.1686 -0.0068
24713W        W40787  14.519   7.396  11.029  0.0224  0.1700 -0.0235
24714W        W40788  17.732  16.581  10.186 -0.1044  0.1552  0.0936
24715W        W40789   1.908  18.384  13.086  0.2539 -0.2226 -0.1489
24716W        W40790   9.364   7.584  10.696  0.0545  0.1526 -0.2055
24717W        W40791  19.135  17.759   4.726  0.0031 -0.1876  0.0478
24718W        W40792  12.921  19.115  14.667 -0.0313 -0.0122  0.0735
24719W        W40793   7.304   1.137   0.263  0.0982  0.0837 -0.3847
24720W        W40794   4.409   5.236   4.688 -0.2471 -0.0242 -0.1344
24721W        W40795  17.083  17.601   4.252  0.0947  0.0275  0.0169
24722W        W40796  13.767  17.582  14.762  0.0655 -0.4445  0.0533
24723W        W40797  10.169  14.485  11.755  0.0246  0.0984 -0.3148
24724W        W40798   1.949   8.427  14.169 -0.1414 -0.2313 -0.1027
24725W        W40799   0.400  13.185  13.137 -0.1464 -0.1854 -0.1570
24726W        W40800  16.742  16.065   1.648 -0.0481 -0.1764  0.3774
24727W        W40801  14.279  16.415  12.304  0.0943  0.2694  0.0645
24728W        W40802   5.260   3.896  11.934  0.1054 -0.3087  0.1879
24729W        W40803  17.827  17.580  11.256  0.2432 -0.3402  0.0498
24730W        W40804  12.759  13.285  12.515  0.0414  0.1949 -0.1650
24731W        W40805   6.303  10.954  14.251 -0.1467  0.2738  0.1107
24732W        W40806  16.076  13.119   3.836 -0.0740 -0.0480 -0.1268
24733W        W40807   8.617  10.845   3.498 -0.0999  0.1788 -0.3376
24734W        W40808  10.743   9.092   0.076 -0.1911 -0.0174  0.5578
24735W        W40809  14.916   5.503   2.634  0.0903 -0.0135 -0.1798
24736W        W40810  14.688  10.824   0.388  0.4076  0.0813 -0.1143
24737W        W40811   5.826   5.512  12.375  0.2029  0.0490 -0.0106
24738W        W40812  12.401  14.213  10.344 -0.1710 -0.1848  0.2103
24739W        W40813   8.775  10.356  11.902 -0.0625  0.0268  0.0893
24740W        W40814  15.350   5.914  13.751  0.3536 -0.0276  0.1009
24741W        W40815   8.970   4.063   9.854 -0.0054 -0.2086 -0.2576
24742W        W40816   8.054  18.277   1.318  0.0514 -0.4495 -0.1936
24743W        W40817  18.220   5.422  13.145  0.1495  0.0660  0.0127
24744W        W40818   7.877  13.960  13.080  0.0693 -0.3128  0.0077
24745W        W40819  12.997   5.221   3.785  0.2375 -0.3324  0.2454
24746W        W40820   7.150  10.228   1.980 -0.2254  0.0635 -0.2181
24747W        W40821   3.912  10.183   4.069 -0.0287 -0.1802  0.0405
24748W        W40822   9.570  16.091  14.796  0.0865  0.3998 -0.0683
24749W        W40823   4.263  14.364  14.980  0.2308 -0.0423  0.0367
24750W        W40824   9.711   8.258   5.120  0.1361  0.2234 -0.0636
24751W        W40825  13.729   4.400   1.231  0.4169  0.1466  0.0697
24752W        W40826   9.582  14.368   1.859  0.0994  0.0164  0.2613
24753W        W40827  14.117  18.144   4.379 -0.2710 -0.0473 -0.0010
24754W        W40828   8.101  10.253  10.716  0.0167  0.2923 -0.2983
24755W        W40829  11.943   7.998  13.005  0.1681  0.0105 -0.2740
24756W        W40830   6.292  12.170   6.252  0.0662  0.1701 -0.1330
24757W        W40831   6.113   8.650   4.526  0.1796 -0.3569 -0.4589
24758W        W40832  15.275   2.437   0.101 -0.0477  0.1209  0.0678
24759W        W40833  18.571   8.901   2.983  0.0466  0.2157  0.0600
24760W        W40834   0.445  16.677  14.521  0.1989 -0.0124  0.1712
24761W        W40835  17.708   5.870  13.816  0.0407  0.1306  0.0461
24762W        W40836   7.167   6.978  13.315  0.0494 -0.1000 -0.1834
24763W        W40837  11.954   7.217  14.979 -0.7317 -0.3704  0.1477
24764W        W40838   7.790  18.524   3.706  0.0475 -0.1655 -0.1641
24765W        W40839  13.211   9.926  14.818 -0.0527 -0.3304 -0.0197
24766W        W40840  14.269   6.159   4.303  0.0132 -0.0537 -0.3752
24767W        W40841  11.391  14.581  12.633  0.1064 -0.3890 -0.1786
24768W        W40842  12.220  18.385  13.205 -0.0559 -0.3761  0.1747
24769W        W40843   3.889  11.546   4.729 -0.1192 -0.1120  0.2136
24770W        W40844  10.134   2.397  10.651  0.0050  0.0378  0.1106
24771W        W40845   4.624  13.315   1.853  0.1605  0.1876 -0.1281
24772W        W40846   7.505  16.324   0.623  0.2118 -0.1968  0.4349
24773W        W40847  14.596  14.359  14.944 -0.3740  0.0388  0.0799
24774W        W40848   2.618  12.052  13.606 -0.2156  0.0161  0.1340
24775W        W40849  13.192   5.439   2.978  0.0080 -0.2295  0.0841
24776W        W40850  10.353   6.663   5.331 -0.0014 -0.1229  0.1785
24777W        W40851  12.719   3.114   2.797  0.0452  0.2052 -0.0943
24778W        W40852   0.296   4.169   4.054 -0.0479 -0.2546  0.2918
24779W        W40853   7.515   2.885   0.285  0.0356  0.1246  0.2740
24780W        W40854  16.863  13.625  11.704 -0.3456  0.1291 -0.1521
24781W        W40855   8.131  14.385   1.587  0.1386  0.2468  0.4099
24782W        W40856  10.493   6.851  14.606 -0.5306  0.0030  0.4538
24783W        W40857   8.073   0.614   0.439  0.1921 -0.3114 -0.0195
24784W        W40858  12.778   2.713   3.079 -0.1841 -0.1691 -0.1159
24785W        W40859   7.930  12.447  10.521  0.2415 -0.0369 -0.1804
24786W        W40860  10.640   9.047  14.281 -0.0466 -0.1180  0.0304
24787W        W40861   8.592  13.794   0.540 -0.0526  0.4050 -0.0147
24788W        W40862  15.008  14.336  13.267 -0.1288  0.1842  0.1754
24789W        W40863  10.191   3.033  12.912  0.0479 -0.3297 -0.1769
24790W        W40864   2.106  14.574   4.747  0.1548 -0.1044  0.1462
24791W        W40865   0.703  15.946  13.474 -0.0441  0.2341  0.0460
24792W        W40866   0.248  13.627   3.860 -0.1175  0.1701  0.1865
24793W        W40867  10.514  18.880   1.965 -0.0521 -0.1035  0.0839
24794W        W40868  13.520  16.485  13.813 -0.0969 -0.4559 -0.0094
24795W        W40869  10.291   1.856   3.553 -0.1548  0.1432  0.3073
24796W        W40870  17.025  13.414   4.323 -0.0127  0.1538  0.2749
24797W        W40871   7.053   6.405   2.068 -0.1165  0.0783  0.3676
24798W        W40872  18.454   5.528   0.622  0.3060  0.1419  0.1250
24799W        W40873   6.841  12.825  12.344 -0.1267  0.0161 -0.1890
24800W        W40874   4.994  11.394   3.097  0.1068 -0.0936  0.2968
24801W        W40875   8.513  14.304  13.236  0.4144  0.1723  0.0849
24802W        W40876   3.289  13.365   0.388 -0.2404 -0.4259  0.0912
24803W        W40877  15.406   8.253   4.947  0.1383  0.0404  0.0564
24804W        W40878  16.191  15.992  13.486  0.0300 -0.3766 -0.1663
24805W        W40879   0.675   0.540   1.662 -0.0223  0.2220 -0.0913
24806W        W40880  16.599  13.517  11.209  0.0894  0.0925  0.1660
24807W        W40881  14.034  13.510  11.632 -0.4304  0.1156  0.0277
24808W        W40882  15.598  18.509  12.256 -0.2358 -0.0591 -0.1205
24809W        W40883  15.822  18.758   0.626  0.0313 -0.1512  0.0292
24810W        W40884   9.802   6.417   2.039  0.2133 -0.2286  0.1240
24811W        W40885   8.696   9.454   3.004  0.0655  0.2438  0.3822
24812W        W40886  18.372   0.691   4.581  0.2155 -0.2686  0.0179
24813W        W40887   5.280  16.006   0.301  0.2445  0.1195 -0.0073
24814W        W40888   0.993  13.627   3.064 -0.1517  0.1259  0.3224
24815W        W40889   4.513  14.624   2.691 -0.1826  0.1507  0.2275
24816W        W40890   6.232   7.453  10.297 -0.2484 -0.4742  0.1725
24817W        W40891  18.100   4.193  14.052  0.0430  0.2465 -0.2110
24818W        W40892  14.331   6.511   2.762 -0.2111  0.1095 -0.0545
24819W        W40893   0.987  17.353   3.690  0.1576  0.2072 -0.0681
24820W        W40894  12.727  14.267   1.137  0.0003  0.0468  0.3099
24821W        W40895   2.809   7.323  13.308  0.0874  0.1490  0.2928
24822W        W40896  14.376   3.089   1.098 -0.3167 -0.2691  0.2161
24823W        W40897   5.039  13.425  14.864  0.2100  0.1432 -0.0488
24824W        W40898  18.721  16.734   4.386  0.3927 -0.2357  0.1860
24825W        W40899  13.958   5.972  14.148  0.0760 -0.3387 -0.2462
24826W        W40900  12.725   2.442   0.979  0.2530  0.0349 -0.0416
24827W        W40901   1.981  12.185   3.483  0.0827  0.2874 -0.0928
24828W        W40902   2.900  13.690  12.434 -0.1612  0.3126 -0.1002
24829W        W40903  13.834  13.965   0.108  0.0457 -0.0741 -0.1755
24830W        W40904   3.582  17.817  12.391  0.0300  0.1142 -0.3242
24831W        W40905  17.759  16.858   0.438  0.0859  0.0606 -0.1685
24832W        W40906   4.199   0.070  14.403  0.0384 -0.1941 -0.1205
24833W        W40907   2.248  10.267   3.920  0.3904 -0.1350 -0.2382
24834W        W40908  11.773   0.014   3.028  0.0064 -0.2081 -0.0104
24835W        W40909   2.426  19.001   3.689 -0.4954  0.1260  0.1022
24836W        W40910   4.789  14.689  14.404  0.2985 -0.2040 -0.0620
24837W        W40911   2.500  10.295   2.939 -0.1064  0.0065  0.3259
24838W        W40912  16.555   5.108  13.393 -0.1625 -0.3659 -0.1030
24839W        W40913   6.307   0.752  13.951  0.5081  0.5167  0.1414
24840W        W40914   1.818  16.470   3.233  0.0153  0.0652  0.0831
24841W        W40915   4.066   3.330  12.173 -0.0994 -0.0939  0.1267
24842W        W40916  14.715  10.356  10.507  0.1087  0.2585 -0.2691
24843W        W40917   8.541   4.070  10.744 -0.1553 -0.0108  0.0760
24844W        W40918  18.336  18.507   0.622  0.1284 -0.1075  0.0384
24845W        W40919  14.308  14.047   2.906 -0.1776  0.0783  0.2959
24846W        W40920  12.890   3.896  10.774 -0.3165 -0.0135 -0.1183
24847W        W40921  17.496   3.385   1.573  0.0940 -0.3037  0.0866
24848W        W40922  15.388   2.803  11.688 -0.0791 -0.3440 -0.2471
24849W        W40923   5.504   6.774   5.023 -0.2821  0.1513  0.1484
24850W        W40924   5.042   5.244   4.012 -0.0705  0.0028  0.2509
24851W        W40925  16.158  18.771  13.800  0.0545 -0.1580 -0.1338
24852W        W40926   7.264  16.710  14.610  0.2071  0.1048  0.2971
24853W        W40927   0.238   0.841  13.914  0.0304  0.0124  0.1521
24854W        W40928  17.371   5.389  11.448 -0.0103  0.0101  0.0153
24855W        W40929   7.323  15.707   3.431 -0.1147 -0.2026  0.2387
24856W        W40930  18.803  17.731   2.081  0.2195  0.0680  0.0948
24857W        W40931  11.136  15.371   4.231 -0.3255 -0.3313  0.2745
24858W        W40932  10.014   6.971   5.726  0.0203 -0.0752 -0.0911
24859W        W40933   1.571   0.682  13.789 -0.0342 -0.2081  0.2382
24860W        W40934   6.964   0.418   1.106  0.2326 -0.2885 -0.3605
24861W        W40935  12.854   5.866   4.237  0.1673  0.0604  0.2518
24862W        W40936  15.561  14.446   1.002  0.0444  0.1501  0.0434
24863W        W40937   2.317  17.105  12.490  0.1759  0.2537 -0.4738
24864W        W40938   8.654   9.928  12.223  0.1313 -0.0950 -0.1713
24865W        W40939   7.404   8.676  11.217 -0.0134  0.2891 -0.1151
24866W        W40940  13.759   1.793   3.901 -0.2093  0.1318 -0.1257
24867W        W40941   0.068  11.645   4.263  0.0065  0.0459  0.0227
24868W        W40942  10.402   6.983  13.101 -0.0150  0.4690  0.0109
24869W        W40943  16.348   8.783   2.826  0.1517  0.1482 -0.0046
24870W        W40944   5.472  13.860  11.563  0.2022 -0.0093 -0.2198
24871W        W40945  12.023  15.126  14.676 -0.1871 -0.1071  0.0179
24872W        W40946  17.659   1.810   9.233  0.1115 -0.2474 -0.1155
24873W        W40947   2.740  12.428  11.179 -0.0604  0.2398  0.2176
24874W        W40948   8.596   9.605   5.302  0.1141  0.0692 -0.2803
24875W        W40949  13.959  11.644   0.578 -0.3081  0.0656  0.1855
24876W        W40950  16.947   2.748   3.358 -0.0593  0.2474 -0.3713
24877W        W40951  17.676   6.277   2.407 -0.1097 -0.0529  0.0219
24878W        W40952   7.095   4.536   2.280 -0.1527 -0.4286  0.1222
24879W        W40953   8.696   8.340   5.002 -0.0171  0.0843 -0.2540
24880W        W40954  14.229   9.735  12.275 -0.1834 -0.1180 -0.0360
24881W        W40955  16.928   9.653   0.890 -0.1115 -0.2313 -0.2718
24882W        W40956  11.199   9.749  12.278  0.1101 -0.1622  0.2221
24883W        W40957  12.078  17.646   0.238 -0.0822  0.0660 -0.1920
24884W        W40958   2.033   8.653   3.244  0.2846 -0.1538  0.2807
24885W        W40959  19.265   2.069   1.116  0.0784  0.0397 -0.0938
24886W        W40960   3.987   9.597  14.166 -0.2002 -0.0850  0.0999
24887W        W40961   1.089   6.537   4.349  0.3765 -0.0038 -0.3587
24888W        W40962   8.307   6.116   0.003 -0.1005  0.0329  0.0815
24889W        W40963   6.736   7.593   1.889  0.2125 -0.1048  0.0197
24890W        W40964  15.777  11.841   0.514  0.0204 -0.2195  0.0399
24891W        W40965   3.066   0.800   0.079  0.2285  0.1995 -0.2830
24892W        W40966  18.384   4.875   2.608  0.2389 -0.0478 -0.0100
24893W        W40967  17.208  12.920  10.242  0.1871 -0.0517  0.2010
24894W        W40968   6.892   6.396  11.740  0.1311 -0.3011  0.1234
24895W        W40969  12.046  17.841  13.604 -0.0395 -0.2753 -0.0617
24896W        W40970   6.206  14.119   3.415 -0.0857 -0.0445 -0.0252
24897W        W40971  14.814   5.562  14.481  0.0328  0.0189  0.0577
24898W        W40972  14.628   8.692   3.284 -0.0306  0.1200  0.1621
24899W        W40973   9.420  18.042   0.078 -0.0020  0.0454 -0.0824
24900W        W40974  16.740   0.541   3.667 -0.0484 -0.1237 -0.0652
24901W        W40975   6.042  11.064   5.336 -0.0402 -0.0277  0.0065
24902W        W40976   7.619   4.691  13.311  0.3664 -0.4807  0.1672
24903W        W40977  10.102   2.464   4.594 -0.1462  0.0118 -0.0558
24904W        W40978  14.813   9.986  10.875  0.3941 -0.0223  0.1043
24905W        W40979  15.144  11.688   1.324  0.2306  0.2637 -0.1050
24906W        W40980  10.594  17.837   0.695 -0.0102 -0.1608  0.2588
24907W        W40981   5.345   2.339   1.980 -0.3081  0.2444 -0.2172
24908W        W40982  17.444   5.977  10.656  0.1691 -0.1569  0.3352
24909W        W40983   4.182   4.576   1.105  0.1219 -0.0985 -0.0222
24910W        W40984   0.681   8.027  10.750  0.1032 -0.0725 -0.1496
24911W        W40985   4.534   2.256  14.046  0.1373  0.2686 -0.5069
24912W        W40986  15.393  15.535  10.680 -0.1679  0.2608  0.1408
24913W        W40987   3.209   5.681   0.800  0.2187  0.1329  0.4039
24914W        W40988   1.837  12.619   0.702  0.0377  0.0713 -0.1663
24915W        W40989  13.344  13.241   4.882  0.0735 -0.0678 -0.0562
24916W        W40990   1.324   0.267   3.100  0.0496 -0.1431 -0.0420
24917W        W40991  10.883   9.470  11.264  0.1466 -0.0107 -0.1218
24918W        W40992  15.354   1.187  13.617 -0.2765 -0.2298 -0.5016
24919W        W40993  10.658  11.097  14.622 -0.1851  0.0340  0.0244
24920W        W40994   3.594   0.513   2.633 -0.2437 -0.0108 -0.1156
24921W        W40995   6.687   2.320   5.006  0.4703  0.0631  0.1380
24922W        W40996   9.289   6.593   1.939 -0.1453 -0.0307 -0.1534
24923W        W40997   3.075  13.704  13.425  0.1258  0.5895 -0.2002
24924W        W40998   7.333  16.354  14.236 -0.0391 -0.2446 -0.0771
24925W        W40999   0.506  18.450  12.423  0.1738  0.1164 -0.2923
24926W        W41000  11.334  16.347   0.299 -0.0653 -0.2445  0.1196
24927W        W41001   3.503   7.723  14.316 -0.1466 -0.0222  0.2522
24928W        W41002  18.347   3.004  13.776 -0.1901 -0.1357  0.3079
24929W        W41003  13.735  14.318  13.549 -0.0768 -0.0150  0.1116
24930W        W41004  18.737   2.698  10.864  0.2103  0.1086  0.1596
24931W        W41005  16.077   5.657   0.201  0.0409 -0.0567  0.1626
24932W        W41006  15.933  15.657   2.666  0.0103 -0.3333 -0.0956
24933W        W41007   7.581   7.856  12.993  0.2287  0.0673 -0.3593
24934W        W41008   0.629  10.301   4.481  0.0511  0.1232  0.1620
24935W        W41009   4.788   8.863   5.471  0.0697  0.1089  0.0398
24936W        W41010  16.714   8.097  10.867  0.3124  0.2915  0.1142
24937W        W41011  18.016  10.887   4.182  0.0754  0.2961 -0.1620
24938W        W41012  15.355   7.463  12.642  0.2427  0.1793 -0.1421
24939W        W41013  16.265  12.139   0.228 -0.1552 -0.2863  0.1902
24940W        W41014   9.397  16.448   5.675 -0.1921 -0.0286  0.2922
24941W        W41015  11.013   5.916  11.211  0.0226  0.0730 -0.2385
24942W        W41016   6.799   5.760   4.863  0.1096 -0.0274  0.0253
24943W        W41017   5.034  15.903   3.041 -0.1395  0.1808  0.1688
24944W        W41018   6.148  10.450  14.324 -0.1785 -0.2332 -0.3858
24945W        W41019   4.605   7.835  12.446 -0.2256 -0.1303  0.1879
24946W        W41020  10.905   2.604   3.156  0.1732  0.2983  0.0549
24947W        W41021  18.596  15.992  11.439 -0.0003  0.0565 -0.1684
24948W        W41022  18.451   5.500  10.487 -0.1451 -0.1648  0.1462
24949W        W41023   3.231   4.004   0.165 -0.3629 -0.1724 -0.0690
24950W        W41024   5.655  15.924   4.580 -0.2914  0.0605  0.2646
24951W        W41025  17.908  13.097   1.090 -0.2787 -0.2456  0.2540
24952W        W41026   6.526   8.322   4.466  0.0636  0.0165 -0.1273
24953W        W41027   0.607   2.253  13.045 -0.1102 -0.2067  0.1874
24954W        W41028   1.968  19.011   2.708  0.2744 -0.3298  0.3549
24955W        W41029  14.525   8.507  11.332 -0.1901  0.1020 -0.0211
24956W        W41030  12.677   2.385  12.085 -0.1237  0.0085  0.0650
24957W        W41031  10.791  15.616  11.215 -0.1951  0.2387  0.0287
24958W        W41032   0.086   4.734   0.168 -0.2663  0.1758 -0.0607
24959W        W41033   2.699   6.228  11.314 -0.0627  0.0923  0.0585
24960W        W41034  12.622   6.260  12.567  0.0990 -0.1125 -0.2707
24961W        W41035   8.307  13.928  14.636  0.0332  0.1403 -0.2241
24962W        W41036  13.055   8.777  10.899  0.0220 -0.4000 -0.0057
24963W        W41037  12.968  18.036  14.889  0.0931  0.0695  0.0549
24964W        W41038  12.377  13.382   2.089  0.1707 -0.0821  0.3355
24965W        W41039   6.744  14.490  11.166 -0.0750  0.0663 -0.0061
24966W        W41040  14.147   7.858   3.208  0.0802 -0.1619  0.0972
24967W        W41041   0.479   5.059  10.981 -0.0279 -0.2758 -0.1865
24968W        W41042   5.319  13.377  13.409  0.0718 -0.3062 -0.1768
24969W        W41043  16.731  13.405   0.779 -0.0241 -0.1484  0.3529
24970W        W41044  11.566  10.106  14.991 -0.0338 -0.1342  0.2644
24971W        W41045  14.127   4.201  11.332  0.3261 -0.3610 -0.0531
24972W        W41046  17.946   0.753   4.944  0.0185 -0.1260 -0.1281
24973W        W41047  16.989   5.734  12.650 -0.0420  0.0179 -0.3301
24974W        W41048   4.082   2.105  12.033  0.6787 -0.0337 -0.3091
24975W        W41049  12.921   9.352   2.045  0.0717  0.1181  0.1741
24976W        W41050  12.458  12.998  10.931  0.1437  0.2247 -0.3448
24977W        W41051  12.686   7.988  14.454  0.5382 -0.0564  0.0844
24978W        W41052   0.822  10.515   8.886  0.1316 -0.0143 -0.0557
24979W        W41053  17.282   7.292  13.182 -0.0112  0.0822 -0.1623
24980W        W41054  15.050   4.155   5.617  0.0339  0.2547 -0.1922
24981W        W41055  14.962   2.680   0.406 -0.1988 -0.1393 -0.0414
24982W        W41056   6.718  17.708   4.798 -0.0332  0.0313 -0.0473
24983W        W41057  15.105  16.092  12.036  0.0704 -0.1290 -0.0364
24984W        W41058  12.884   4.127   4.803 -0.2479 -0.0845 -0.0162
24985W        W41059  11.049   7.841   5.520  0.1167  0.1955  0.0772
24986W        W41060  16.861   4.523   2.893  0.2688 -0.1353 -0.1987
24987W        W41061  18.876   1.037  14.786  0.2610  0.2193 -0.1059
24988W        W41062   8.125  10.421   0.597 -0.1486  0.1042  0.1708
24989W        W41063  15.605  14.484  13.849 -0.0814  0.1207 -0.1735
24990W        W41064   9.411   8.616   2.809  0.0669 -0.2540 -0.1034
24991W        W41065  17.177   7.623   4.280  0.0028  0.1283  0.2038
24992W        W41066  12.055   2.413   1.709  0.1696  0.0423  0.2516
24993W        W41067   6.845   6.911  13.692 -0.1454 -0.0325  0.0005
24994W        W41068  10.805   9.847   4.166 -0.0683 -0.2255 -0.3685
24995W        W41069  10.752   0.038  12.842 -0.0882 -0.0170 -0.4731
24996W        W41070  17.469  15.602  12.424 -0.1026 -0.1377 -0.0115
24997W        W41071  14.132   0.164   1.827  0.0639  0.1372 -0.0715
24998W        W41072  11.931  13.112  11.030  0.1885  0.2312  0.3133
24999W        W41073   4.291   3.862   5.846  0.0623  0.1084 -0.0580
25000W        W41074  15.894  18.987   9.841 -0.1583  0.0069 -0.2628
25001W        W41075  16.870  10.345  10.533 -0.0182 -0.2519  0.1753
25002W        W41076   7.145   4.239  12.140 -0.1818 -0.3316  0.0697
25003W        W41077  15.271  10.420  10.041  0.4375  0.1022  0.0500
25004W        W41078  17.640   3.533  13.520  0.4885  0.3294  0.1490
25005W        W41079   5.540   0.184   5.576 -0.2084 -0.0128 -0.1671
25006W        W41080  15.895   6.689   4.873  0.0097  0.1655  0.0549
25007W        W41081  13.303  10.596  11.845  0.0063  0.1764  0.1560
25008W        W41082   4.061   1.550   1.808  0.1922  0.2711 -0.0734
25009W        W41083  19.081  18.992  10.000 -0.0023  0.1497  0.0854
25010W        W41084  16.240   2.995  12.509 -0.1074  0.2987  0.1634
25011W        W41085  16.111  10.710  12.040 -0.0918  0.3587 -0.0199
25012W        W41086   9.432  15.848   1.088 -0.2377 -0.0717  0.0543
25013W        W41087  17.397   4.376  13.301  0.2299  0.2336  0.2505
25014W        W41088  14.673   1.371   0.229 -0.2241 -0.0568 -0.0798
25015W        W41089  13.746  16.466   1.085 -0.2525  0.0502 -0.0855
25016W        W41090   4.966  13.744  10.001 -0.0354  0.4529  0.1618
25017W        W41091  11.252  13.124  12.353  0.3569 -0.5944 -0.2346
25018W        W41092  10.933   6.170  14.025 -0.1152  0.2068  0.0400
25019W        W41093   0.198  17.523   2.560  0.1881 -0.1434  0.0898
25020W        W41094  12.913   5.553  12.857 -0.0686  0.1572  0.1924
25021W        W41095   7.332  17.925   4.812 -0.1595 -0.0714  0.0003
25022W        W41096   1.644   7.687   3.809  0.2750  0.2430  0.3312
25023W        W41097  19.285   9.651   1.576  0.4092  0.1642 -0.0460
25024W        W41098   7.051   0.619  11.645  0.0349  0.0629 -0.2700
25025W        W41099   9.259   8.423   3.497 -0.1063  0.0540 -0.0829
25026W        W41100   9.946  14.916   3.273  0.1759  0.1512  0.2979
25027W        W41101  14.523  11.375  10.765 -0.1972 -0.1189 -0.0325
25028W        W41102   1.495  17.477   2.138  0.0782 -0.0366  0.0216
25029W        W41103  10.042   0.974   5.150  0.2456 -0.1050  0.0678
25030W        W41104   6.210  10.065   2.635  0.2060 -0.1929  0.0810
25031W        W41105   2.396  12.546  11.562  0.2230 -0.0572  0.1742
25032W        W41106  16.352   6.211   2.595  0.2602  0.1260  0.0716
25033W        W41107   5.978  11.084  14.613  0.2411  0.0235 -0.3460
25034W        W41108  16.924  15.729  10.657  0.1926 -0.1120  0.0245
25035W        W41109   7.202  18.451   0.787  0.0922 -0.1386  0.0397
25036W        W41110   9.305  14.124  12.099  0.3021 -0.1257  0.0199
25037W        W41111  10.527  11.842  13.159 -0.0886 -0.3223 -0.0193
25038W        W41112   8.976   4.126  12.169  0.2819  0.3686 -0.0047
25039W        W41113   2.418  15.674  11.042  0.2974 -0.3347 -0.0535
25040W        W41114  14.446  14.333  12.109  0.0490 -0.2010 -0.3199
25041W        W41115   2.141  13.556   4.846  0.2402  0.0080  0.1151
25042W        W41116  17.401  19.016   3.598  0.0263 -0.0848 -0.0722
25043W        W41117  15.004   8.625  11.328  0.2268 -0.3796 -0.0670
25044W        W41118  15.296  14.539  14.235  0.1740 -0.0702  0.0813
25045W        W41119   6.260   0.392  11.732 -0.0205 -0.3505 -0.2408
25046W        W41120  18.440  12.897   3.704  0.1320  0.1537 -0.3423
25047W        W41121  12.899  18.750  11.599  0.2374  0.3411  0.1137
25048W        W41122   1.091   5.579  14.339 -0.0691 -0.0655  0.2274
25049W        W41123  15.395   5.924   0.322  0.2533 -0.2799  0.1136
25050W        W41124   3.264  14.108  13.146  0.2625  0.2424 -0.1762
25051W        W41125  14.703   9.061  11.273  0.0157 -0.1484 -0.0763
25052W        W41126  17.670  10.524  12.119  0.1571  0.0989  0.2160
25053W        W41127  18.755  16.384  11.694 -0.1959  0.0975 -0.1475
25054W        W41128   3.377  18.805  10.988  0.0451 -0.2129  0.0373
25055W        W41129   0.891  14.660   1.899  0.0327  0.3156  0.0060
25056W        W41130  17.899  11.619  11.633  0.0175  0.0261 -0.0637
25057W        W41131   6.995  11.527  10.819 -0.1098 -0.0113 -0.1821
25058W        W41132   0.130   8.438   0.971 -0.1438 -0.1581  0.0142
25059W        W41133  17.110  15.487  13.698 -0.0528 -0.0785  0.3099
25060W        W41134  13.048   8.148   3.109  0.0529  0.1908  0.0947
25061W        W41135   7.719  18.165  12.506 -0.2892 -0.0132 -0.4332
25062W        W41136   8.597  16.379  10.879 -0.3090 -0.2106  0.0478
25063W        W41137  13.506  16.866  10.936  0.0197 -0.3677 -0.0079
25064W        W41138   2.651  15.785  11.506 -0.0441  0.0574  0.0358
25065W        W41139   4.906  15.654   1.912  0.0744 -0.0277 -0.1447
25066W        W41140  16.276  15.883   1.840 -0.1112 -0.0804 -0.1554
25067W        W41141   9.535  13.041   4.007 -0.0545 -0.0834 -0.0456
25068W        W41142   6.030  10.112   0.577 -0.3498  0.0828 -0.1473
25069W        W41143   5.860   8.811   0.096  0.2184 -0.4785  0.2767
25070W        W41144  16.654   0.197  12.527  0.0055  0.1449  0.1500
25071W        W41145   7.425   3.155   4.692 -0.1584 -0.2612 -0.0719
25072W        W41146  10.277  13.739   4.182  0.1311  0.0042  0.2052
25073W        W41147   4.233   2.924  11.867 -0.1680  0.0341 -0.0461
25074W        W41148  16.920  17.585  10.466  0.0232 -0.0107  0.0925
25075W        W41149   3.535  10.079  13.780  0.1564 -0.0614  0.1824
25076W        W41150  17.526  17.992   1.454  0.1956  0.0176 -0.1003
25077W        W41151   4.960  14.082  10.437  0.1836  0.3543  0.0046
25078W        W41152   0.341  12.427  14.916 -0.2326 -0.4368 -0.1038
25079W        W41153   6.244   8.887  10.199 -0.1408  0.1451 -0.0379
25080W        W41154  14.591   9.531   2.697  0.2414  0.0074 -0.2607
25081W        W41155   5.842   6.003  11.434 -0.0122 -0.1056  0.0288
25082W        W41156   2.753  11.066  14.606 -0.1233 -0.0804  0.1309
25083W        W41157  12.086  17.034   0.861 -0.2933  0.1345  0.1643
25084W        W41158  16.986  15.122   0.063 -0.2140  0.0057  0.0071
25085W        W41159  18.563  16.537   1.038 -0.0452 -0.1780  0.0249
25086W        W41160   3.345   5.017  11.433 -0.3003 -0.0895 -0.1471
25087W        W41161   7.504  13.213   3.046 -0.2749 -0.1022  0.0430
25088W        W41162  15.882   1.409  10.601  0.0290  0.3645  0.0830
25089W        W41163   6.666   4.142  12.358 -0.0620  0.2764  0.2447
25090W        W41164   0.236   0.479  12.932  0.1055  0.0579 -0.0288
25091W        W41165   7.582  12.263   1.076 -0.0526 -0.1427  0.2908
25092W        W41166  17.414   4.845   2.807  0.0924  0.1907 -0.1837
25093W        W41167   1.082  15.211   2.681 -0.0781 -0.0417  0.2599
25094W        W41168   2.071  15.951  13.800 -0.0276 -0.3135 -0.0197
25095W        W41169  10.262   6.753  12.641  0.4831  0.0963 -0.0764
25096W        W41170  19.039  12.153   3.942  0.0469  0.0989 -0.0439
25097W        W41171  11.310   7.673   2.586  0.1507  0.2755 -0.0270
25098W        W41172   2.882   8.183  14.726  0.1141 -0.5264 -0.4133
25099W        W41173   5.565  16.885   3.971 -0.2059 -0.2565  0.0933
25100W        W41174  16.066   9.599   3.876  0.0205  0.0646  0.1685
25101W        W41175  11.940   2.549  14.667  0.1131 -0.1636 -0.0446
25102W        W41176   8.518  16.068  13.453 -0.2893  0.1829 -0.0752
25103W        W41177  14.215   1.035   2.921 -0.1169  0.2447 -0.0679
25104W        W41178  16.834   1.396   0.553  0.2028 -0.0904 -0.1095
25105W        W41179  17.503   4.847  13.313  0.0499  0.1922  0.0811
25106W        W41180  15.068  11.765  15.003 -0.0223  0.0016  0.2357
25107W        W41181   6.302   5.456  12.513  0.0135  0.3648 -0.2135
25108W        W41182  18.549   6.828   1.177 -0.1216 -0.2754 -0.0086
25109W        W41183   2.614  15.289   0.100  0.1272  0.1625  0.0484
25110W        W41184   0.518  18.671   4.778 -0.2284 -0.1318 -0.0445
25111W        W41185   4.292  10.896  14.305 -0.2626  0.1088 -0.1452
25112W        W41186   8.144  16.986   2.526 -0.1804 -0.0020  0.1079
25113W        W41187  16.692   0.429  14.062 -0.2176 -0.1554  0.2168
25114W        W41188  10.352  16.914   1.047  0.0071  0.0250 -0.0450
25115W        W41189  10.094   1.066  12.610  0.2295  0.0802 -0.0591
25116W        W41190   3.415  14.019  12.587 -0.0755 -0.1479  0.2502
25117W        W41191   4.550  13.050  12.393 -0.0811 -0.2053  0.3643
25118W        W41192  10.941  15.320  10.833  0.1383  0.1308  0.1071
25119W        W41193   7.664  14.465   9.880 -0.2271 -0.2767  0.0052
25120W        W41194   9.509   4.041   5.614  0.0384  0.0043  0.1398
25121W        W41195   7.407  13.490  13.764  0.1084 -0.0394  0.2173
25122W        W41196   5.462  10.281   1.283  0.1778  0.1560 -0.0653
25123W        W41197   3.551   2.006  14.164 -0.2930 -0.1828  0.1681
25124W        W41198  15.875   0.556  10.353  0.1204 -0.1958 -0.1251
25125W        W41199  13.786  17.646  13.653 -0.0793  0.0958  0.0509
25126W        W41200   9.961  15.191  14.581  0.2119 -0.0021  0.0651
25127W        W41201  11.273  15.535  11.123  0.0028  0.1366  0.1074
25128W        W41202   4.890   7.910   4.063 -0.1092  0.1680  0.0325
25129W        W41203  19.184  13.102  11.684  0.2209 -0.1125 -0.2957
25130W        W41204  17.088   1.140  11.123  0.1312 -0.0095 -0.2253
25131W        W41205   9.448   0.178   3.280 -0.4259 -0.0187  0.1163
25132W        W41206  19.100  10.108  12.697  0.0936 -0.0087  0.0391
25133W        W41207  12.201   0.941  13.716 -0.1569  0.1223  0.3613
25134W        W41208   6.378   2.167  13.042 -0.1557  0.2257 -0.1222
25135W        W41209  16.715   6.748  10.210 -0.1683 -0.0108 -0.1598
25136W        W41210  17.666  12.710   2.937 -0.0794  0.1510 -0.2197
25137W        W41211   4.675  15.137   2.624  0.4102  0.1354 -0.0249
25138W        W41212  12.255   3.243  13.788 -0.1349  0.1822 -0.0848
25139W        W41213  12.430   8.572   1.576 -0.2717 -0.2493 -0.1433
25140W        W41214  15.821  13.529   3.775  0.1347  0.2456 -0.2161
25141W        W41215   7.134   4.945   3.372 -0.0154 -0.0126 -0.1478
25142W        W41216   1.494   5.108   0.900 -0.1038 -0.2148  0.0418
25143W        W41217   6.629   8.878   2.226 -0.0498 -0.6468  0.3481
25144W        W41218   9.885  19.115  11.817 -0.1207  0.0352  0.1284
25145W        W41219   1.899   4.901  10.653 -0.2389  0.1878 -0.0328
25146W        W41220   9.064   3.312   0.338  0.1849  0.4554  0.1198
25147W        W41221   9.528   6.403   5.237 -0.0177  0.0977 -0.1511
25148W        W41222   8.188   0.982   2.300 -0.1205 -0.1880  0.2935
25149W        W41223  12.982   0.764   3.182 -0.2305  0.2837 -0.0696
25150W        W41224   1.027  10.044   1.594  0.0925 -0.1042  0.2520
25151W        W41225  13.894  18.010   9.183 -0.4910  0.2542  0.2612
25152W        W41226   8.494  12.913   5.524 -0.0987 -0.2069 -0.1117
25153W        W41227  16.953  11.175   3.837 -0.2999 -0.2153 -0.0392
25154W        W41228   3.028  13.400   2.452  0.0219  0.1950 -0.0059
25155W        W41229  13.269  14.852  10.806  0.1194 -0.0138  0.0658
25156W        W41230   3.476   5.349   3.788  0.0245 -0.1136  0.1692
25157W        W41231   1.502  18.756   4.944  0.1400  0.0293 -0.2236
25158W        W41232  15.054   6.930  14.168  0.0450  0.2354  0.2508
25159W        W41233  16.334  11.869  10.215  0.0907 -0.2259  0.0504
25160W        W41234   5.895  17.847   1.944  0.0742 -0.1920 -0.1438
25161W        W41235   5.153  12.040   3.386 -0.2329  0.1384  0.0539
25162W        W41236   2.828   9.212   1.530  0.2284  0.2005  0.0526
25163W        W41237  12.846   8.072  13.345 -0.3026  0.3065 -0.0496
25164W        W41238   1.153  16.627  14.065 -0.2928 -0.1066  0.1288
25165W        W41239  17.432  17.694   2.015 -0.0003 -0.0377  0.0522
25166W        W41240  12.764   8.749   4.504  0.0089 -0.2566  0.1565
25167W        W41241   3.207   0.793   4.884 -0.3048  0.0990 -0.3446
25168W        W41242   4.494  14.056   1.280  0.0746  0.0658 -0.0630
25169W        W41243  18.562   0.434   1.384  0.2555 -0.1400  0.2310
25170W        W41244  11.998   8.781   3.796 -0.2171 -0.2432 -0.5715
25171W        W41245   7.438  11.502   9.580  0.1113  0.0986 -0.0520
25172W        W41246   5.681   4.831  12.848  0.1469  0.0352 -0.2119
25173W        W41247   4.163  14.478  12.097 -0.1689  0.0797  0.1824
25174W        W41248   6.370  15.870  13.938 -0.2387  0.2070 -0.2412
25175W        W41249   3.123   8.244   1.403 -0.0791  0.0803  0.0354
25176W        W41250  15.718  13.728   1.810  0.3933 -0.1185  0.1889
25177W        W41251   8.094   5.031   3.107 -0.0491 -0.0061  0.2839
25178W        W41252  13.033  16.181  11.503 -0.0830 -0.2675 -0.2798
25179W        W41253  14.915  16.470   4.353 -0.3096 -0.0505 -0.2571
25180W        W41254   5.433  18.293   4.819 -0.0738  0.2216  0.1947
25181W        W41255  11.952  16.411   0.937 -0.1602  0.0947 -0.3833
25182W        W41256   0.723  18.347  14.313 -0.4107  0.2186  0.4424
25183W        W41257   0.191  11.768   3.699 -0.2304 -0.2109  0.0718
25184W        W41258   2.046   9.874  10.457  0.1212  0.1643 -0.1187
25185W        W41259   6.674  18.451   0.796 -0.3235 -0.1669 -0.3247
25186W        W41260   3.715   8.485  12.345  0.1934 -0.2750 -0.0213
25187W        W41261  15.380  11.777   0.849  0.0467 -0.3926 -0.3043
25188W        W41262   9.350   5.542   4.046  0.1985 -0.2763 -0.0652
25189W        W41263  17.629  14.043  11.186  0.3740 -0.0338  0.1247
25190W        W41264   3.421  10.519  14.114 -0.2020 -0.1036  0.3339
25191W        W41265  16.801  11.372  12.123 -0.2899 -0.1777  0.0026
25192W        W41266   0.322   2.345  10.739  0.1171 -0.1083 -0.2339
25193W        W41267  17.622   3.402   1.041 -0.3923  0.1148 -0.0037
25194W        W41268   6.558   8.032   4.052  0.1368  0.2020  0.1732
25195W        W41269   9.161   3.629   0.729  0.0232  0.4089 -0.0560
25196W        W41270   4.304   7.438  14.164  0.0318  0.1466  0.0667
25197W        W41271   8.503   5.215   4.516 -0.1562  0.1100 -0.3266
25198W        W41272  10.366   5.632   3.176  0.1144  0.1717  0.0405
25199W        W41273  13.835   1.729   3.091 -0.1394  0.0252  0.0445
25200W        W41274  10.444   4.045   5.270 -0.2244 -0.2208 -0.0526
25201W        W41275  14.217   8.463   1.101  0.2412 -0.0160  0.0098
25202W        W41276  17.006   1.049   9.424  0.1858 -0.1146 -0.1332
25203W        W41277   8.150   1.070  11.596 -0.5701  0.0076  0.1436
25204W        W41278  13.496   2.768   1.326  0.0395 -0.0335 -0.1275
25205W        W41279   7.488  18.887  11.116 -0.0949 -0.0618 -0.0448
25206W        W41280   5.787   2.529   3.468 -0.0068  0.0800 -0.2257
25207W        W41281   3.489  17.933   0.596 -0.1968 -0.0441 -0.1629
25208W        W41282  13.090  14.448  13.999  0.2185  0.1099  0.1998
25209W        W41283   3.697   5.387  11.591  0.0501  0.1781 -0.0938
25210W        W41284  17.509   6.575   3.007 -0.3068 -0.2054  0.3099
25211W        W41285   2.066   3.045  14.740 -0.0842  0.2402 -0.0958
25212W        W41286   3.961   1.109   5.115  0.1926 -0.3122  0.0436
25213W        W41287   4.933   8.557  14.229  0.0423 -0.3668 -0.1408
25214W        W41288   3.822  13.849  12.809 -0.2568  0.1295 -0.0491
25215W        W41289  11.480   2.783  12.874 -0.1983 -0.3171  0.3018
25216W        W41290   8.812   5.037   5.706  0.0087  0.0696  0.0914
25217W        W41291   0.476  18.471  14.759 -0.0349  0.2330 -0.0593
25218W        W41292   1.974  16.908  10.718  0.2324 -0.2796 -0.2309
25219W        W41293   0.631   7.355  12.936  0.1605 -0.0595  0.0911
25220W        W41294   2.005   8.537   4.289 -0.1724 -0.0492  0.1139
25221W        W41295   0.189   9.833   5.237 -0.0753 -0.0483  0.1155
25222W        W41296  12.139   7.410   3.279 -0.4085 -0.0824  0.1920
25223W        W41297  14.921   3.837  11.828 -0.1408  0.0181 -0.1489
25224W        W41298   4.362   1.694  13.235  0.2662  0.2565 -0.1772
25225W        W41299  13.774   6.504   1.072 -0.0896 -0.2591 -0.2427
25226W        W41300   4.235   2.088   2.134  0.0722  0.0316 -0.0432
25227W        W41301  16.518   0.625  14.973  0.1237 -0.0238  0.1404
25228W        W41302   4.348   0.485  14.118  0.0843 -0.1045  0.0082
25229W        W41303  10.727   4.085   0.546 -0.1044 -0.1309  0.1977
25230W        W41304  17.882   9.194  11.938 -0.0016  0.1317  0.0474
25231W        W41305  14.703  13.938   3.945 -0.1455  0.0555  0.0276
25232W        W41306   4.184   7.475   0.419  0.0935  0.0328  0.1968
25233W        W41307  12.368  13.921   2.828 -0.3086 -0.5775 -0.1770
25234W        W41308  18.798  11.816  14.969 -0.2143 -0.5587  0.1957
25235W        W41309  13.343  10.056  12.722 -0.2888 -0.0898 -0.1180
25236W        W41310   3.010  17.979  14.021 -0.1242  0.1352 -0.0383
25237W        W41311  10.860   4.131  11.298  0.2217  0.2264 -0.0759
25238W        W41312   5.165  17.580   9.729  0.1749  0.0129  0.4234
25239W        W41313   4.495  19.125  11.709  0.1788 -0.2985  0.0037
25240W        W41314  18.703   7.137   3.720 -0.2210 -0.0162 -0.1018
25241W        W41315  13.926   2.924  10.714 -0.1329  0.1276  0.2752
25242W        W41316   4.147   5.605   3.082 -0.2281 -0.2772  0.4046
25243W        W41317   8.399  15.183  12.947  0.0911 -0.0523  0.1015
25244W        W41318  18.077   4.043   4.193  0.2651 -0.3594  0.1480
25245W        W41319  16.596   3.463   1.163 -0.2416 -0.1483  0.0956
25246W        W41320  15.793  14.528   1.626 -0.0635 -0.4022 -0.0853
25247W        W41321  18.352   5.243   4.423  0.3726  0.0329 -0.1080
25248W        W41322   6.667  17.219   4.937  0.1001  0.1061 -0.0434
25249W        W41323  12.745  14.465  11.686  0.0209 -0.0419  0.1617
25250W        W41324   0.448   1.842  10.565  0.0909 -0.0816 -0.0327
25251W        W41325  11.348  15.176  10.609 -0.0485 -0.1038 -0.1558
25252W        W41326   1.142  18.040   1.330 -0.2229  0.5917  0.1693
25253W        W41327  17.291  17.082  14.151  0.1423 -0.0934 -0.0610
25254W        W41328  14.806  13.607  10.997 -0.0333 -0.0685 -0.0671
25255W        W41329  16.950  12.233  14.714  0.0612 -0.0273  0.0816
25256W        W41330   6.916  18.239   4.713  0.1957 -0.1583  0.2114
25257W        W41331  17.455  14.438   1.828 -0.0865  0.0891 -0.1425
25258W        W41332  18.615   5.180  11.857  0.0377 -0.2516 -0.1580
25259W        W41333   6.821  11.024  12.810 -0.0173 -0.1581  0.2138
25260W        W41334  18.468   6.008   0.764  0.2378 -0.2010  0.1033
25261W        W41335   7.611   5.397  13.876  0.1073  0.1335 -0.0827
25262W        W41336  13.972   0.039   3.685 -0.1687 -0.2532  0.2798
25263W        W41337  10.737  18.688   4.645 -0.3590 -0.1018  0.4319
25264W        W41338   4.672   1.650   5.053 -0.0479 -0.0746  0.0346
25265W        W41339  15.029  14.040   0.568 -0.3860 -0.1811  0.2732
25266W        W41340  16.058  13.101   2.685  0.0542 -0.2194  0.2495
25267W        W41341  15.488   7.102  12.274 -0.0029  0.0634 -0.2277
25268W        W41342   4.071  12.885   5.144 -0.3814 -0.0937 -0.5674
25269W        W41343   2.926  15.141   0.470  0.1882  0.0328  0.1320
25270W        W41344   2.079  18.830  10.930  0.2734 -0.3408 -0.3538
25271W        W41345   5.554  15.353  12.138 -0.0811 -0.0027 -0.2520
25272W        W41346  12.021   3.435  10.782 -0.1120 -0.2435  0.0071
25273W        W41347   4.284  10.683   4.747 -0.1263 -0.1741  0.1319
25274W        W41348  12.479   1.416   2.574 -0.0385 -0.2690  0.2005
25275W        W41349  13.793  16.580   5.241  0.3088 -0.0863  0.0495
25276W        W41350  13.732   1.245   4.731  0.1651  0.1580  0.1579
25277W        W41351   0.123  14.827  10.686  0.1870 -0.0051 -0.2121
25278W        W41352  18.357   7.444   4.062  0.1162 -0.0999  0.0667
25279W        W41353  16.847   7.402  14.210  0.1160  0.2612  0.2160
25280W        W41354  15.719  13.193   1.719 -0.1646 -0.0909  0.3440
25281W        W41355  10.400  15.277   3.670 -0.1405  0.1724  0.0185
25282W        W41356  16.714  18.460   3.502  0.2896  0.1026  0.0703
25283W        W41357   2.248   0.710   0.566  0.0239  0.0562 -0.1624
25284W        W41358  14.111  10.040   4.164  0.1194 -0.1078 -0.2241
25285W        W41359   9.097  10.378  14.834 -0.2874  0.2956 -0.0239
25286W        W41360  10.224   8.054   2.022  0.0602 -0.0491 -0.0520
25287W        W41361  19.254   7.801  10.805  0.1472  0.2993 -0.1779
25288W        W41362  12.748  17.595  13.521 -0.1128 -0.0489  0.2862
25289W        W41363   7.861   2.428  11.254 -0.1492 -0.1603  0.1799
25290W        W41364   2.484  13.437  14.039 -0.1471  0.0190  0.1261
25291W        W41365   1.629  14.038   1.940 -0.0076  0.2140  0.0207
25292W        W41366  12.222  16.598   1.339  0.0110 -0.1266 -0.0147
25293W        W41367  18.732  16.049   1.959 -0.1274 -0.3875  0.3628
25294W        W41368   2.714   2.469   2.886 -0.2573 -0.4053  0.1263
25295W        W41369   6.908   2.559   2.111  0.2476 -0.0054 -0.2257
25296W        W41370  16.989   8.948  11.064 -0.1247  0.3216 -0.1343
25297W        W41371  11.172   8.721  10.739 -0.2235  0.2660  0.1777
25298W        W41372  11.924   1.808   4.554  0.3807 -0.3066  0.1329
25299W        W41373   4.038   9.462   3.772 -0.0799  0.0446 -0.0543
25300W        W41374  17.630   9.498  14.591 -0.3116  0.1062  0.1764
25301W        W41375   5.865   5.245  11.966 -0.1496  0.0877 -0.4681
25302W        W41376  16.463  17.661  13.234 -0.2466  0.1489 -0.2556
25303W        W41377   4.416  13.568   2.311  0.1898 -0.1762 -0.3024
25304W        W41378   7.677   3.081   5.099  0.0399  0.0606  0.1644
25305W        W41379  12.028   3.818   1.082  0.0261 -0.3529 -0.0272
25306W        W41380  17.094   9.631   4.708  0.2900  0.1629 -0.0138
25307W        W41381  15.025   7.704  13.978  0.2345 -0.2526 -0.3065
25308W        W41382   1.477   8.299   1.187 -0.0890 -0.1395 -0.1498
25309W        W41383  11.579  15.606  12.562 -0.2939 -0.1186 -0.2250
25310W        W41384  12.584   5.172  13.990  0.0489  0.0344 -0.1460
25311W        W41385  14.638   2.690   3.655 -0.0767  0.0572  0.0334
25312W        W41386  18.963  18.421   2.394  0.2647  0.0257 -0.1066
25313W        W41387   6.294   1.512   2.641 -0.3300  0.0011 -0.0661
25314W        W41388   2.922   0.603  12.901 -0.0744  0.1599  0.1072
25315W        W41389   8.258   1.571  13.673 -0.0959 -0.1787 -0.3101
25316W        W41390   0.443   8.952   2.670 -0.3698 -0.0183  0.0443
25317W        W41391  11.862   8.181  11.803 -0.0875  0.1153 -0.1845
25318W        W41392  11.772   7.743   1.426 -0.0872  0.0449  0.2237
25319W        W41393  15.202   5.095   2.997  0.1459  0.2395 -0.1289
25320W        W41394  14.750   4.124  14.159 -0.2636 -0.3662  0.1378
25321W        W41395   1.596  12.513  10.547 -0.0230  0.3650  0.0841
25322W        W41396  19.171   1.989  14.050 -0.2538 -0.0121  0.0223
25323W        W41397  15.590  16.765  12.046 -0.1879  0.0639 -0.2280
25324W        W41398   8.311  13.227   4.617 -0.0221 -0.0784 -0.1455
25325W        W41399  15.488  10.449   0.213  0.1264 -0.1476 -0.1224
25326W        W41400  11.794  16.826   1.168  0.2324 -0.1952 -0.1508
25327W        W41401  17.666  12.422  10.278 -0.1299  0.0378 -0.0418
25328W        W41402   7.453  19.202  13.058 -0.2710  0.1309  0.0053
25329W        W41403   1.476  15.697   0.479 -0.2475  0.0972 -0.3569
25330W        W41404  10.575  17.289  14.795  0.3978 -0.1782  0.1082
25331W        W41405  12.416  14.014   3.348 -0.1342 -0.2349  0.0186
25332W        W41406  10.660  17.016   2.342 -0.2246  0.0738  0.0573
25333W        W41407   2.256  18.514   4.291  0.0472 -0.3193 -0.0631
25334W        W41408   0.704  14.093  12.407  0.2153  0.1675 -0.0104
25335W        W41409  13.499  10.864  12.529 -0.0367 -0.1576 -0.4076
25336W        W41410  14.151  18.114  12.985 -0.2900 -0.2237 -0.0032
25337W        W41411   4.549  10.872  15.020 -0.1037  0.4220 -0.0569
25338W        W41412   3.061  16.221   3.282  0.1462 -0.2293 -0.1831
25339W        W41413  18.277  17.636  12.787 -0.0450 -0.3726  0.1407
25340W        W41414   9.310  14.784   2.170 -0.0372  0.0540 -0.2315
25341W        W41415  13.114  10.024   3.359 -0.2360 -0.2179  0.3974
25342W        W41416   4.379   1.525  14.933 -0.1534 -0.2190  0.1192
25343W        W41417   8.164   5.642  13.010 -0.2557  0.1317  0.3938
25344W        W41418   2.016   5.233   2.443  0.1193 -0.2461  0.2214
25345W        W41419   9.513  16.571  13.155 -0.0248  0.1359 -0.1486
25346W        W41420   6.853   5.147   4.633  0.1708  0.2791  0.0513
25347W        W41421  13.488   3.623  13.626  0.1740 -0.0365 -0.1847
25348W        W41422  16.355  18.527   4.385  0.1731 -0.1046 -0.0899
25349W        W41423   5.584   9.942   2.176 -0.1105  0.2159  0.2788
25350W        W41424   2.731  17.055   9.803 -0.0532  0.0876  0.4234
25351W        W41425   6.903   1.146  13.261  0.0578 -0.1530 -0.0867
25352W        W41426  13.068  14.218   2.683 -0.1473  0.1685  0.0746
25353W        W41427  16.233  13.201  14.109  0.1951  0.1140  0.0351
25354W        W41428   3.840  13.697   2.146  0.0752  0.0377 -0.0961
25355W        W41429  18.586   8.390   0.085 -0.4694 -0.2527  0.1137
25356W        W41430  12.282   7.668  12.505  0.0665 -0.1492 -0.2723
25357W        W41431  14.503   2.792  12.010 -0.1093  0.3056  0.0671
25358W        W41432   4.572  16.383  10.897  0.1270  0.0132 -0.0385
25359W        W41433  17.923   8.806  10.672  0.0509 -0.0369 -0.0207
25360W        W41434  11.543   8.446   4.500 -0.1035  0.1361  0.0162
25361W        W41435  14.993   2.486   1.488  0.0502 -0.2698 -0.1156
25362W        W41436  15.204   7.233   4.440 -0.0686 -0.0941 -0.4596
25363W        W41437  12.289  17.888   3.245 -0.3398 -0.0343  0.5277
25364W        W41438   2.094   8.550   4.812 -0.1577  0.1184  0.2577
25365W        W41439   4.271   2.430  11.497 -0.4172  0.4666  0.2173
25366W        W41440   1.839  15.972   0.235  0.1169  0.2661  0.0638
25367W        W41441  14.756   5.574  13.135 -0.1006  0.1048 -0.0062
25368W        W41442  13.816   7.426  14.343  0.0598 -0.0762  0.1128
25369W        W41443  15.117   5.209  10.350 -0.0290 -0.3027 -0.0505
25370W        W41444  17.229  15.539   4.380 -0.2620  0.3794 -0.1431
25371W        W41445  17.149  18.903  13.862  0.0699 -0.1228  0.1238
25372W        W41446  17.419   6.035   1.457 -0.0945 -0.2237  0.3546
25373W        W41447   6.256  11.514  14.657 -0.2442 -0.0934  0.0190
25374W        W41448   1.097  11.706  12.418  0.2503 -0.4338 -0.3130
25375W        W41449   0.695   6.658   1.339 -0.0090  0.0922  0.0860
25376W        W41450  15.362   6.211   1.495 -0.0526  0.3893 -0.1206
25377W        W41451  12.034  14.684  13.907 -0.3842  0.0010  0.3228
25378W        W41452   6.671   5.723  12.135 -0.2903  0.1306  0.3172
25379W        W41453  10.638   0.469   0.583 -0.3152  0.0384  0.2767
25380W        W41454   8.085  12.337   4.303  0.1369  0.2946  0.1026
25381W        W41455  10.912   6.710   0.116 -0.1140 -0.2614  0.0427
25382W        W41456   8.285  17.668   4.136  0.0760  0.0937 -0.0208
25383W        W41457  15.362   4.267   3.094  0.0069 -0.0370 -0.0539
25384W        W41458   7.419  12.161  12.895  0.1603  0.0676  0.4957
25385W        W41459   7.697   7.004  13.190  0.0538  0.0406 -0.0259
25386W        W41460  17.186   9.883   1.600  0.0893  0.2400 -0.2641
25387W        W41461  13.250  14.621   3.039  0.0973  0.1626 -0.1180
25388W        W41462  15.641  16.324   2.258 -0.1676 -0.1139 -0.0450
25389W        W41463  17.171  18.614   9.848  0.0662 -0.2490  0.1754
25390W        W41464   9.880   5.210   0.949  0.1015  0.0641 -0.1003
25391W        W41465   7.104  16.922   3.028 -0.2415  0.2639 -0.3360
25392W        W41466  18.665   9.604   8.839 -0.4830  0.1239 -0.1673
25393W        W41467  12.775   9.962  10.165 -0.1826  0.3556 -0.2504
25394W        W41468   2.406  15.824   3.578 -0.1387 -0.0677  0.1818
25395W        W41469  12.766   8.804   1.254 -0.1945  0.1408 -0.1352
25396W        W41470  17.033  18.269  12.135  0.1373  0.2693  0.2269
25397W        W41471   8.631  10.704   3.988 -0.0241 -0.0835  0.1100
25398W        W41472   8.395  15.887   1.877 -0.2484 -0.0705  0.1825
25399W        W41473  11.905   2.884   4.285  0.2447  0.2454  0.2666
25400W        W41474  15.286  12.809  10.947  0.0839 -0.1012  0.5043
25401W        W41475   1.984  16.551  13.769 -0.3225  0.1252  0.2671
25402W        W41476  18.605  10.249   4.630 -0.0071  0.1333 -0.1418
25403W        W41477   0.764  16.268   2.184  0.0235  0.0888  0.1541
25404W        W41478  12.519  17.819   1.055 -0.0959 -0.2135 -0.3582
25405W        W41479   7.619   9.589   0.436 -0.0051  0.0387 -0.0819
25406W        W41480  10.054   1.983  12.727  0.1824  0.0648  0.4154
25407W        W41481  18.350  10.595   3.403  0.2954  0.1651 -0.0207
25408W        W41482  17.128   5.835  11.153  0.2607  0.0400  0.1548
25409W        W41483  15.860   8.147  13.927  0.2232 -0.3639 -0.1350
25410W        W41484   2.764  12.330  12.766  0.3766  0.3437 -0.1714
25411W        W41485   3.657  11.186   0.957 -0.0233 -0.0758 -0.0266
25412W        W41486   1.372  11.602  12.803 -0.3501 -0.2209  0.3483
25413W        W41487   2.880  10.952  12.225 -0.4615 -0.1016 -0.2363
25414W        W41488  17.838   7.536   4.217 -0.0286 -0.5060 -0.3647
25415W        W41489   0.113   3.858   0.142 -0.2278 -0.4867 -0.1961
25416W        W41490  12.230   4.165  12.203 -0.0190  0.0938  0.0971
25417W        W41491  11.511   7.275   5.938  0.0756  0.0563 -0.3651
25418W        W41492   4.329  18.302   3.477  0.0531 -0.1539 -0.3372
25419W        W41493  15.187  18.307  12.544 -0.0565 -0.2409 -0.0240
25420W        W41494  17.902   4.931   5.437 -0.3540 -0.1297 -0.0408
25421W        W41495   2.596  14.666   4.469  0.3733  0.3535 -0.0443
25422W        W41496  14.336   2.340  11.668  0.1043  0.0448  0.2243
25423W        W41497  15.397  15.796  12.858  0.1683  0.0494 -0.0339
25424W        W41498   6.720  14.639  14.796 -0.2720  0.0585  0.3603
25425W        W41499  17.388   1.393  12.110 -0.1200  0.2527 -0.1771
25426W        W41500  14.313  15.692  12.160  0.0677 -0.0833 -0.0833
25427W        W41501   6.796   6.640  14.243  0.3569  0.2671 -0.1348
25428W        W41502  16.429   2.364   3.627 -0.2022  0.0158 -0.0475
25429W        W41503  13.140  16.501   1.450 -0.2040  0.1621 -0.0780
25430W        W41504   1.892   2.185  13.169 -0.0149 -0.2212  0.3217
25431W        W41505   5.448   7.433  11.254 -0.0666 -0.2133 -0.1199
25432W        W41506   0.899   2.617  13.272  0.3499  0.3039 -0.0074
25433W        W41507  16.003  13.166  14.942 -0.4341  0.1132  0.0515
25434W        W41508  16.159   1.233   1.164  0.2603 -0.1960  0.1260
25435W        W41509   0.949  16.139  11.623  0.1272  0.0750 -0.0273
25436W        W41510   7.465   7.199   1.279  0.1172 -0.2986  0.4102
25437W        W41511  19.172   0.128  10.687  0.0792  0.1253 -0.1070
25438W        W41512  15.173   7.790   5.124 -0.2839 -0.0379 -0.1874
25439W        W41513   2.822   0.220   4.823 -0.2931 -0.1484 -0.2721
25440W        W41514  16.364  18.357  11.666 -0.2103 -0.2512 -0.1533
25441W        W41515   8.009   1.182  14.409  0.4144 -0.1589  0.2298
25442W        W41516  19.056  15.448  12.298 -0.0764  0.0225  0.1652
25443W        W41517   1.967  11.820  11.544  0.0682 -0.1272  0.1265
25444W        W41518   5.334  13.546   3.079  0.2955 -0.0855  0.2570
25445W        W41519   9.725   9.626   2.568  0.0466  0.0278 -0.1412
25446W        W41520  12.578  18.316  14.620 -0.0484  0.0848  0.1968
25447W        W41521  14.040   3.079   2.124 -0.0641 -0.0346  0.0765
25448W        W41522   6.240   1.529  14.970  0.2021  0.0219  0.2484
25449W        W41523   2.825   2.730   0.799  0.0139 -0.4844  0.0693
25450W        W41524   9.879  15.369  14.130  0.0005 -0.4012  0.0407
25451W        W41525   2.951   9.454   1.936 -0.0692 -0.0204  0.0827
25452W        W41526  13.304   1.798   1.602  0.0175 -0.0056  0.2757
25453W        W41527   2.638  15.867   1.055  0.2729  0.1589 -0.1629
25454W        W41528  10.050  13.318  13.435  0.1925 -0.1839  0.0799
25455W        W41529  12.605  16.746   0.157 -0.0184 -0.1714  0.0292
25456W        W41530   4.736   5.575  12.686  0.0267  0.2883  0.0649
25457W        W41531   9.819   3.376   2.197 -0.0002  0.1790 -0.0971
25458W        W41532   9.320  15.339  11.219  0.2022  0.0867 -0.1085
25459W        W41533  12.211  18.755  10.566  0.0286 -0.1485 -0.0742
25460W        W41534  13.091  13.717  10.342  0.1279 -0.0250 -0.0867
25461W        W41535  16.364   9.757  13.073 -0.0635  0.0172 -0.0089
25462W        W41536  16.267  10.074  12.407  0.0362 -0.2376  0.4586
25463W        W41537   8.378  14.184  10.919 -0.2481 -0.3581 -0.1072
25464W        W41538   3.216   5.089   1.787  0.1553  0.0900 -0.0752
25465W        W41539   7.367  10.980   4.710 -0.0928  0.0306  0.1696
25466W        W41540  17.262   5.060  12.470 -0.2581 -0.3196 -0.0090
25467W        W41541   1.033   7.872  14.939  0.2813  0.2616 -0.0595
25468W        W41542  12.454   0.543  14.017  0.0771 -0.3554 -0.2479
25469W        W41543  19.284  15.901  14.877 -0.0708  0.0537 -0.2380
25470W        W41544  15.969  11.764  12.094  0.0212 -0.0521 -0.4458
25471W        W41545   0.294  11.837   2.819 -0.2826  0.0428  0.0780
25472W        W41546  10.150   7.277   1.451  0.0190 -0.1390  0.1110
25473W        W41547   9.328   3.396   4.744 -0.4202  0.2953 -0.1167
25474W        W41548  15.414  11.990  12.762  0.0753  0.2104  0.0407
25475W        W41549  14.161   4.327   3.883  0.2516 -0.2776  0.2074
25476W        W41550   8.480  14.683   3.539 -0.2167  0.0922 -0.1310
25477W        W41551  11.527   9.034  14.893 -0.0665  0.2142 -0.0832
25478W        W41552  13.010   0.634  14.063 -0.3512 -0.0027 -0.0240
25479W        W41553   4.704  12.664  11.059  0.2166 -0.0471 -0.1257
25480W        W41554   1.660  13.718  11.840 -0.0144  0.0729  0.1446
25481W        W41555  15.374   5.850   4.183  0.1912 -0.1356 -0.0030
25482W        W41556   8.613   8.997   1.752  0.0792 -0.0820  0.1213
25483W        W41557   1.329  18.091   0.812  0.0365 -0.1953  0.2259
25484W        W41558  13.647  17.747   1.990 -0.2582 -0.1978  0.0172
25485W        W41559   2.146   3.360  12.837  0.0997 -0.1076  0.0814
25486W        W41560   5.120  11.164   1.669  0.3275  0.0827 -0.1149
25487W        W41561  17.231  16.465  11.772  0.1894 -0.0529  0.0757
25488W        W41562  13.586  11.471   4.198 -0.4415  0.0366  0.1015
25489W        W41563   5.322   5.028   2.059 -0.4361 -0.0470  0.3622
25490W        W41564  18.327  11.726  13.404  0.1568  0.0249 -0.1690
25491W        W41565  17.516  13.050   1.702 -0.0216  0.0002 -0.5327
25492W        W41566   2.170  14.114  14.856 -0.2057  0.1100 -0.1306
25493W        W41567   5.309  14.033   3.031  0.4197 -0.2108 -0.0749
25494W        W41568   3.979  14.495   3.578  0.0714  0.5343 -0.2077
25495W        W41569  15.835   4.252   3.137 -0.1776  0.0430 -0.1640
25496W        W41570  14.636  12.840  10.027  0.3288 -0.0804 -0.0039
25497W        W41571  15.333   2.039  13.967  0.2213  0.0733 -0.0037
25498W        W41572   8.476  16.658   9.767 -0.2016 -0.2075 -0.2134
25499W        W41573  14.155   6.170   2.411 -0.4489  0.2554 -0.3061
25500W        W41574  18.653   3.373  11.851  0.1453 -0.1330  0.2283
25501W        W41575  19.150   4.218   1.306  0.0479  0.1483  0.0190
25502W        W41576   9.220  17.784  12.391 -0.1839  0.3543 -0.0148
25503W        W41577   6.203   9.575   2.762 -0.0208 -0.1383 -0.2202
25504W        W41578   8.916  18.666  13.715  0.2148  0.2496  0.3387
25505W        W41579  18.081   9.110   1.508  0.1649  0.0594 -0.2063
25506W        W41580  11.135  14.400   9.965  0.3123  0.0573  0.0692
25507W        W41581  14.641   3.573   5.037 -0.0507 -0.0805 -0.0795
25508W        W41582  12.465  16.997  10.835  0.1425  0.1228 -0.0990
25509W        W41583  16.539   8.093  14.896 -0.0828  0.0136  0.2714
25510W        W41584  15.884  15.516   8.718 -0.0491 -0.0241 -0.2447
25511W        W41585   8.341   2.788   4.509  0.1668  0.1982 -0.0898
25512W        W41586  18.850   4.435   2.023 -0.0266  0.0903  0.1248
25513W        W41587  15.655   4.206   2.632  0.1416  0.2183  0.0656
25514W        W41588   2.782  18.628  11.873  0.2698 -0.4549 -0.0788
25515W        W41589   4.422  12.179  12.112  0.1752 -0.0983  0.3751
25516W        W41590   0.388  11.331   3.849 -0.0228  0.2843 -0.4569
25517W        W41591  16.814  16.708  14.732  0.2231  0.1491  0.3524
25518W        W41592  17.353   7.340  12.598 -0.0901  0.1241 -0.2848
25519W        W41593  13.545  15.630   5.605  0.0949 -0.0655  0.0765
25520W        W41594  17.548  17.786  11.970 -0.1938 -0.2951 -0.2180
25521W        W41595  16.580   8.935   4.545 -0.4605 -0.3086 -0.1773
25522W        W41596   4.437   5.740   5.366 -0.0735 -0.0216 -0.1469
25523W        W41597  12.544   2.188   2.934  0.4935 -0.2523 -0.1323
25524W        W41598   8.535   1.279  10.720 -0.0731  0.0837  0.0414
25525W        W41599   0.356   3.351   4.758 -0.1319  0.0804  0.3755
25526W        W41600   6.740   6.889   2.643  0.0653  0.1729 -0.0990
25527W        W41601  18.646   9.601   1.787  0.0141 -0.2980 -0.0176
25528W        W41602   4.290  15.437  11.195  0.0763  0.1934 -0.2013
25529W        W41603  15.419  16.337   1.389  0.3184 -0.2157 -0.0554
25530W        W41604   4.416  17.920   4.262 -0.0890 -0.0633 -0.1667
25531W        W41605   5.433   5.236  13.398 -0.1415  0.0814  0.1654
25532W        W41606   6.565  10.625  13.984 -0.2840  0.1583 -0.0886
25533W        W41607   0.563  13.952  12.847 -0.1696  0.1491 -0.1392
25534W        W41608  12.830   2.683  12.544  0.0461  0.2301  0.3932
25535W        W41609   1.774   3.396  14.549  0.0185  0.1885  0.2765
25536W        W41610   7.987  13.136   2.831 -0.1596 -0.1947 -0.4323
25537W        W41611  11.112   7.113  10.971 -0.1769 -0.2675  0.2369
25538W        W41612   7.177  13.368  11.979 -0.2507 -0.3114 -0.0258
25539W        W41613  14.399   5.372  14.650  0.0759  0.0768 -0.0934
25540W        W41614  13.372   6.202   0.233 -0.1352  0.1424  0.1058
25541W        W41615  16.768  12.088  14.249 -0.1552  0.0474  0.2506
25542W        W41616  14.984   4.946   2.511 -0.0539  0.2846  0.0130
25543W        W41617   2.904  19.054   3.835  0.0439 -0.1448  0.0513
25544W        W41618  15.658   2.883   1.531 -0.2982 -0.4967  0.1360
25545W        W41619   3.293  12.454  12.942 -0.3117 -0.1248 -0.4115
25546W        W41620   8.677   0.512   2.864  0.3615  0.0041 -0.2749
25547W        W41621   5.254   9.193   1.866  0.2098  0.2557  0.0447
25548W        W41622  14.382   3.894   0.714 -0.0450  0.2711 -0.1718
25549W        W41623  14.874  19.295   1.417  0.0989 -0.2205 -0.0805
25550W        W41624  12.316  16.261  10.296  0.2511  0.1750 -0.3096
25551W        W41625   2.818   2.047   3.172  0.3329 -0.1728 -0.0050
25552W        W41626  12.285  12.346  14.362  0.2499  0.0975 -0.0830
25553W        W41627  15.394   1.256  12.636 -0.0999  0.1519  0.2840
25554W        W41628   5.473   4.457  11.988 -0.1500 -0.2434  0.2835
25555W        W41629   9.256   2.582   1.345  0.2084  0.1855 -0.2382
25556W        W41630   5.104  14.562   0.472  0.3840 -0.2611 -0.0232
25557W        W41631   3.256   2.553   0.675  0.1447 -0.0544  0.3496
25558W        W41632   0.252   3.841   4.483 -0.0516  0.1710 -0.1226
25559W        W41633  16.397   1.592  10.342  0.3295  0.1370 -0.0161
25560W        W41634  15.060   3.590   2.258 -0.3109 -0.1878  0.1136
25561W        W41635  18.499   0.183   2.191  0.3530  0.0787 -0.2587
25562W        W41636  13.595   0.850   4.046 -0.0607  0.0830  0.1734
25563W        W41637  15.829   8.408  10.475  0.4414  0.2788  0.1618
25564W        W41638  18.718   2.103  14.043 -0.0449 -0.1144  0.0416
25565W        W41639   2.238   7.472  15.024 -0.1049  0.1146  0.2203
25566W        W41640   0.103   4.033   2.706 -0.0256  0.0189 -0.3529
25567W        W41641  12.694   6.534  13.127 -0.0923  0.1942  0.1894
25568W        W41642  13.245   8.821  11.614 -0.4415  0.0844  0.2031
25569W        W41643   9.563   2.134  10.490 -0.1250 -0.0071  0.0903
25570W        W41644   4.752  13.809   3.160  0.2623  0.1377 -0.0676
25571W        W41645   9.040  12.840   5.260 -0.0354  0.1475 -0.2836
25572W        W41646  12.387  13.251  13.362  0.0830 -0.2062 -0.0705
25573W        W41647  18.909  17.706   0.240 -0.0107 -0.1008  0.0201
25574W        W41648   1.947   1.310  12.660  0.1121 -0.1048 -0.2004
25575W        W41649  15.884   0.783  11.471 -0.0279 -0.1025 -0.0995
25576W        W41650  10.297   0.216   3.132 -0.1580  0.1346 -0.3788
25577W        W41651  12.818   3.510   1.654  0.1879  0.4049  0.1304
25578W        W41652   5.255   8.423  13.302 -0.0927  0.0728 -0.0240
25579W        W41653   1.614   5.053  11.258 -0.4346  0.0088  0.0895
25580W        W41654  12.709  10.952  12.933 -0.0394 -0.2624 -0.3241
25581W        W41655   7.216  14.504   0.160 -0.0342 -0.1153  0.1136
25582W        W41656   7.845   1.785  11.359  0.0635 -0.3236  0.1314
25583W        W41657   2.908  16.200  11.669  0.0186 -0.1428  0.0674
25584W        W41658  11.686   6.154  12.164 -0.0263  0.0304 -0.0090
25585W        W41659   8.205   9.666  11.635  0.2727  0.2222 -0.4595
25586W        W41660  17.939  11.006   2.556 -0.0393  0.0418 -0.3645
25587W        W41661   3.106  15.288   9.135  0.2160  0.2269 -0.2554
25588W        W41662  14.474   1.884   2.077  0.1189 -0.1534 -0.0436
25589W        W41663   2.739  13.334   4.047 -0.0435  0.1376 -0.3766
25590W        W41664  18.130  16.317   2.113 -0.0918  0.0739  0.0098
25591W        W41665   0.008   4.007  11.518  0.0920  0.1721 -0.0439
25592W        W41666  16.213   9.314  11.856 -0.0437  0.0706  0.1747
25593W        W41667  11.739  18.408   4.515 -0.1445 -0.1423  0.2309
25594W        W41668  14.709   0.709  11.496 -0.0378 -0.3450  0.0131
25595W        W41669  13.887  16.767   0.738  0.0949 -0.1162  0.1155
25596W        W41670  16.488  18.290  12.184 -0.1746 -0.3047  0.0448
25597W        W41671   7.664   9.582  11.122  0.0604  0.2353  0.2227
25598W        W41672   2.225   4.002   3.638  0.0308 -0.2255  0.1211
25599W        W41673   0.237   6.001  10.563  0.0012 -0.4324  0.2714
25600W        W41674   3.395   3.954  11.819 -0.6426  0.4897  0.1095
25601W        W41675  13.196   8.347   2.023  0.1863  0.0716  0.0274
25602W        W41676  17.837   4.516  12.508  0.0018 -0.0179 -0.1309
25603W        W41677   1.408  14.788   3.601 -0.1547  0.4107  0.0446
25604W        W41678  13.160   6.050   3.896 -0.3273  0.0199 -0.2432
25605W        W41679   3.984   3.328  11.688  0.0466 -0.0845 -0.1364
25606W        W41680   6.738  13.871   5.594 -0.1454 -0.2063 -0.1128
25607W        W41681  14.555  12.204   2.719  0.1448 -0.1345  0.1702
25608W        W41682  13.787  15.989   2.579  0.0285 -0.0594  0.1775
25609W        W41683   7.912  17.997  14.837  0.1281  0.4213 -0.1254
25610W        W41684   7.326   5.594  13.398  0.0584  0.0339 -0.2251
25611W        W41685   0.269  11.245   1.518 -0.2099 -0.0194 -0.3522
25612W        W41686   2.153   0.375  14.341  0.4223 -0.1017  0.1586
25613W        W41687  14.654  11.743   3.127 -0.1173 -0.2984 -0.0796
25614W        W41688   4.157  16.667  14.275  0.1090  0.0897  0.0940
25615W        W41689   3.836   0.905   3.383 -0.0379 -0.1599 -0.0658
25616W        W41690   5.246  10.722   0.048 -0.0870  0.0161  0.0986
25617W        W41691   9.354  17.415  11.555 -0.0234 -0.2281  0.2207
25618W        W41692   8.806  15.478   0.097  0.1369  0.0133 -0.2140
25619W        W41693  14.950   2.467   2.483 -0.1788  0.0919  0.3460
25620W        W41694  17.916  17.408  13.693  0.1399  0.2215  0.0756
25621W        W41695  16.445  10.364  11.990  0.0248  0.1201 -0.0673
25622W        W41696  18.378  18.978  14.369  0.0276 -0.2470  0.0678
25623W        W41697   9.230  12.683   4.784 -0.1743 -0.0530  0.1580
25624W        W41698  10.893   8.928   2.644  0.0232  0.1312  0.0929
25625W        W41699  12.023   9.625  11.894 -0.2474  0.0890 -0.0256
25626W        W41700  11.918   1.239  12.316 -0.2556 -0.0078 -0.0634
25627W        W41701  18.599  14.845  12.564  0.3382 -0.1057  0.1930
25628W        W41702  14.618   2.325  10.636 -0.2097 -0.0760 -0.3598
25629W        W41703  17.438  17.551  10.673 -0.0989 -0.1339 -0.2168
25630W        W41704  19.211   5.174  10.831 -0.1082 -0.0254  0.1121
25631W        W41705  16.002  18.495   9.801  0.0357 -0.1706  0.2775
25632W        W41706  18.291  16.110  10.948  0.4001  0.0359 -0.0844
25633W        W41707   4.337   2.547  14.434 -0.0338  0.1311  0.1976
25634W        W41708  14.254   6.433  12.001 -0.0325 -0.1622 -0.3076
25635W        W41709   3.804   8.402  13.563 -0.1288  0.1744 -0.2557
25636W        W41710  16.778   9.352   4.374  0.1836 -0.1257 -0.0846
25637W        W41711  11.136  11.048  10.942 -0.5322  0.0430  0.0024
25638W        W41712   9.695   8.253  13.020 -0.2547  0.1391 -0.2900
25639W        W41713   1.709  10.881  13.395 -0.0469  0.3290  0.1994
25640W        W41714   8.352  18.862   4.580  0.2235 -0.2169 -0.2390
25641W        W41715  11.016   2.710  12.054 -0.0834 -0.1572 -0.6219
25642W        W41716   7.173  10.839  12.405 -0.3062  0.1538 -0.1236
25643W        W41717  15.025  15.398   0.596  0.3632  0.1575  0.3439
25644W        W41718  15.496  11.674  12.228  0.1676 -0.0042 -0.0643
25645W        W41719   8.216   5.972  11.212 -0.3462  0.2064  0.2534
25646W        W41720   0.058  18.010   5.434  0.0464 -0.2640 -0.0521
25647W        W41721   8.535   8.862   5.815  0.0314 -0.0790  0.2268
25648W        W41722   5.367  16.322   1.250 -0.0096  0.3937  0.0897
25649W        W41723  10.590   3.313   0.597 -0.0241  0.0338  0.1240
25650W        W41724   0.087   6.759   2.044  0.3499  0.1930 -0.1150
25651W        W41725   8.784  11.821   2.278  0.2618 -0.2115  0.1212
25652W        W41726  11.546   3.023   1.282  0.4465  0.2491  0.1292
25653W        W41727   8.930   9.524  13.912 -0.0028  0.2590 -0.0656
25654W        W41728  14.884  17.897   0.521 -0.2181 -0.0999 -0.1421
25655W        W41729  12.639   3.776  12.259  0.0486 -0.0611  0.1347
25656W        W41730   6.078  10.873  10.716 -0.1133 -0.0411  0.0338
25657W        W41731  14.432  12.937  15.058 -0.2198 -0.1360  0.1598
25658W        W41732   5.167   9.501   5.796  0.0253 -0.0605  0.1658
25659W        W41733  10.877   1.854  11.970 -0.4182 -0.0362 -0.2104
25660W        W41734  16.708   3.038   4.534 -0.2221 -0.1555 -0.0269
25661W        W41735  17.109   5.424   0.664  0.0744 -0.0723 -0.0556
25662W        W41736   3.802   7.333   1.652 -0.0043 -0.1001 -0.0059
25663W        W41737  18.692  15.155  10.163  0.0859  0.0885 -0.3584
25664W        W41738  11.211   0.807  14.939 -0.4541  0.0595 -0.2417
25665W        W41739   1.575  12.933  14.147 -0.0792  0.0215 -0.2641
25666W        W41740   8.539   0.001   4.773 -0.1744  0.0317 -0.1415
25667W        W41741  17.823  18.318  13.368  0.2741  0.1311  0.2507
25668W        W41742   0.369   4.228  13.731  0.4680  0.1367  0.2865
25669W        W41743   1.247  13.282   0.325 -0.0755 -0.3911  0.0900
25670W        W41744   7.965   8.237   0.409  0.4016 -0.1784 -0.0488
25671W        W41745   3.878  15.639   0.982 -0.2110 -0.1988  0.3674
25672W        W41746   5.516  17.307  14.001  0.2902  0.4363  0.1417
25673W        W41747   0.545  10.542   2.628 -0.2537  0.3734  0.2184
25674W        W41748   4.928   3.521   1.522  0.2564 -0.1031 -0.0414
25675W        W41749  18.205  15.440  13.981 -0.1523 -0.0238  0.2936
25676W        W41750   0.644   7.482   0.704 -0.0357 -0.2422 -0.0145
25677W        W41751  16.565  12.691   3.648  0.1732 -0.1227 -0.4259
25678W        W41752   4.926   5.477   3.537 -0.0142 -0.3124  0.1003
25679W        W41753   9.962  16.000  11.628  0.0885  0.2804  0.1657
25680W        W41754  10.254   4.514   3.738 -0.1933  0.3972 -0.3158
25681W        W41755  11.577  13.463  13.410  0.1245 -0.1905  0.2802
25682W        W41756  18.601  17.507  11.070  0.2694 -0.3629  0.1838
25683W        W41757   6.112  11.787  10.827  0.1473 -0.0702  0.1567
25684W        W41758  16.733   4.348   0.902 -0.0441 -0.0770  0.1798
25685W        W41759   8.135   6.550  12.165 -0.0665 -0.2407 -0.0829
25686W        W41760  11.674   8.683   3.162 -0.0256 -0.1909 -0.1756
25687W        W41761  13.898   4.147  13.695  0.2864  0.0598  0.0242
25688W        W41762  14.233   0.531   3.001 -0.0082 -0.0692 -0.0209
25689W        W41763  13.624  16.653  15.006  0.1049  0.1751  0.0577
25690W        W41764   1.951   5.088  10.108 -0.1119 -0.3304 -0.0080
25691W        W41765  19.012   8.497  12.742  0.0548 -0.1375  0.3495
25692W        W41766   6.910  15.116   5.157  0.0413  0.0576  0.2586
25693W        W41767   7.637   4.662  12.159  0.0746 -0.5379 -0.1422
25694W        W41768  16.641  12.485   0.241 -0.1458 -0.2274  0.1311
25695W        W41769  13.355   4.687  12.523 -0.2697 -0.2899 -0.1438
25696W        W41770  11.270   0.413  10.581 -0.0981 -0.2541  0.1621
25697W        W41771  14.268   8.507  10.846 -0.2749 -0.0016  0.2109
25698W        W41772  16.894   2.986   5.222  0.0201  0.1528  0.0473
25699W        W41773   8.622   6.400   4.073 -0.0367  0.0394  0.0668
25700W        W41774  14.897   5.753   4.980 -0.2212  0.0295 -0.0155
25701W        W41775  15.766   7.859   2.592 -0.2018 -0.2710 -0.0431
25702W        W41776   0.577  17.590   0.509  0.0366 -0.0182  0.0305
25703W        W41777  15.018  13.419   2.318  0.0178  0.3352  0.0123
25704W        W41778  18.850  14.258  11.769 -0.1143 -0.2565  0.0815
25705W        W41779   5.629   6.331   2.266  0.0404 -0.4594  0.0734
25706W        W41780   6.193   9.732  10.668  0.2749 -0.2249  0.1688
25707W        W41781  14.805  10.622   1.513  0.2674 -0.0351 -0.0948
25708W        W41782   0.253   6.313   1.335  0.4537  0.3157  0.0131
25709W        W41783   9.778   3.024  14.192 -0.0606 -0.2313  0.0929
25710W        W41784   4.343  15.594  13.503 -0.0572 -0.2076 -0.0447
25711W        W41785   7.930   6.987  12.693 -0.2048 -0.0880  0.0917
25712W        W41786  17.113   8.779  13.571  0.0011  0.0865  0.0867
25713W        W41787   2.239  14.851   4.074 -0.0478  0.1309 -0.1256
25714W        W41788  16.824   7.029  13.884  0.3399  0.1152 -0.0553
25715W        W41789   3.276   2.607   3.038  0.2295 -0.0623 -0.0603
25716W        W41790   9.461   8.941  14.400 -0.0250  0.3388  0.1387
25717W        W41791  13.756  13.180  12.524 -0.0014  0.1169 -0.0748
25718W        W41792   7.974  16.662   0.101  0.3354 -0.0415 -0.0226
25719W        W41793  19.076  13.480   3.203  0.1591  0.3520 -0.0441
25720W        W41794  18.679  17.294   1.706 -0.0602 -0.0963 -0.0597
25721W        W41795  11.622   9.058  10.745  0.1989  0.0370 -0.0675
25722W        W41796  14.483  10.024   2.373  0.3760  0.4044 -0.1100
25723W        W41797   5.926   3.722   0.501 -0.2255  0.1473 -0.1233
25724W        W41798  15.992  13.061   5.243  0.1199  0.1104  0.0402
25725W        W41799   6.374   4.583  11.689  0.2237  0.1417  0.0826
25726W        W41800   8.988   5.047  14.363  0.5606 -0.1054  0.1602
25727W        W41801   8.487   0.742  10.747 -0.5413 -0.0851 -0.3915
25728W        W41802   6.829   8.828   5.376  0.1720  0.0086  0.3337
25729W        W41803  13.529  17.682  12.462  0.2615  0.2135 -0.2135
25730W        W41804  12.472   6.970  14.830  0.1971  0.2276 -0.2080
25731W        W41805   0.273   3.768  13.402 -0.0901  0.1192 -0.0272
25732W        W41806   9.732  17.882  13.817 -0.0790  0.0240  0.0159
25733W        W41807  13.545  11.224   0.838 -0.0130  0.0316 -0.1883
25734W        W41808  18.856  17.351   1.260  0.0476 -0.0150  0.0770
25735W        W41809   3.104  15.034   4.201  0.0289 -0.0394  0.0557
25736W        W41810   2.427  16.155  13.531  0.2154  0.4279 -0.2328
25737W        W41811  16.593  12.315  11.290  0.3836 -0.2230 -0.2658
25738W        W41812   5.495   0.935  12.934  0.2008  0.0737 -0.1705
25739W        W41813   7.627  17.036   4.231  0.0322  0.0898 -0.0980
25740W        W41814   7.984   3.274  10.944  0.2997 -0.1768 -0.0648
25741W        W41815  17.407   2.558  13.831 -0.3866 -0.0319  0.0113
25742W        W41816  10.335   9.068   9.771  0.0459  0.0051 -0.2509
25743W        W41817   9.483  15.051   2.512  0.0359  0.3068  0.0054
25744W        W41818  18.937  18.739  11.891 -0.1743 -0.0484 -0.0317
25745W        W41819   7.316  14.160  13.264 -0.0474  0.2263  0.0465
25746W        W41820  13.614  17.418   0.186  0.1206 -0.0133  0.1548
25747W        W41821   0.461  12.169   1.309  0.1496  0.3291 -0.0379
25748W        W41822   4.980   6.159   4.869  0.0340 -0.2388 -0.1159
25749W        W41823  19.202  14.942   3.328 -0.3760  0.3429 -0.3060
25750W        W41824   6.768   3.031  14.051 -0.0759  0.0595  0.1967
25751W        W41825   7.494  11.461  10.863  0.1364  0.1713 -0.2671
25752W        W41826  14.872   8.253  11.660 -0.0644  0.1061  0.0339
25753W        W41827  11.915  13.078  12.580  0.0094 -0.2601  0.0486
25754W        W41828   0.325   8.139  11.182 -0.0967  0.1503 -0.1734
25755W        W41829   4.802  15.088  12.301  0.0302  0.1458 -0.0212
25756W        W41830  12.255   6.641  10.510  0.2339  0.0492  0.2478
25757W        W41831  12.356   3.693   1.941  0.2998 -0.1654 -0.1630
25758W        W41832  18.904  14.584  14.424 -0.1555 -0.4047 -0.0216
25759W        W41833   8.551   2.300  12.807  0.0229 -0.0848 -0.0458
25760W        W41834  13.429  18.191  12.353  0.1158  0.2953  0.2036
25761W        W41835   1.832   0.916   1.607  0.1570  0.0706  0.0214
25762W        W41836   6.401  12.725  12.032 -0.0080 -0.0820 -0.0359
25763W        W41837   5.852   2.491  11.425  0.1782 -0.0773 -0.0306
25764W        W41838  13.489  11.410  12.433 -0.3367 -0.3124  0.1055
25765W        W41839  14.932  10.635  13.324 -0.3745 -0.0642 -0.0480
25766W        W41840  10.030   2.231  14.521  0.0957 -0.0719 -0.0537
25767W        W41841  18.292  13.192   3.297  0.0461  0.0681  0.3573
25768W        W41842  13.057  16.087  14.557 -0.3490  0.0342  0.3735
25769W        W41843   8.023  11.866   4.877 -0.0677 -0.2524 -0.0658
25770W        W41844  15.845   8.685   0.959  0.1330  0.3118  0.0239
25771W        W41845  14.654   9.352  12.936  0.0795 -0.1882  0.2041
25772W        W41846  19.150  14.616  13.445 -0.1658 -0.1774  0.1977
25773W        W41847   5.169   6.553  13.151  0.0473 -0.0951  0.2463
25774W        W41848  10.624  14.027   4.412  0.0648  0.0779 -0.0081
25775W        W41849  12.104  16.257   4.467 -0.1713 -0.2781  0.0357
25776W        W41850   5.404  12.642  13.751 -0.1376  0.2028  0.1590
25777W        W41851  15.584   6.853   2.632 -0.1265 -0.1126 -0.0587
25778W        W41852   8.892   1.371   3.564 -0.1640  0.2101 -0.1237
25779W        W41853   9.640  10.125  13.986  0.1744  0.0673  0.3219
25780W        W41854  18.213  12.718  14.268  0.1285 -0.1697  0.2483
25781W        W41855   4.531  12.143   2.538  0.3535 -0.1020 -0.0642
25782W        W41856  17.376  14.176  14.046 -0.1519 -0.0142 -0.4234
25783W        W41857   2.618   3.578  11.323  0.0168  0.0353 -0.2031
25784W        W41858  16.972  14.481  14.180 -0.2505  0.0116 -0.2281
25785W        W41859   3.589   1.556   4.405  0.0419  0.4159 -0.1262
25786W        W41860   3.157   8.405   3.576 -0.0043 -0.1389  0.1010
25787W        W41861   0.729   2.353  11.733 -0.0069  0.0730 -0.0139
25788W        W41862  19.045   8.930   5.010  0.3822 -0.2537  0.1849
25789W        W41863   9.375   3.111   1.513  0.0733  0.0271  0.2106
25790W        W41864   8.907  15.134  14.369 -0.0848 -0.1089 -0.4130
25791W        W41865   1.385   2.195   1.498 -0.0696  0.2394  0.0320
25792W        W41866   5.523   2.585   4.305  0.2368 -0.1414 -0.1816
25793W        W41867  10.062   6.765   1.224  0.3487  0.0238 -0.0345
25794W        W41868  12.990   2.043   3.106  0.1088  0.0716  0.4619
25795W        W41869   9.368   5.462   0.869  0.0915 -0.2773 -0.0798
25796W        W41870   0.950  15.231   5.070  0.0210 -0.2037  0.5845
25797W        W41871   4.924  10.258   2.088  0.1738 -0.0075 -0.1373
25798W        W41872  10.593  16.696   3.125  0.0477 -0.4221 -0.2206
25799W        W41873   8.390   3.370   3.745 -0.0518 -0.1931 -0.0000
25800W        W41874  13.076  11.333   0.949 -0.1169 -0.1338  0.2856
25801W        W41875  14.829  11.192  14.369  0.0052 -0.0312  0.5049
25802W        W41876  14.484  12.066  12.868 -0.1752  0.0752 -0.1555
25803W        W41877  14.710   4.237   3.950 -0.0010 -0.0647 -0.4198
25804W        W41878  18.701  18.511  10.784 -0.0853 -0.2542 -0.2216
25805W        W41879  17.593   7.548  13.992  0.0504 -0.1498  0.0080
25806W        W41880   3.577   7.898  13.481  0.1717 -0.0262  0.0666
25807W        W41881  11.954  12.455   9.473  0.1493  0.1944  0.1479
25808W        W41882   3.186  12.995  14.206 -0.1709 -0.0207  0.2186
25809W        W41883  15.459   4.512  14.676 -0.0882  0.3076  0.0025
25810W        W41884  12.554  12.500   1.763  0.1947 -0.1576  0.1997
25811W        W41885   7.532   4.287  13.640 -0.0979 -0.0986 -0.1276
25812W        W41886   9.820  18.344   2.559 -0.1687 -0.1371  0.2480
25813W        W41887   9.816  18.419   3.612  0.0770 -0.0447 -0.1195
25814W        W41888   2.517   7.883   1.893 -0.3671  0.2762  0.0261
25815W        W41889  12.377   8.703   3.479  0.2655  0.0037  0.0338
25816W        W41890   5.164   4.575  14.399 -0.1541 -0.0995  0.0346
25817W        W41891   6.091   3.306   4.722  0.0746  0.3661  0.1508
25818W        W41892  15.969  16.870  13.025  0.1467  0.0049 -0.1661
25819W        W41893   8.393  19.220  14.525  0.3145  0.2290 -0.0043
25820W        W41894  10.155  17.047   2.534 -0.0783  0.1328  0.1930
25821W        W41895   9.122  15.640  12.986  0.2941 -0.2132  0.0480
25822W        W41896  17.438  14.987   5.015  0.1678  0.0035 -0.0842
25823W        W41897  13.215   3.899   5.615 -0.1707 -0.2898  0.0733
25824W        W41898   4.921  15.273   3.955 -0.2199 -0.0669 -0.1976
25825W        W41899   2.619  18.347  12.550 -0.5579  0.3356 -0.1885
25826W        W41900   6.550  12.280  10.514  0.3395 -0.1915 -0.1542
25827W        W41901  11.603   0.841  12.341  0.1998  0.0462 -0.0267
25828W        W41902  16.979  14.616   1.586  0.2066  0.3534  0.1097
25829W        W41903  18.022   6.676   4.867 -0.3422  0.1692  0.2287
25830W        W41904  17.413   2.795   3.152 -0.0703 -0.1148 -0.1753
25831W        W41905  15.400  10.015   5.525  0.1433 -0.2543  0.0135
25832W        W41906  12.898   7.205   5.767  0.0716 -0.1630  0.4653
25833W        W41907   4.085  15.781   3.039  0.0911 -0.0261 -0.0189
25834W        W41908   3.986  19.115  11.748  0.1600  0.0511 -0.1833
25835W        W41909  15.247   5.424   2.166 -0.1645 -0.0705 -0.1285
25836W        W41910  18.930   1.320  10.330  0.0972 -0.2669 -0.1517
25837W        W41911   5.136   1.583   5.307  0.1105 -0.0911 -0.2880
25838W        W41912   6.005  14.767  14.625 -0.2616  0.2756 -0.2229
25839W        W41913   5.331   3.310   3.438 -0.0121  0.2275 -0.2528
25840W        W41914   5.775   0.181  13.390 -0.2989 -0.0638 -0.0012
25841W        W41915   2.069  11.212   1.808  0.1464 -0.0186 -0.2809
25842W        W41916  12.094  18.356   2.308  0.3013  0.2235  0.0287
25843W        W41917   3.180  14.708   3.578 -0.1327 -0.1721  0.0180
25844W        W41918   2.233   1.882  11.135  0.0414  0.0869  0.5166
25845W        W41919   8.107  16.551   4.725  0.0127  0.1487 -0.0743
25846W        W41920  10.008   1.811  11.520  0.0960  0.0533 -0.2101
25847W        W41921   7.003  18.769   4.786  0.2745  0.0324  0.2103
25848W        W41922   5.522   0.226   1.391  0.0191  0.1891  0.1255
25849W        W41923   7.469   5.752   5.508  0.4343  0.0638  0.0847
25850W        W41924  14.616  10.176  13.267 -0.0528  0.2401 -0.3896
25851W        W41925  11.477  10.438  13.388 -0.2787  0.3224  0.0577
25852W        W41926   8.481  15.107   4.824  0.0689 -0.3625 -0.4325
25853W        W41927   8.509   5.500   3.351  0.0189  0.2017  0.0011
25854W        W41928  10.600   0.432   4.733 -0.1768 -0.0650  0.0405
25855W        W41929   4.791  14.733   1.676 -0.1578 -0.0141 -0.1895
25856W        W41930  12.033   3.287  12.709 -0.1408 -0.0457  0.0357
25857W        W41931   2.244  18.463   5.233 -0.3808 -0.0958  0.0756
25858W        W41932   0.764  14.669  13.462 -0.0059 -0.0186 -0.3374
25859W        W41933  11.951   8.173  12.302  0.2579  0.0065 -0.0680
25860W        W41934  15.264   3.746   9.685 -0.2295 -0.0279  0.1610
25861W        W41935   7.102  18.806  11.502  0.2409 -0.0444 -0.2013
25862W        W41936  16.651   9.430  13.868 -0.2496  0.0406  0.2097
25863W        W41937   0.819  11.872   1.425 -0.0649 -0.0712  0.1425
25864W        W41938   0.445  13.653   4.666  0.3802  0.0370 -0.1435
25865W        W41939  13.963   9.575  13.193 -0.2254  0.1554  0.1628
25866W        W41940   7.207  16.001  13.414  0.0157 -0.1802 -0.0869
25867W        W41941   4.070   1.101  11.834  0.0782  0.0061  0.5292
25868W        W41942   2.054  14.594   2.142  0.1269 -0.0556 -0.1821
25869W        W41943  15.716   9.390  13.833 -0.1935  0.3095 -0.3599
25870W        W41944  14.936  11.381  10.353  0.3643 -0.0268  0.2435
25871W        W41945   8.639  17.439  12.957 -0.5025  0.1137  0.0851
25872W        W41946  18.812   6.500  12.418 -0.0352  0.0033  0.3154
25873W        W41947   4.073  11.180  13.329  0.0061  0.1298 -0.2630
25874W        W41948   6.549  13.690   2.258 -0.0144  0.2246  0.1934
25875W        W41949   3.799  17.027   0.832 -0.1649  0.0506  0.1179
25876W        W41950   3.841  16.256  12.907 -0.0339  0.0832  0.2349
25877W        W41951  10.656   3.686   0.207 -0.3381  0.0613  0.0443
25878W        W41952   8.253   3.394   5.805 -0.2366 -0.0609 -0.2278
25879W        W41953   9.132   9.934  12.549 -0.2158 -0.3415 -0.1116
25880W        W41954  15.546   9.743  13.434  0.0998 -0.0111 -0.3439
25881W        W41955  17.707  14.827  13.300 -0.0131 -0.2031 -0.1679
25882W        W41956  16.370   8.080   2.273 -0.0593 -0.0543 -0.2705
25883W        W41957   1.321  12.034  15.000  0.0543 -0.1825 -0.0144
25884W        W41958   1.064  13.729  13.330 -0.0354  0.3657  0.0379
25885W        W41959   8.809  14.361  12.801 -0.0882 -0.1173  0.1379
25886W        W41960   0.619  12.420   3.986 -0.1695 -0.1970 -0.0923
25887W        W41961  15.756  13.373  11.042 -0.2608 -0.0600 -0.1051
25888W        W41962   0.309   8.910   9.941 -0.1446 -0.2054  0.1840
25889W        W41963   6.367  12.423  13.272 -0.1359  0.3731 -0.1650
25890W        W41964   3.386   1.168   3.457 -0.1048 -0.2124  0.1672
25891W        W41965   4.766   5.301  13.341  0.2437 -0.0003  0.0176
25892W        W41966   5.568  12.562  12.312  0.0619  0.2378  0.0978
25893W        W41967   0.779   4.935   0.458 -0.0073  0.0760 -0.0002
25894W        W41968   0.520  11.721  12.737 -0.1718 -0.1333 -0.1972
25895W        W41969   5.644   6.733  14.191  0.5167  0.0543  0.3250
25896W        W41970   2.161   4.143  11.590 -0.0782 -0.1811 -0.1120
25897W        W41971   8.065  14.284  14.943  0.1154  0.1850  0.0085
25898W        W41972  10.317  11.823  10.259 -0.1040 -0.0295 -0.3648
25899W        W41973   0.656   2.558  14.429  0.1098  0.1886  0.0178
25900W        W41974   3.728   5.953   0.655  0.0855  0.4831  0.0528
25901W        W41975   2.302  14.351  14.351 -0.1013 -0.2839 -0.0082
25902W        W41976   9.373   3.442   2.640  0.2493 -0.0378 -0.0692
25903W        W41977  15.890   1.860  12.017  0.2208 -0.1005 -0.6502
25904W        W41978   8.467   0.651  14.239  0.1615  0.0302  0.0538
25905W        W41979   8.429  18.985   0.359  0.1289  0.0928 -0.1616
25906W        W41980  15.780   1.353   0.794 -0.3251  0.2468 -0.1488
25907W        W41981   9.600   6.954   4.851 -0.0097  0.0857 -0.1905
25908W        W41982   7.143   4.066   2.149 -0.1870 -0.2104  0.2067
25909W        W41983   1.305   7.269   9.980  0.0309 -0.0390  0.0997
25910W        W41984   7.370  14.026   3.074 -0.2776 -0.0375 -0.1545
25911W        W41985  12.939   6.420  14.973  0.1582 -0.0419  0.0375
25912W        W41986  12.637   9.711  13.514 -0.1255 -0.2401 -0.2263
25913W        W41987   9.664   3.769  14.494 -0.0173  0.1846  0.1655
25914W        W41988  17.015   8.702  14.072  0.1754  0.0756 -0.0437
25915W        W41989  18.645  10.499   0.703 -0.4741 -0.1131  0.3378
25916W        W41990   7.914   7.190  12.131 -0.0989  0.1093  0.2107
25917W        W41991   9.320   8.333   2.445 -0.2612  0.1276 -0.0728
25918W        W41992   3.977   6.133   1.490 -0.0285  0.0560  0.0633
25919W        W41993   0.753  16.874  13.760 -0.1473 -0.0942  0.2834
25920W        W41994  17.262  11.657  12.213 -0.0126 -0.1246  0.0527
25921W        W41995  17.648  17.261  12.129  0.2573  0.4276  0.1058
25922W        W41996   9.718   7.849   4.585  0.0807  0.1760  0.2233
25923W        W41997   8.376   3.596  14.074 -0.0219  0.0309  0.1632
25924W        W41998   4.282   4.900   9.703  0.0823  0.0233  0.1997
25925W        W41999   4.377   3.804  11.995 -0.1022  0.0176 -0.1167
25926W        W42000   3.023   0.721   2.261 -0.2407 -0.1941 -0.2641
25927W        W42001  15.576  12.761  13.402 -0.1099 -0.3077  0.0181
25928W        W42002   4.971   9.995   1.616 -0.1823  0.0482 -0.3646
25929W        W42003  17.547  18.043  11.060 -0.0986 -0.0144  0.0473
25930W        W42004   6.021   0.547   5.571  0.2849  0.2414  0.3466
25931W        W42005   7.390   6.318  14.105 -0.1350  0.1575 -0.2809
25932W        W42006  17.345  17.529  14.336  0.0636 -0.0917 -0.0578
25933W        W42007  18.937   5.303  14.526 -0.0984 -0.0744 -0.2090
25934W        W42008  18.288   4.048   1.318 -0.0770  0.0579 -0.3014
25935W        W42009   2.617   5.810   5.495  0.1379  0.0218  0.1560
25936W        W42010   7.585  17.113   1.691  0.0036  0.2034 -0.2812
25937W        W42011   3.774   8.106  14.006  0.2321  0.0015 -0.3439
25938W        W42012  10.872  12.329  14.128  0.0518  0.0968  0.0193
25939W        W42013   3.595  12.892   1.001  0.0161 -0.1506 -0.1198
25940W        W42014  10.233   7.458  12.953  0.5661 -0.0737 -0.3638
25941W        W42015   0.098   8.920  14.335 -0.1681 -0.0118  0.0248
25942W        W42016   8.352   0.039   1.295  0.0581  0.1840 -0.1923
25943W        W42017  14.295  12.025   0.457  0.1057  0.2091 -0.0646
25944W        W42018  12.629   3.655  13.952 -0.0050  0.0489  0.1793
25945W        W42019  12.181   7.508   2.792 -0.0533  0.0411  0.0704
25946W        W42020   8.832   6.959   1.656 -0.0714 -0.0034 -0.2184
25947W        W42021   4.881   2.244   3.763  0.2682  0.4352 -0.0058
25948W        W42022  19.031  18.954  10.845  0.1848  0.2387 -0.2207
25949W        W42023  17.291  19.245   1.803 -0.2371  0.0704 -0.1406
25950W        W42024  10.077   8.225   2.945 -0.1978 -0.2033  0.0848
25951W        W42025   1.215  17.198   2.478 -0.0291 -0.4310 -0.1401
25952W        W42026   4.673   4.486   3.833 -0.1360 -0.0243  0.1325
25953W        W42027   0.701   6.282   5.152 -0.0720  0.1816 -0.0777
25954W        W42028   9.306  11.439   3.966 -0.0562  0.2332  0.2976
25955W        W42029  17.117  16.345  11.310  0.2820  0.2601 -0.0634
25956W        W42030  10.005  10.920   1.094  0.1354  0.0414  0.0793
25957W        W42031   2.143   5.572   0.050  0.2787  0.3068 -0.0146
25958W        W42032   1.867  19.163   9.871 -0.1295  0.2149  0.1066
25959W        W42033   5.715   0.633   0.454 -0.0951 -0.1795 -0.0044
25960W        W42034  15.187   5.551  13.442 -0.2512  0.2689  0.2060
25961W        W42035   2.828   5.473   1.890  0.1360 -0.1608  0.3023
25962W        W42036   4.227   4.097   0.980  0.0228 -0.2002  0.0978
25963W        W42037   6.396   6.914   3.910 -0.3352  0.0743  0.0123
25964W        W42038   5.772  12.027   5.062  0.1591  0.0682 -0.1572
25965W        W42039   4.763   8.277  12.827  0.0503  0.2088  0.2053
25966W        W42040   6.215   6.463  12.387 -0.3537 -0.0341 -0.2293
25967W        W42041  15.916  13.535  12.524 -0.4480  0.0200 -0.3423
25968W        W42042  17.203   1.406  11.653 -0.2500  0.2136  0.1431
25969W        W42043  11.139  11.735   4.387 -0.0333 -0.2114  0.3440
25970W        W42044   6.645   2.556  12.694  0.1912  0.1609  0.3245
25971W        W42045   7.346   4.973  11.573  0.3015 -0.1613 -0.1773
25972W        W42046   0.148   0.045   0.657 -0.0051  0.0082  0.0819
25973W        W42047   0.470  12.804   0.644  0.0496 -0.0613  0.0518
25974W        W42048   2.296   7.209  14.096 -0.1504  0.0625  0.1591
25975W        W42049  15.522  14.338  12.034 -0.2534  0.2058 -0.0992
25976W        W42050  11.301  18.094   2.933  0.1055 -0.0315  0.0525
25977W        W42051  13.256   0.414   4.181  0.2723  0.0948  0.1785
25978W        W42052  17.365  18.460   0.735 -0.0031  0.0732 -0.1357
25979W        W42053   0.789  13.189  14.474 -0.0754  0.0631 -0.1200
25980W        W42054   5.445  15.560  13.334  0.0996  0.0076 -0.0382
25981W        W42055   2.014  10.904   4.179 -0.0029 -0.0192  0.3538
25982W        W42056  10.460  11.469   1.734 -0.2872 -0.0857  0.1530
25983W        W42057  18.892   6.725  11.593  0.2377 -0.0061 -0.0467
25984W        W42058  17.290  16.987   0.688 -0.1016 -0.2411 -0.3838
25985W        W42059  13.782   8.574   1.358  0.0963  0.0212 -0.1052
25986W        W42060   9.756  13.975   1.543  0.1529  0.3238 -0.0003
25987W        W42061  10.844  12.270   2.194  0.0927 -0.1990 -0.2731
25988W        W42062   3.915   1.340   2.646 -0.2572 -0.1391  0.3909
25989W        W42063   7.162   4.134  11.650  0.2148 -0.2301 -0.2437
25990W        W42064  11.573   1.036   2.445  0.2300 -0.0376 -0.2166
25991W        W42065  13.275  10.291  14.108 -0.1677  0.2567  0.0433
25992W        W42066   4.218   9.811   1.498  0.0399 -0.3200  0.0511
25993W        W42067  15.899  10.007  14.715  0.2537  0.0509 -0.1982
25994W        W42068  12.337   3.073  10.651 -0.1914  0.0692  0.4192
25995W        W42069   2.688  19.087  11.526 -0.4166 -0.0631 -0.1906
25996W        W42070  15.608  17.571  12.424 -0.3575  0.0392  0.0658
25997W        W42071  14.148   7.420   1.956  0.1668  0.1161 -0.0367
25998W        W42072   8.980   3.028  13.663  0.2924 -0.3361 -0.3727
25999W        W42073   7.172  15.257  13.291  0.2374 -0.2823 -0.2132
26000W        W42074  12.539   5.037   2.294 -0.1957 -0.0466 -0.0790
26001W        W42075  11.352   1.768  11.471 -0.1671  0.0372  0.1608
26002W        W42076   2.689  15.944  12.097 -0.1280 -0.3371 -0.2138
26003W        W42077  11.514  13.989  13.874  0.2476  0.1480  0.1815
26004W        W42078   2.804   2.956   2.997 -0.0619 -0.1917  0.2192
26005W        W42079  17.660   7.970  14.544  0.1857 -0.0557 -0.0167
26006W        W42080  12.144  15.464  12.890 -0.2061 -0.1542  0.0724
26007W        W42081  14.042  19.103   0.411  0.4413 -0.0887  0.0861
26008W        W42082  19.203   2.799  10.660  0.1353  0.0037  0.4629
26009W        W42083   6.041   0.998   2.446  0.3747 -0.0753  0.0904
26010W        W42084  17.904   9.630  12.290  0.2729  0.1204 -0.0146
26011W        W42085  15.889   1.432  12.799  0.0177  0.2137  0.1864
26012W        W42086   2.462  13.188   1.182  0.1827 -0.1484 -0.0535
26013W        W42087   9.540  10.035  14.979  0.1943  0.2270 -0.2334
26014W        W42088   5.036   7.694  12.086  0.0905 -0.0854  0.5084
26015W        W42089   3.735  17.749  11.860 -0.0298  0.1429  0.1233
26016W        W42090   7.701  18.698  12.805  0.2038  0.2316 -0.0847
26017W        W42091  16.305   8.821   0.988  0.0139 -0.0300 -0.3978
26018W        W42092   5.364   2.034   4.183 -0.1418  0.0535  0.1518
26019W        W42093   5.871  16.058   5.217  0.0837 -0.5449  0.1539
26020W        W42094   6.587   3.182  12.655 -0.2856  0.0425 -0.0147
26021W        W42095   4.186   4.333   3.586  0.2187 -0.1613 -0.1379
26022W        W42096  16.729  18.104  11.455 -0.2172 -0.0291 -0.3209
26023W        W42097   1.928   1.667   3.638 -0.1824  0.1986  0.1881
26024W        W42098  11.415  11.906  12.035  0.2456  0.1198 -0.1984
26025W        W42099  12.903   7.439   0.573 -0.3983 -0.0370 -0.2410
26026W        W42100   3.118   0.059   2.919 -0.0305 -0.0452  0.0930
26027W        W42101  16.955   9.520  10.165 -0.3841 -0.0241  0.0060
26028W        W42102   7.216   3.256   0.206 -0.0781  0.2203  0.3001
26029W        W42103  13.325   1.220   4.451 -0.1232 -0.1801  0.0765
26030W        W42104  18.050   2.971   5.115  0.3598 -0.0669  0.1514
26031W        W42105   7.942  10.747  13.806 -0.2120 -0.2475  0.0461
26032W        W42106  15.027  16.994   4.144  0.1870  0.0538  0.0553
26033W        W42107   4.204   5.726  15.025 -0.1067  0.0253 -0.0026
26034W        W42108   1.723   0.872  14.229 -0.1671  0.2691 -0.1796
26035W        W42109  11.790   6.112  13.013  0.1589 -0.2930 -0.3032
26036W        W42110   0.830   8.812   5.188 -0.0363  0.0536  0.1529
26037W        W42111  17.034   5.356   4.490 -0.0805 -0.0226  0.3785
26038W        W42112   0.604   3.621  12.393 -0.2725  0.1946  0.0689
26039W        W42113   6.565   5.164   2.680  0.1031 -0.1504 -0.2034
26040W        W42114  10.638  10.301  12.963 -0.1520  0.3827 -0.2445
26041W        W42115   0.595   3.286   2.607  0.0614 -0.2120  0.2597
26042W        W42116  15.598  11.491  11.587 -0.0274 -0.1566 -0.1617
26043W        W42117  13.774  10.951  11.066 -0.0378 -0.1639 -0.0855
26044W        W42118   3.170   4.189   2.941  0.2870  0.1504 -0.2609
26045W        W42119  11.643  10.898  13.146 -0.1940  0.0905 -0.2487
26046W        W42120  14.978  12.256  12.699 -0.0759  0.0307  0.2601
26047W        W42121   1.197  12.170  12.675  0.0288 -0.0656  0.1710
26048W        W42122  11.295   5.916  13.747  0.0616 -0.1241 -0.0708
26049W        W42123  17.408   3.534   4.891  0.1198 -0.1308 -0.0566
26050W        W42124   6.667  11.014   4.692  0.2505  0.2139  0.0798
26051W        W42125   2.820   5.295   5.424 -0.1274 -0.1291  0.3554
26052W        W42126  17.592  16.260   1.062  0.2385 -0.1742 -0.1586
26053W        W42127   2.625  13.886  14.998 -0.1720 -0.0055  0.0572
26054W        W42128  12.204   1.625   2.139 -0.0346 -0.5107 -0.0899
26055W        W42129  17.457  12.320  11.936  0.0978 -0.2528 -0.1398
26056W        W42130   9.002  13.758  13.758 -0.3201 -0.3935  0.2004
26057W        W42131  17.969   7.048   5.755  0.1269  0.3269  0.0042
26058W        W42132   2.791  11.165   0.874 -0.1105  0.0561 -0.1382
26059W        W42133  10.156   4.389   0.462  0.0783 -0.3474 -0.1797
26060W        W42134   3.092   0.423  14.793  0.1030 -0.0209  0.2008
26061W        W42135  17.168  10.497  13.795  0.2625  0.3281  0.2747
26062W        W42136   2.438  14.538   2.496 -0.1511 -0.1448  0.0517
26063W        W42137   8.991   1.341   3.073  0.4039  0.0387 -0.1256
26064W        W42138  12.246  16.961   2.598  0.1708  0.1511  0.0382
26065W        W42139   9.594  15.200   2.019  0.0438  0.0414 -0.1805
26066W        W42140   2.105   9.011  10.486 -0.1666  0.3262 -0.0149
26067W        W42141   3.651  18.907  13.421  0.0102  0.3363  0.0105
26068W        W42142  11.394  12.535   2.844 -0.0401 -0.0643 -0.0616
26069W        W42143  15.876   0.642   0.298 -0.0642 -0.3770  0.2362
26070W        W42144   3.746   5.740  13.437  0.2173 -0.0343 -0.0060
26071W        W42145  17.886  10.354  14.880  0.0190  0.2218 -0.2342
26072W        W42146  16.811  15.562  13.231 -0.0517  0.2184  0.2255
26073W        W42147  14.750   5.143   4.314  0.3335  0.1158  0.0688
26074W        W42148   6.548   0.983   4.789 -0.0706  0.1401 -0.2603
26075W        W42149  18.876   7.646   2.501 -0.0798  0.1055 -0.0905
26076W        W42150   0.841   2.496  13.911 -0.1833 -0.3002  0.0382
26077W        W42151   9.069  11.905   4.901  0.1772 -0.0295  0.3121
26078W        W42152  11.961   3.094   5.142 -0.3416  0.0299  0.1131
26079W        W42153   9.694   1.276  12.367  0.3710  0.2515  0.2399
26080W        W42154  10.904  15.916   1.974  0.0002  0.0365  0.0275
26081W        W42155  19.260  13.220   5.456  0.0759 -0.0537 -0.0658
26082W        W42156   7.277  11.037  13.439  0.2979  0.1810  0.1059
26083W        W42157  17.176   3.445  10.758 -0.3016  0.1266  0.0388
26084W        W42158  14.529   5.794  14.913 -0.0644 -0.1053  0.1056
26085W        W42159  18.564   0.047   1.653  0.1226  0.3875 -0.3572
26086W        W42160   1.421   7.993  12.915 -0.1273  0.5036 -0.0091
26087W        W42161  14.637   1.534   2.378  0.2032 -0.0699 -0.1612
26088W        W42162   2.887   1.088   4.603  0.0111  0.1559  0.0800
26089W        W42163   4.337  13.848   1.867  0.1199  0.1132  0.2517
26090W        W42164  15.912  11.381  14.718 -0.5350  0.1865 -0.1767
26091W        W42165  12.044   8.995   1.754 -0.2851 -0.0566  0.1411
26092W        W42166  14.144  13.785  13.832  0.1763 -0.2150  0.3365
26093W        W42167  16.556   9.019  11.545  0.1442 -0.0341  0.4520
26094W        W42168   9.000  18.292   3.258  0.3391 -0.0196 -0.1403
26095W        W42169   5.063   4.854   0.843 -0.1169  0.0300 -0.2636
26096W        W42170  17.319   1.478   5.462  0.0005  0.0239  0.3140
26097W        W42171  17.543   8.378   0.694  0.0891 -0.2160  0.1335
26098W        W42172  17.594  11.209   2.017 -0.1240  0.5156  0.0974
26099W        W42173   6.893  16.028   2.668  0.2225 -0.0633 -0.2723
26100W        W42174   0.025  10.965   1.972  0.3945 -0.1058 -0.1216
26101W        W42175   5.412  13.806   0.641  0.1157  0.1354 -0.3305
26102W        W42176  16.206  10.318  11.082 -0.1659 -0.1305  0.0852
26103W        W42177   1.327   7.366  11.712 -0.1786  0.1995 -0.0988
26104W        W42178   4.814  15.373  14.904 -0.3609  0.1596 -0.0670
26105W        W42179   4.833  12.528  13.258 -0.0824 -0.2814 -0.0220
26106W        W42180   4.733  17.316  13.892 -0.0031 -0.0084 -0.0240
26107W        W42181   1.419  16.966   2.873 -0.1121 -0.2467  0.1347
26108W        W42182  10.472   5.808   0.256  0.0869  0.0632 -0.0949
26109W        W42183   8.099   1.613   2.128 -0.3366 -0.3918  0.0295
26110W        W42184   1.681   4.076  11.320  0.3327 -0.2937 -0.2657
26111W        W42185   1.928  10.116   9.272  0.1717 -0.2022 -0.0293
26112W        W42186  14.220   4.831  11.442  0.1240  0.1831  0.0467
26113W        W42187  13.812  17.165  11.940 -0.2456 -0.3919  0.1941
26114W        W42188   6.794  15.858   2.132  0.0068  0.2474 -0.2920
26115W        W42189  10.977  15.741   4.528  0.4659  0.1646  0.0822
26116W        W42190   1.937  15.313   9.772  0.3191  0.1700 -0.1802
26117W        W42191   7.950  19.139  12.978  0.0444 -0.0200  0.0451
26118W        W42192   5.676  17.179   4.636  0.3156 -0.0610 -0.1660
26119W        W42193  13.543   8.921   1.601  0.1154  0.0043 -0.1682
26120W        W42194   2.330   4.993  11.675 -0.1255 -0.1801 -0.4145
26121W        W42195   7.622  15.292   4.923 -0.3198 -0.1875  0.1580
26122W        W42196   1.550   9.228   2.514 -0.0087  0.0717  0.1425
26123W        W42197  14.157   5.951  11.639  0.1590  0.3074 -0.0466
26124W        W42198  14.543   0.275  11.267  0.2037 -0.2295  0.4928
26125W        W42199  11.171   4.669  11.311 -0.1268 -0.0235  0.2575
26126W        W42200   8.639   8.064   0.840 -0.0429 -0.2659 -0.0577
26127W        W42201   4.027   9.635   0.984  0.2977 -0.0112  0.0258
26128W        W42202   6.961  19.126   2.405  0.0037 -0.0002  0.1751
26129W        W42203  17.789  15.334  14.947  0.1159  0.1130  0.0229
26130W        W42204   9.478   6.910  12.756 -0.2036  0.0156 -0.2860
26131W        W42205   6.639  11.481   2.694  0.0928 -0.1415  0.1188
26132W        W42206  11.518   4.167   4.888 -0.2705 -0.0314 -0.2294
26133W        W42207   0.255  17.073  14.772  0.1102  0.3412 -0.2125
26134W        W42208  17.445  13.788   4.233  0.1782  0.0213 -0.0089
26135W        W42209   7.698   9.032   4.981  0.1240 -0.0873 -0.0430
26136W        W42210   8.222  16.274  14.365  0.1210 -0.5879 -0.1109
26137W        W42211   5.039  17.789   2.127 -0.1498 -0.0607 -0.0412
26138W        W42212   2.228   7.665   5.729  0.1245 -0.1402 -0.0620
26139W        W42213  13.438  15.718  14.532 -0.1752  0.1312 -0.1642
26140W        W42214   6.067  10.552  14.820  0.0523 -0.0067  0.0797
26141W        W42215   5.175  14.326  11.714  0.0830  0.2483  0.2169
26142W        W42216   8.475  14.822  12.051  0.0133 -0.1943 -0.0757
26143W        W42217  16.043   7.073   2.882  0.2169 -0.0068 -0.1881
26144W        W42218  13.205   2.951  14.322  0.0595 -0.3173  0.0597
26145W        W42219   1.106  17.973  12.330  0.1827  0.2603 -0.0924
26146W        W42220  15.984  12.089  12.478  0.1131 -0.0702 -0.1233
26147W        W42221   9.130   4.477  13.773 -0.3184 -0.2476  0.0236
26148W        W42222   2.441  16.013  10.355 -0.0338 -0.0278 -0.0628
26149W        W42223  16.047   5.694  11.513 -0.1424  0.2431 -0.2102
26150W        W42224  15.297   0.689   0.318 -0.1106  0.4159 -0.1107
26151W        W42225   8.173  18.370   3.238 -0.0442 -0.1220 -0.1393
26152W        W42226  14.042   2.051   1.786  0.4077 -0.0454  0.5472
26153W        W42227   3.118   7.150  13.689  0.0865 -0.2518 -0.3222
26154W        W42228  18.531   8.885   4.966  0.0060 -0.1712  0.1417
26155W        W42229  17.303   0.818  12.363  0.2750  0.0710 -0.2262
26156W        W42230   3.041  17.410   4.174 -0.1867 -0.2154  0.0420
26157W        W42231   8.932  11.916   2.793  0.0427 -0.0846  0.0244
26158W        W42232  17.436  10.028   3.231  0.1795  0.1098  0.1919
26159W        W42233   1.396  16.857   4.319 -0.0272  0.0147  0.0215
26160W        W42234  17.182  11.029  12.121 -0.2125  0.1104 -0.1423
26161W        W42235   5.606   7.008   4.368  0.4018 -0.0584  0.1317
26162W        W42236  18.309   7.088   4.947 -0.2118 -0.1997 -0.4258
26163W        W42237   2.029   4.819   0.566 -0.1646  0.1486 -0.3200
26164W        W42238  17.006   0.205   3.054  0.2476  0.3347  0.0804
26165W        W42239   7.139   9.771  12.600 -0.3237  0.0599  0.1768
26166W        W42240  19.046  11.283  11.949  0.0302 -0.0715 -0.2494
26167W        W42241  17.801  16.372   3.185 -0.0205 -0.2594 -0.1453
26168W        W42242  18.253   7.507   0.724  0.1120 -0.1101  0.1396
26169W        W42243  12.053  11.874   3.172  0.1802 -0.0826  0.0990
26170W        W42244  17.684   1.895  10.584 -0.1986  0.0753  0.2175
26171W        W42245   5.073  18.349   5.186 -0.2369 -0.2087  0.2244
26172W        W42246   3.076  11.096  11.084  0.3122 -0.1703 -0.0205
26173W        W42247  13.053   7.958  11.263  0.1465  0.1296  0.3583
26174W        W42248  14.923   6.186   3.773 -0.0097 -0.0067 -0.0388
26175W        W42249   3.805  15.103  13.971 -0.0892  0.0240  0.3922
26176W        W42250   6.138  15.337  13.962 -0.2102 -0.0862  0.0598
26177W        W42251   5.753  14.695   1.883 -0.0897  0.1467  0.1045
26178W        W42252  13.803   3.593   2.271  0.2863  0.2623 -0.2330
26179W        W42253  14.985   7.315  12.359 -0.1851  0.1887  0.0091
26180W        W42254  12.312   2.166   4.330 -0.1532 -0.2855 -0.2040
26181W        W42255   7.657   9.963  10.772  0.2395 -0.2451 -0.0872
26182W        W42256   2.692   0.679  14.466  0.1838  0.0181  0.1393
26183W        W42257   0.911   7.226   5.712 -0.0263 -0.0580  0.0518
26184W        W42258   9.214   7.140  11.507 -0.0103  0.0416  0.1505
26185W        W42259   4.920  16.727  10.702 -0.3868 -0.3107 -0.0168
26186W        W42260  13.881   2.976   2.878  0.3708 -0.3855  0.1540
26187W        W42261  10.365  14.397  10.864 -0.3008 -0.2645  0.1778
26188W        W42262   2.792   2.710   4.008  0.0493  0.1520  0.2350
26189W        W42263   6.142   9.748   0.077  0.0759 -0.2580 -0.1427
26190W        W42264  13.982  15.148  13.962 -0.0717  0.0854  0.0413
26191W        W42265  15.282   9.239   4.968 -0.3414  0.2291 -0.2079
26192W        W42266   7.803   8.120  13.334  0.2854  0.2742  0.3070
26193W        W42267  16.702   2.671   9.504  0.4488  0.1584 -0.1483
26194W        W42268   9.615  15.659  13.816 -0.0645 -0.0855 -0.1967
26195W        W42269   1.166  12.929  11.322 -0.3088  0.0575 -0.0928
26196W        W42270   2.923   7.596   5.135  0.1213 -0.3851  0.1113
26197W        W42271   6.564  12.471  14.198 -0.1482  0.0562 -0.0087
26198W        W42272  11.810   1.131  14.374 -0.2394  0.3036 -0.0063
26199W        W42273   7.591   2.406   0.032  0.0693 -0.0396 -0.1130
26200W        W42274   5.116   6.010   0.099 -0.1256 -0.1638  0.1746
26201W        W42275   7.969   5.536  12.064 -0.1170  0.2080 -0.0119
26202W        W42276   4.754   9.785   2.814 -0.1770  0.0571  0.1308
26203W        W42277   7.014  17.899  12.661 -0.0456  0.0344 -0.2897
26204W        W42278  16.242  18.994   4.519 -0.2347  0.0652 -0.0382
26205W        W42279  12.680  17.600   4.505 -0.0797  0.0080  0.0063
26206W        W42280   7.822  11.034   2.787  0.2075  0.0829  0.0045
26207W        W42281   2.602  19.243   2.199 -0.2546  0.0628 -0.2198
26208W        W42282   7.383   2.391  13.118 -0.1318  0.0135 -0.1509
26209W        W42283  15.113   7.188   4.948  0.1272 -0.0332 -0.1939
26210W        W42284  15.985  13.303  10.487 -0.1413  0.0097 -0.2128
26211W        W42285   7.705  14.280  10.388 -0.1187  0.2130  0.1519
26212W        W42286   4.053  18.111   4.688 -0.1367 -0.2256 -0.3173
26213W        W42287  18.511   1.963  13.116  0.0618 -0.1429  0.0608
26214W        W42288  12.193  17.485   4.557 -0.2551  0.0320  0.4722
26215W        W42289  13.647  14.470  10.835 -0.1176 -0.4250 -0.1886
26216W        W42290   0.220   2.543   4.407  0.1014  0.0891 -0.2318
26217W        W42291  17.309   7.606  14.371 -0.0982  0.2352 -0.3369
26218W        W42292  17.796   2.692  11.445  0.1497  0.0955 -0.0251
26219W        W42293  10.180   2.646  12.070  0.1281  0.1995  0.0994
26220W        W42294   1.134   4.737   0.754 -0.1560  0.1162 -0.0870
26221W        W42295  18.001   8.369  12.038 -0.1023  0.1319 -0.1786
26222W        W42296   3.339  13.872   3.704  0.1204  0.1889 -0.1436
26223W        W42297  11.347   3.372   4.359  0.3484  0.2244 -0.1475
26224W        W42298   0.778   9.865  13.772 -0.6734  0.0137 -0.0379
26225W        W42299  16.160   1.629   2.601  0.1325  0.1836  0.1149
26226W        W42300  10.285  12.464   3.633  0.5980 -0.0888  0.1105
26227W        W42301   0.954  13.133  11.768 -0.4156 -0.2103  0.1400
26228W        W42302   2.269  16.527   2.966  0.1847 -0.1359  0.0507
26229W        W42303   9.005   8.742   4.114  0.1280 -0.2910 -0.0592
26230W        W42304  11.016   7.969  11.794  0.3042 -0.0366  0.1074
26231W        W42305   1.096   5.716   2.714 -0.0271 -0.0435  0.2181
26232W        W42306   9.277   3.473  11.073  0.2011 -0.1434 -0.1701
26233W        W42307  10.931   3.008   3.419 -0.1786 -0.2406  0.3061
26234W        W42308  10.201  12.642   1.744  0.3032 -0.0318 -0.0899
26235W        W42309  18.925   3.645   2.480 -0.4226 -0.0396  0.1948
26236W        W42310  14.932   5.043   3.870 -0.0935 -0.1565  0.2432
26237W        W42311   6.590   2.992   9.502 -0.1091  0.0631  0.5630
26238W        W42312  11.553   1.957  12.934  0.1156  0.0967  0.0186
26239W        W42313   1.708  17.363   3.581 -0.0865 -0.0925 -0.1683
26240W        W42314  17.151  16.166   1.288  0.0275  0.3574 -0.0880
26241W        W42315   3.902  10.420  10.695  0.4323  0.1433  0.3598
26242W        W42316  15.357  14.567   4.547  0.0056  0.1950  0.3012
26243W        W42317  14.704  10.376   3.306 -0.1329  0.1479  0.3083
26244W        W42318   8.260   4.094   2.121  0.1737 -0.0898  0.3991
26245W        W42319  11.153  11.958  13.948 -0.2448  0.1386  0.1417
26246W        W42320   2.255   1.628   2.832  0.0369 -0.0786 -0.2133
26247W        W42321   4.950  13.252  12.659  0.0236  0.0720  0.1620
26248W        W42322  18.813  14.949   3.828 -0.0396 -0.0501  0.2988
26249W        W42323  17.774   9.384   2.235  0.2175  0.1838 -0.1282
26250W        W42324  12.149   0.640  14.525 -0.0616 -0.0941  0.1523
26251W        W42325  18.745   5.415   4.757  0.1337 -0.0543 -0.1133
26252W        W42326  16.589   9.054  10.578  0.2475  0.0066 -0.2493
26253W        W42327   7.136  16.811  12.324  0.3384 -0.3091 -0.0088
26254W        W42328  13.889  17.287   5.258  0.2167 -0.0505 -0.1893
26255W        W42329   8.585  10.349  10.919  0.0261 -0.1201  0.0025
26256W        W42330   3.127  16.007   2.652 -0.1160  0.3120 -0.1726
26257W        W42331   7.580   8.847  12.779  0.3463  0.1688  0.0123
26258W        W42332   7.267  15.328  11.366 -0.2649  0.1006 -0.0654
26259W        W42333   6.921   2.963  11.040 -0.2956  0.0653 -0.0889
26260W        W42334   2.889  14.090  11.317  0.0171 -0.0693  0.0053
26261W        W42335  12.995   0.293  13.578 -0.0664 -0.0679 -0.4546
26262W        W42336   5.682  12.871   2.589  0.0800  0.0730  0.1822
26263W        W42337   7.825   9.592  13.775  0.1584 -0.1915  0.1653
26264W        W42338  13.585   6.007   2.449  0.2704 -0.0789  0.4266
26265W        W42339  18.439   7.312   9.441  0.2829  0.0513  0.3043
26266W        W42340  19.269   7.727  13.478  0.2685 -0.0188  0.1032
26267W        W42341  12.556  17.326   4.119 -0.0568  0.0640  0.2330
26268W        W42342   6.783   9.162  11.909  0.1576  0.0876 -0.2957
26269W        W42343  16.668  13.469  14.097  0.0171  0.0558 -0.2047
26270W        W42344  11.843   4.583   2.648  0.1743 -0.6666 -0.1543
26271W        W42345  11.755   4.037   2.600 -0.0836 -0.3057  0.1019
26272W        W42346   7.704   3.361   0.350 -0.1873 -0.2014  0.3245
26273W        W42347   9.595  10.507  13.595  0.0697 -0.2050  0.0613
26274W        W42348   7.189  18.611   2.271 -0.0528  0.4440 -0.2753
26275W        W42349  10.323   4.721   2.167  0.1586  0.1815  0.1680
26276W        W42350   5.555  12.516   5.001 -0.0349 -0.4392 -0.0290
26277W        W42351   4.318   0.175   3.614  0.2027  0.1408  0.0663
26278W        W42352  14.512   6.166  13.846  0.2421 -0.2084  0.2683
26279W        W42353   7.365   2.629   2.362  0.0100  0.0785 -0.0664
26280W        W42354  19.001  12.497  10.371  0.2413 -0.1371 -0.0745
26281W        W42355  19.032   8.015  14.436 -0.3015 -0.1186  0.1539
26282W        W42356  17.152  10.231   5.235  0.0119  0.0530 -0.0504
26283W        W42357   8.545   0.416   4.519  0.0795 -0.0129  0.1564
26284W        W42358  16.345  11.844   1.074  0.1900 -0.1274  0.1372
26285W        W42359   3.007   3.741   3.675 -0.1895 -0.1093  0.1235
26286W        W42360   9.601   8.152   2.808 -0.4424 -0.0193 -0.0909
26287W        W42361  17.532  11.023   4.426 -0.1318 -0.1039  0.1576
26288W        W42362   4.870  17.335  11.394  0.0470  0.1710 -0.2140
26289W        W42363   2.989   6.619   1.296 -0.1334 -0.0961  0.1186
26290W        W42364   8.733   1.862   1.335 -0.0411  0.1179 -0.0654
26291W        W42365   7.755   5.167  13.444 -0.0493  0.2219  0.0262
26292W        W42366  11.881   3.277   4.575  0.2888 -0.0256 -0.3357
26293W        W42367  15.695   4.169  12.057 -0.0391 -0.2264 -0.2034
26294W        W42368   7.446  18.320  13.169 -0.0409 -0.0738 -0.1963
26295W        W42369  18.431   7.062  13.884 -0.0860  0.4946  0.0932
26296W        W42370   5.705  18.549  10.503  0.1497  0.1723 -0.0234
26297W        W42371  17.681   4.059  12.070 -0.2120  0.0210  0.3365
26298W        W42372  16.348   5.274  11.373 -0.0668 -0.1230  0.0222
26299W        W42373   7.507   2.773   2.873 -0.0093 -0.2386 -0.1507
26300W        W42374  15.304   8.617   4.023  0.0591  0.0865  0.0264
26301W        W42375  17.319   4.658  14.319 -0.0052 -0.0255  0.0521
26302W        W42376  17.739  10.038  13.107  0.0759  0.4250 -0.1103
26303W        W42377  18.446  14.561  11.041  0.1039  0.0805 -0.1456
26304W        W42378   0.775   8.036   3.200  0.4004  0.1192  0.1592
26305W        W42379   5.712  19.167   3.592  0.2471  0.1885  0.1407
26306W        W42380   9.944   4.354   3.281  0.0674  0.0980  0.0891
26307W        W42381   5.745  16.449   3.882  0.0424 -0.1824 -0.0968
26308W        W42382  12.102   6.629  11.413  0.1026  0.0404 -0.0865
26309W        W42383  19.092  10.261   2.149  0.2901  0.2169 -0.1850
26310W        W42384  14.066  12.266  11.307 -0.1709  0.0217 -0.1323
26311W        W42385   5.785  14.197  11.275 -0.0945 -0.1205 -0.0608
26312W        W42386   2.232   3.346   1.527 -0.0941 -0.2422 -0.0810
26313W        W42387  14.848   6.466  11.157  0.0437 -0.0706 -0.1528
26314W        W42388  12.869  16.024   2.332  0.1488  0.1559  0.0910
26315W        W42389  18.542  11.042   0.472  0.1642 -0.3425  0.0145
26316W        W42390   7.495  17.463   0.155 -0.3925 -0.1634 -0.0143
26317W        W42391  19.102   4.196  11.960 -0.0957  0.0575  0.0161
26318W        W42392  13.870  16.023  14.372 -0.0276  0.1563  0.0449
26319W        W42393  17.271  15.017   1.818 -0.2647  0.2439  0.0171
26320W        W42394   6.379   4.169   0.358 -0.1234 -0.0833 -0.1587
26321W        W42395   0.095   7.753  11.377 -0.4415 -0.1652  0.2101
26322W        W42396  14.250  17.581  11.723 -0.1974  0.2408 -0.6055
26323W        W42397   3.595   7.887   3.417  0.1916 -0.3458  0.0927
26324W        W42398   6.852   3.789   4.390 -0.0312 -0.2537 -0.1675
26325W        W42399  13.377   4.073  14.508 -0.1544  0.4507  0.1522
26326W        W42400  16.042  12.627  13.050  0.2272 -0.2788 -0.3359
26327W        W42401  15.401   0.328   4.717 -0.1851  0.2288 -0.0304
26328W        W42402  12.359  18.795  11.914  0.0025  0.2543  0.1119
26329W        W42403   8.824   6.020   0.838 -0.1605 -0.2520  0.1506
26330W        W42404  14.348  13.842  12.567  0.1800  0.1501  0.0509
26331W        W42405  19.241  10.363   0.889 -0.0207  0.1885 -0.0394
26332W        W42406  11.376   1.068   4.845 -0.2205 -0.1539  0.1681
26333W        W42407   0.037   5.408   1.944 -0.0004  0.0799 -0.0283
26334W        W42408   9.932   4.689   4.984  0.1265 -0.0155  0.6403
26335W        W42409  10.185  13.888   1.839  0.0601  0.0875 -0.0206
26336W        W42410  16.751  18.879   4.500  0.0100  0.1937  0.3720
26337W        W42411  14.183  11.956   2.368  0.0271 -0.2439  0.1169
26338W        W42412  13.259  13.858   1.845  0.0951 -0.1464 -0.0312
26339W        W42413  15.028  10.495   2.879 -0.0506  0.0914  0.2918
26340W        W42414  12.617  13.545   0.349 -0.1683 -0.1146 -0.2216
26341W        W42415  11.736   9.649  13.239 -0.0737 -0.1242  0.2844
26342W        W42416  16.853   0.976  14.620 -0.1642 -0.0058 -0.3542
26343W        W42417   4.312  15.989   1.230  0.0697  0.1417 -0.0470
26344W        W42418   6.367  14.915  11.264  0.1785 -0.0546 -0.1809
26345W        W42419  14.691   8.007   3.229 -0.4177 -0.0662  0.1605
26346W        W42420   2.089   7.336  14.500 -0.1633 -0.1639  0.2427
26347W        W42421  15.333  14.588   1.420  0.0337 -0.1953  0.1306
26348W        W42422   6.045   3.449   2.981  0.2082  0.0319 -0.1915
26349W        W42423   4.138   1.921  13.829 -0.1505 -0.0822 -0.0788
26350W        W42424   1.895   5.293  14.657 -0.3010  0.1924 -0.1067
26351W        W42425   8.333   9.408   1.066 -0.2705 -0.1559 -0.1237
26352W        W42426   4.102   3.295   4.919 -0.1123 -0.1848 -0.0958
26353W        W42427   6.352  10.084   5.498 -0.0741 -0.1600 -0.1271
26354W        W42428  16.512  10.698  14.305 -0.3976  0.2318 -0.4232
26355W        W42429   7.494   8.351   4.449  0.2116  0.0723 -0.2085
26356W        W42430   1.192  16.484   4.630 -0.3115 -0.4579  0.0547
26357W        W42431   2.623   5.787  11.134 -0.0644  0.1691 -0.0230
26358W        W42432  11.028   0.546   4.196  0.0318  0.0241 -0.0134
26359W        W42433  16.054   9.794  10.338  0.1156 -0.2106 -0.1665
26360W        W42434   3.987  17.095   5.405  0.0989 -0.4518  0.3390
26361W        W42435   8.084  14.667  11.030  0.1213 -0.0297 -0.1876
26362W        W42436  17.327   8.829  11.447 -0.0442  0.1976 -0.0329
26363W        W42437  17.639  11.631   0.374 -0.1166 -0.0898  0.2672
26364W        W42438  15.520  14.160  10.608  0.1856 -0.2213 -0.0356
26365W        W42439   2.696  13.754   4.326 -0.2180 -0.0755 -0.3472
26366W        W42440   3.861   5.323   5.317 -0.0774  0.0243 -0.0860
26367W        W42441  12.266  11.437  14.068 -0.3799 -0.2336 -0.0869
26368W        W42442  13.348  15.789   2.500 -0.1375 -0.2010 -0.3366
26369W        W42443  11.118   7.957  12.957  0.1362 -0.2148 -0.3230
26370W        W42444   1.821  12.122  11.958  0.1808  0.0175  0.2440
26371W        W42445   1.732   2.223  12.064  0.1895  0.0008  0.0360
26372W        W42446   3.841   9.362   1.682  0.0699  0.1032  0.1815
26373W        W42447  14.210  15.887   3.286  0.0648 -0.1906 -0.1327
26374W        W42448  13.882   8.310   0.635  0.1411 -0.0657  0.0227
26375W        W42449  18.861   8.847   3.558 -0.1538 -0.0376  0.0597
26376W        W42450  18.368   9.518   2.288 -0.0187  0.0725  0.1289
26377W        W42451   2.610  17.403   9.453 -0.0165 -0.0391  0.1009
26378W        W42452   0.084   2.033   0.659 -0.0413  0.1958  0.3682
26379W        W42453   9.727  10.487  12.638 -0.4596  0.4455  0.1655
26380W        W42454   1.429  11.544   9.608  0.1204 -0.0011  0.2302
26381W        W42455   6.082   0.551   1.954 -0.3853 -0.1576  0.4227
26382W        W42456  19.190  10.586  14.014  0.0983 -0.1316 -0.2161
26383W        W42457   9.191   4.014   1.871 -0.4402 -0.2053  0.0926
26384W        W42458   1.526   1.782   1.776  0.3342 -0.0019  0.1914
26385W        W42459  10.987  18.736   0.187  0.4492 -0.0456 -0.1106
26386W        W42460   3.082   5.857   2.875  0.0500  0.2772  0.1114
26387W        W42461  13.590   4.494  14.895  0.3450  0.1036 -0.2769
26388W        W42462  10.010   1.914  10.520  0.1437 -0.2713 -0.0799
26389W        W42463  17.971  12.891   3.574  0.2379 -0.0033  0.5108
26390W        W42464   5.768   5.290  11.299  0.0408  0.0144  0.2146
26391W        W42465  18.007   3.440   3.032  0.1539  0.3134  0.0469
26392W        W42466  16.950   1.692   0.079 -0.0239  0.0536 -0.1241
26393W        W42467   0.147  13.304  13.637 -0.1583  0.1822  0.2946
26394W        W42468   0.011   8.907   0.669  0.1084  0.1313 -0.0386
26395W        W42469   6.607   9.306   0.144  0.3218  0.2532  0.0386
26396W        W42470  12.950  10.430  12.782 -0.0980  0.1112 -0.1276
26397W        W42471  11.663   0.073  10.741  0.1939 -0.2313 -0.1768
26398W        W42472  19.261   3.752   1.536 -0.2023  0.0015  0.1046
26399W        W42473   7.002   1.649   3.749  0.0134  0.3935  0.2576
26400W        W42474   9.834  15.616  10.799 -0.2479 -0.2046 -0.0587
26401W        W42475  16.714  11.207   4.269 -0.0540  0.1077  0.0710
26402W        W42476  14.441  14.087  11.144 -0.1555  0.3701 -0.0738
26403W        W42477  18.310  11.630   1.087 -0.1325  0.1854  0.4149
26404W        W42478   1.731   7.858   2.178  0.0424  0.1316 -0.1317
26405W        W42479   7.899  15.589   1.780 -0.4653  0.0920 -0.0721
26406W        W42480  12.121  17.596   1.582 -0.1852  0.0066 -0.0006
26407W        W42481  16.070   3.743   1.994  0.0971  0.3836 -0.0611
26408W        W42482  14.343   0.185  12.293 -0.0879 -0.0861  0.1335
26409W        W42483   4.281  14.859   0.625  0.0698 -0.1751 -0.2763
26410W        W42484   1.693   1.826  12.413  0.0140 -0.0189  0.2957
26411W        W42485  15.140   2.655  14.532  0.3603  0.4638  0.3013
26412W        W42486   7.574  14.991   9.742  0.3542 -0.0628 -0.0883
26413W        W42487   7.043  12.726  13.773 -0.1325 -0.0507  0.1642
26414W        W42488  10.398   6.678   4.821 -0.0061  0.0521  0.1141
26415W        W42489   4.990   6.822   2.819  0.0450 -0.2069 -0.3968
26416W        W42490   4.457  15.691   4.724  0.1907 -0.1046  0.1953
26417W        W42491  19.095  17.282   4.966 -0.1162 -0.0454 -0.0027
26418W        W42492  18.706  10.171   3.476  0.1484 -0.2507 -0.0052
26419W        W42493   7.578   1.330  13.555 -0.0521 -0.0262  0.3186
26420W        W42494   6.867  19.281   1.659  0.1304 -0.4568 -0.3676
26421W        W42495  16.260   5.237  12.299  0.2045 -0.2087 -0.4058
26422W        W42496  15.497   2.344   2.866 -0.2339  0.0532 -0.2395
26423W        W42497   4.878  13.607   1.505 -0.1554 -0.4429 -0.1989
26424W        W42498  15.834  11.396   1.883 -0.0191 -0.2452  0.0475
26425W        W42499  10.736   9.848   5.433 -0.0762 -0.1489 -0.0979
26426W        W42500  14.025  12.270   1.691  0.1502 -0.0827 -0.4027
26427W        W42501  12.997  13.671  12.766 -0.1194  0.1042  0.2363
26428W        W42502   9.349   6.430  12.913 -0.3474 -0.1033 -0.0102
26429W        W42503  12.408   1.402   3.252  0.6637  0.1505  0.0425
26430W        W42504  10.771  11.434  12.209  0.0327 -0.2507 -0.1874
26431W        W42505  17.513   3.246   3.288  0.0327  0.0192  0.1198
26432W        W42506   3.683   6.243  14.519 -0.1051  0.1210 -0.2984
26433W        W42507  16.486  16.536   0.177 -0.2827  0.1077  0.1006
26434W        W42508   4.784   8.479   2.761  0.0882 -0.3399 -0.2811
26435W        W42509   8.747   9.583   3.453 -0.0676  0.1126 -0.1307
26436W        W42510   9.103  13.957   3.589 -0.1374  0.1067 -0.2810
26437W        W42511   7.871   1.213   1.969  0.0757 -0.2282  0.1634
26438W        W42512   4.322  15.373   3.330 -0.0398 -0.0851  0.1219
26439W        W42513   3.691   0.625   6.146  0.0847  0.2022  0.2322
26440W        W42514   7.077   9.763  13.127  0.0593  0.0254  0.2110
26441W        W42515  17.071  10.246   3.533  0.0963 -0.0010  0.3365
26442W        W42516  17.698  11.889  14.188  0.2264 -0.1223  0.1103
26443W        W42517   7.870   0.890  13.215  0.0632 -0.1137 -0.2406
26444W        W42518   7.355  19.169   5.471 -0.0709 -0.1154  0.1637
26445W        W42519  11.114  13.490  11.300 -0.3351 -0.1787  0.1732
26446W        W42520  15.324   2.125   4.667 -0.2358 -0.2125  0.1391
26447W        W42521   6.502   2.544  11.166 -0.3607 -0.0678  0.2518
26448W        W42522   4.437  16.600   4.501 -0.3194  0.0968 -0.0219
26449W        W42523   0.587   4.167  14.531  0.0931 -0.1639  0.2948
26450W        W42524   9.043   9.410   4.609 -0.0100 -0.1063 -0.0243
26451W        W42525  17.574   2.190  11.506  0.3264  0.2128  0.3194
26452W        W42526  12.072   6.114   2.802  0.0935 -0.0054 -0.0333
26453W        W42527  14.004   3.030   0.665 -0.0446  0.0209 -0.0895
26454W        W42528  16.415  15.906  10.563  0.2414  0.0574 -0.2284
26455W        W42529   7.656   5.026   3.346  0.1471 -0.0522 -0.3329
26456W        W42530   1.991  14.562   0.287 -0.0100  0.0093 -0.2727
26457W        W42531  13.241   9.566   4.021  0.0413 -0.0761  0.0272
26458W        W42532  18.515   7.699   1.210  0.1584  0.0554  0.1076
26459W        W42533   1.285   7.488   2.029 -0.0703 -0.2643  0.2445
26460W        W42534   8.036   4.275   3.800  0.2229  0.4356  0.1595
26461W        W42535   4.209  18.358   5.497 -0.2403  0.1739 -0.0221
26462W        W42536   3.730  15.170   2.619 -0.0406 -0.2319 -0.1854
26463W        W42537   7.982   7.416   0.453  0.4138 -0.0507 -0.1195
26464W        W42538   8.597  11.811   0.358 -0.0062  0.0899 -0.0418
26465W        W42539  18.780  13.179   3.462 -0.0325 -0.2170 -0.1233
26466W        W42540  15.747  15.192  14.934  0.0080  0.1226  0.3582
26467W        W42541   0.004   7.033   6.152  0.1029 -0.1205  0.1597
26468W        W42542  14.885   9.301   1.818  0.2502  0.3384 -0.0524
26469W        W42543   2.672  15.092   1.354  0.1084 -0.2411  0.0545
26470W        W42544   9.514  17.602   3.609  0.1403  0.1209 -0.1756
26471W        W42545   1.083  15.205  12.953  0.1256 -0.2712  0.2808
26472W        W42546  14.338   7.217  11.460 -0.1736 -0.0764  0.1281
26473W        W42547   3.009  12.428  14.048 -0.0499  0.1562  0.2694
26474W        W42548   2.220   0.293   4.978 -0.1262 -0.1632 -0.1203
26475W        W42549  14.603  16.702   4.063 -0.0072  0.3889  0.2344
26476W        W42550   6.710  11.918   3.074  0.1718  0.3801  0.3477
26477W        W42551   7.173   8.280   2.885  0.0354  0.0919  0.0356
26478W        W42552   2.409   7.019   0.191 -0.0542  0.0589  0.3112
26479W        W42553   4.772   3.623  13.537 -0.1134  0.0234  0.2276
26480W        W42554   8.471   8.436  11.324 -0.1211 -0.0681  0.1063
26481W        W42555  17.772   5.402  11.738 -0.0021  0.1888 -0.3055
26482W        W42556   7.235   6.316   4.403  0.3944 -0.0219 -0.1891
26483W        W42557   8.844  10.851  10.582  0.1042 -0.0319 -0.0493
26484W        W42558  10.315   1.511   0.799 -0.2583  0.1122 -0.1798
26485W        W42559   2.917  19.242  14.014  0.0533  0.1776  0.1432
26486W        W42560  19.160   2.257  11.746 -0.0943  0.0652 -0.1357
26487W        W42561   2.290  12.056   4.512 -0.2248  0.3668  0.2145
26488W        W42562  19.157   6.866  14.492  0.1440  0.0590 -0.1170
26489W        W42563   2.501   0.226   1.752  0.3505 -0.1023  0.1148
26490W        W42564  14.063   6.828   5.243  0.0885  0.2327  0.1026
26491W        W42565  17.585   1.657   0.188 -0.3571  0.0023  0.2278
26492W        W42566  17.606  14.070  12.719 -0.1442 -0.0229 -0.0238
26493W        W42567  14.813   7.121   4.109  0.0168 -0.0965  0.1951
26494W        W42568   1.378   6.877  11.874  0.1626  0.4789  0.0006
26495W        W42569   4.311   6.281  12.706  0.4080 -0.1873 -0.2022
26496W        W42570  12.933  16.474  14.266  0.1636  0.5364 -0.0940
26497W        W42571  13.771  17.239  13.400  0.0357 -0.1679  0.0074
26498W        W42572   7.327  12.132  11.492 -0.2141 -0.2437 -0.0518
26499W        W42573   9.239  13.568   9.264  0.0107  0.0358 -0.2052
26500W        W42574  18.699   1.276  14.360 -0.2041  0.2218 -0.1240
26501W        W42575  18.518   2.686   3.880 -0.0397  0.2007 -0.0360
26502W        W42576   2.111   2.795  11.365 -0.0536 -0.0022 -0.1814
26503W        W42577   2.604   8.981  10.669  0.1353  0.2113  0.4283
26504W        W42578   5.790   4.684   5.402  0.3314 -0.0287 -0.0941
26505W        W42579  17.589  14.622  11.390 -0.0128  0.1168 -0.1592
26506W        W42580   7.499  18.783   0.592  0.1853  0.1343 -0.1266
26507W        W42581   2.141   9.938  13.508 -0.2265 -0.0711 -0.5147
26508W        W42582  10.012   7.713   3.033 -0.0135 -0.1657  0.1114
26509W        W42583  14.862   1.886  14.016  0.0249  0.0824  0.0621
26510W        W42584   3.770   7.211  11.604  0.2556  0.1900  0.2492
26511W        W42585   9.933  16.648   5.449 -0.0751 -0.1922 -0.1340
26512W        W42586  16.668   3.854   4.626  0.2270  0.1145 -0.2842
26513W        W42587   2.156   0.785  12.454  0.0140  0.4254  0.1078
26514W        W42588  13.670   7.939  10.290  0.2300  0.0930 -0.0385
26515W        W42589  12.890  13.880   1.441 -0.1796 -0.0954 -0.0134
26516W        W42590   5.803  13.135  11.232 -0.1207 -0.2539  0.2198
26517W        W42591  14.375   9.743  11.789  0.1949 -0.1458  0.0285
26518W        W42592  14.085  13.595   0.382  0.3956 -0.1393 -0.6795
26519W        W42593  19.128  15.608  11.764  0.0578  0.1583  0.1641
26520W        W42594  14.675   7.277  13.734 -0.0068  0.3158 -0.0378
26521W        W42595   0.285  16.560  10.672  0.1823  0.2320  0.0221
26522W        W42596  10.579  13.396   3.937 -0.0014 -0.0351 -0.2922
26523W        W42597  11.640  18.903  10.573 -0.1925 -0.1195  0.1123
26524W        W42598   2.693   5.987   1.952 -0.1093 -0.2267 -0.1465
26525W        W42599  17.057  15.214  12.610  0.0986 -0.0162 -0.1981
26526W        W42600   0.273  10.559  10.396 -0.0142 -0.1162  0.2509
26527W        W42601  13.270  14.052   3.610  0.0892  0.3638 -0.0562
26528W        W42602   9.979  11.310   5.485 -0.0177  0.1299 -0.1033
26529W        W42603  16.711  18.920   9.242  0.0643 -0.3007  0.2245
26530W        W42604   6.346  16.727  11.523  0.3361 -0.2928  0.0417
26531W        W42605   8.478  12.459   1.501  0.0683 -0.0458 -0.1895
26532W        W42606  10.155   9.418   1.878  0.0565 -0.0495 -0.2283
26533W        W42607  11.199   4.392  14.088  0.0573  0.0516  0.1787
26534W        W42608   4.045   7.361   2.089  0.0286 -0.0092 -0.1206
26535W        W42609   6.907   8.326  12.852  0.4635  0.1843  0.2578
26536W        W42610   2.423  12.970   3.350 -0.0368  0.1959  0.2058
26537W        W42611   0.832   9.432   4.592  0.4373  0.1595 -0.1776
26538W        W42612  15.299   7.926   1.753 -0.0349 -0.1023  0.0363
26539W        W42613   3.803   2.326   5.145 -0.0488  0.1348  0.1981
26540W        W42614   1.022  12.322   1.429  0.0821  0.2175  0.4806
26541W        W42615   0.797   3.490  10.416  0.2151 -0.3130 -0.1128
26542W        W42616  18.132   8.799  14.918  0.2282 -0.1278  0.0074
26543W        W42617  18.720   9.243  12.323 -0.4934  0.0171  0.0680
26544W        W42618   6.631   2.245  11.826 -0.0374  0.1051  0.1313
26545W        W42619   6.416  16.460   4.314  0.3510  0.0712  0.0282
26546W        W42620  14.458   7.960   3.694 -0.1687 -0.0430 -0.1097
26547W        W42621   4.282   2.703  10.596  0.0950 -0.0678 -0.1663
26548W        W42622  10.496   1.947  11.591  0.0081  0.4109 -0.4299
26549W        W42623   7.170   5.052   2.929 -0.1169 -0.0552  0.1658
26550W        W42624  18.089  18.253   4.341 -0.0784  0.2249  0.2519
26551W        W42625  11.593   1.022  13.501 -0.1714  0.3094 -0.3212
26552W        W42626  18.681   4.376   9.907  0.4509 -0.0126 -0.0285
26553W        W42627  14.372   6.958   3.877 -0.2724 -0.2584  0.0574
26554W        W42628  12.621  15.618  13.185 -0.1144 -0.1081  0.0092
26555W        W42629   7.852   0.674   0.975  0.0428  0.2983  0.0879
26556W        W42630   6.226  17.558   4.752  0.1678  0.0524 -0.0688
26557W        W42631  10.111   7.361   5.359  0.2357 -0.0061  0.0435
26558W        W42632   1.517  12.954   1.105  0.1626  0.1399  0.3498
26559W        W42633  14.833  18.610  14.234  0.0037  0.2172  0.1476
26560W        W42634  16.701   3.192  14.601 -0.0979 -0.0482 -0.1366
26561W        W42635  18.575   7.059  13.258  0.0676 -0.1955  0.1589
26562W        W42636  18.591  14.694  14.788 -0.0544  0.1658 -0.0883
26563W        W42637   5.453  14.192   3.649  0.0420 -0.1168  0.1942
26564W        W42638   1.924  14.345  10.307 -0.2174  0.1824  0.0309
26565W        W42639  18.025   3.785  14.340 -0.3288 -0.0781  0.4166
26566W        W42640   1.845   5.943  13.825  0.0445  0.0740 -0.2503
26567W        W42641  17.176  16.434  15.043 -0.0575 -0.1013  0.0002
26568W        W42642   6.568   7.853   6.206  0.2888 -0.2008 -0.2028
26569W        W42643  17.307   4.812   5.309  0.1258 -0.2616 -0.2053
26570W        W42644  13.681   8.667  13.085 -0.0767 -0.3231  0.1230
26571W        W42645   5.551   4.784   0.987  0.0316  0.0700 -0.1104
26572W        W42646   1.224  10.162  13.867  0.0772  0.0253  0.1768
26573W        W42647   7.957   5.092  11.653  0.0762  0.0532 -0.1697
26574W        W42648  11.668  15.608   4.524 -0.4420  0.0031 -0.1932
26575W        W42649  11.420  16.286   3.562  0.2349 -0.2427  0.3333
26576W        W42650  15.265   5.968  13.187  0.2221  0.1246 -0.4390
26577W        W42651   9.687   2.697   3.740 -0.1827  0.0428  0.0680
26578W        W42652  18.926  10.444  12.318 -0.3689  0.1035  0.0367
26579W        W42653   6.143   5.125   5.617  0.1888  0.0182  0.2482
26580W        W42654  12.839   4.918   1.394  0.0424  0.1500 -0.1278
26581W        W42655   5.992  14.795   3.928  0.1031 -0.4314 -0.0171
26582W        W42656   8.594  18.507   3.015 -0.0482 -0.0507 -0.0946
26583W        W42657  15.687  16.061   1.085  0.0842 -0.2429  0.2715
26584W        W42658   3.505   0.891   2.944  0.1414  0.0211  0.0994
26585W        W42659   3.825   9.693   5.255 -0.2136 -0.0026  0.2016
26586W        W42660   8.402   1.152   1.852  0.1739  0.0324  0.0740
26587W        W42661  10.676   6.608   4.118  0.0277  0.0464 -0.1176
26588W        W42662   1.612  10.006   1.560  0.0382 -0.0144 -0.2266
26589W        W42663   0.526   0.186  12.589  0.1965  0.1984  0.3129
26590W        W42664  11.681  16.053   4.011 -0.1310  0.0468 -0.0240
26591W        W42665   2.105   8.404  13.399 -0.0830  0.0808 -0.2500
26592W        W42666   2.681  11.299  11.377  0.5615  0.0332  0.0169
26593W        W42667  15.070   6.215   4.776 -0.0118 -0.1613 -0.3685
26594W        W42668  17.702  11.316  14.321 -0.0483  0.1767  0.1255
26595W        W42669  12.110  12.099   2.520  0.3326 -0.0868 -0.2957
26596W        W42670   9.455  19.010  11.456  0.1673  0.2976 -0.0685
26597W        W42671  11.241  13.931   4.412  0.0555  0.1081 -0.2816
26598W        W42672   2.160   3.578   2.709 -0.0332  0.1745  0.2194
26599W        W42673   4.159   6.619   3.152 -0.3342  0.1044 -0.0015
26600W        W42674   0.115   2.198  14.714  0.1743 -0.3322 -0.1628
26601W        W42675   9.529   4.735  12.047 -0.0290 -0.4290  0.1075
26602W        W42676   9.570   3.669  13.737 -0.1215  0.2660 -0.3812
26603W        W42677   8.860  17.166   1.259 -0.1442 -0.0139 -0.4644
26604W        W42678  13.495  15.640   4.240 -0.2007  0.1454 -0.3424
26605W        W42679   9.879  18.834   4.127 -0.1144  0.0803  0.3149
26606W        W42680   1.517   5.383  12.170 -0.2453 -0.0498  0.2908
26607W        W42681  13.707  17.277   0.697 -0.1240  0.1739 -0.1782
26608W        W42682  10.480   1.641   4.286  0.0613 -0.1546 -0.2069
26609W        W42683  12.047   1.177   1.799  0.3424  0.1677  0.1776
26610W        W42684  17.970   4.851   4.665  0.3267  0.0168  0.1199
26611W        W42685  11.146   9.266  14.266 -0.0941 -0.3600  0.0447
26612W        W42686   5.764   0.570   0.984 -0.0802  0.1464  0.1201
26613W        W42687  18.974  17.788  12.028  0.1228 -0.0192  0.1723
26614W        W42688  12.317  18.855   0.747  0.3957 -0.4222 -0.0018
26615W        W42689   9.785   9.805   4.396 -0.0105  0.0310 -0.0595
26616W        W42690   0.070   7.217   5.083  0.0385  0.2656 -0.0257
26617W        W42691   9.964   3.479   1.658 -0.0524  0.4066  0.0895
26618W        W42692  17.995   1.035  14.097  0.0686 -0.0281  0.2203
26619W        W42693  13.341  18.870  14.880  0.0019 -0.1260  0.1692
26620W        W42694  18.298  15.121   0.815  0.1264  0.3579 -0.3131
26621W        W42695  14.931   6.427   0.041  0.0459 -0.2128 -0.3332
26622W        W42696  10.773   7.819   2.584 -0.0209  0.0516 -0.0063
26623W        W42697  11.775   9.887   2.134  0.0047  0.2762 -0.0091
26624W        W42698  15.672   3.000   2.628 -0.0483  0.1229  0.0954
26625W        W42699  13.124  16.570  14.863 -0.3784  0.2443  0.2048
26626W        W42700   5.561  14.084   1.166  0.2158  0.1147  0.0114
26627W        W42701   7.083  11.924   4.756  0.0148 -0.0634  0.0556
26628W        W42702  12.669   6.063   2.571  0.2419 -0.3540  0.1233
26629W        W42703  12.958   0.111  10.501  0.0293 -0.2303  0.1464
26630W        W42704   5.519   4.361   2.094 -0.3618  0.2772  0.1942
26631W        W42705   5.370  15.619   0.671 -0.2026 -0.2532 -0.0163
26632W        W42706   4.203  11.725  12.098 -0.0193 -0.2587 -0.4408
26633W        W42707   3.091   3.732   2.720  0.1157 -0.0280 -0.0929
26634W        W42708   2.537  11.849   3.302 -0.0293  0.1113  0.2067
26635W        W42709  17.757  11.984  11.296 -0.5519  0.2173  0.6191
26636W        W42710  18.089   4.335   5.473  0.2047  0.1719  0.0063
26637W        W42711   6.686   4.087   2.022  0.0726 -0.1649 -0.0591
26638W        W42712  12.109   1.984   5.620 -0.0099 -0.2522 -0.0201
26639W        W42713   7.020  15.214  10.917  0.1630  0.1118  0.1519
26640W        W42714  15.699   8.050  10.809 -0.0584  0.0509 -0.0383
26641W        W42715  18.935   1.634   4.812  0.3639  0.2487 -0.0265
26642W        W42716   8.714   3.688  12.178  0.1331  0.1544 -0.0234
26643W        W42717  16.730   6.654   3.552  0.0868  0.2648  0.0869
26644W        W42718   5.369   6.985   3.886 -0.5071  0.1546 -0.1405
26645W        W42719   5.841   3.736   0.037 -0.0183  0.1154 -0.1665
26646W        W42720  12.280  12.640   1.360 -0.2061 -0.3962  0.2287
26647W        W42721   5.893  16.512  10.701  0.1354  0.2336  0.0901
26648W        W42722   1.063   2.138   1.028  0.0470  0.0580  0.3126
26649W        W42723   6.512  16.162   1.866 -0.2175 -0.0795  0.1600
26650W        W42724  18.156  18.260  11.640 -0.0135  0.2673 -0.0601
26651W        W42725  13.605   2.733  13.581 -0.3190  0.5056 -0.0720
26652W        W42726  13.606   6.930   0.895 -0.2502 -0.0712  0.2317
26653W        W42727  16.104   6.371   1.554 -0.0054  0.0838  0.4273
26654W        W42728  14.786  16.115  10.600  0.1582 -0.3367  0.1806
26655W        W42729  14.204   0.545  11.494 -0.2893 -0.0602  0.0845
26656W        W42730  11.146  12.641  13.423 -0.0707  0.3599  0.2635
26657W        W42731   8.900  13.348  14.000 -0.2264 -0.1337 -0.2283
26658W        W42732   9.361   9.975  13.203 -0.1494  0.1567  0.1406
26659W        W42733  10.642  12.881   3.884  0.2520  0.1193 -0.0063
26660W        W42734  18.393  13.267   1.693  0.3283  0.0856 -0.1755
26661W        W42735   5.980  11.464  13.233 -0.2562  0.4080 -0.1593
26662W        W42736   5.936  17.223   2.387 -0.0169  0.0055  0.1208
26663W        W42737   8.689   2.503   4.307  0.5921 -0.2040  0.0315
26664W        W42738   3.988   0.649   5.196 -0.2809  0.4470 -0.0957
26665W        W42739   1.514   3.987   0.213 -0.1120  0.2672 -0.2496
26666W        W42740   9.470  15.311  12.083 -0.2440 -0.0048  0.1124
26667W        W42741   8.411   4.308   4.118 -0.1779 -0.1298  0.2378
26668W        W42742   2.361   3.180   1.984 -0.0099  0.1385  0.1426
26669W        W42743   1.554  13.600   1.128 -0.1645 -0.2169 -0.0173
26670W        W42744   5.261  16.484   3.742  0.2335  0.0738 -0.1531
26671W        W42745   0.427   9.123   3.424 -0.0846  0.0043  0.1418
26672W        W42746  16.812  11.492  10.089 -0.3833 -0.2428 -0.3640
26673W        W42747   6.150  12.250  10.955 -0.0311 -0.1085 -0.1960
26674W        W42748   9.646   9.121   2.941  0.2197 -0.0083  0.2887
26675W        W42749  12.886   7.580  14.671 -0.2325  0.3165 -0.2670
26676W        W42750   5.069   4.942   4.410 -0.1297 -0.1846  0.1660
26677W        W42751  10.429  18.534   9.883 -0.0026 -0.0016 -0.2791
26678W        W42752   0.994   4.879  13.848  0.0234 -0.0164 -0.1000
26679W        W42753   4.070   4.505   3.193 -0.2366  0.1428 -0.1340
26680W        W42754   0.605   2.635  12.214 -0.3142  0.1404  0.0563
26681W        W42755   8.233   5.372  13.447  0.2458  0.0418 -0.2365
26682W        W42756  11.516   4.638   5.285 -0.2227 -0.3021 -0.0604
26683W        W42757   5.520  16.425   4.990 -0.2211  0.4027 -0.1211
26684W        W42758  17.987   7.606  12.926 -0.3016  0.1915 -0.3633
26685W        W42759   2.207   0.983  15.027 -0.1170 -0.2761 -0.0239
26686W        W42760  11.369  16.167  14.758 -0.0834  0.2342 -0.4262
26687W        W42761  17.887   0.092  11.326  0.0465  0.0668 -0.3377
26688W        W42762  19.285   9.321  13.535 -0.4183  0.1678 -0.1600
26689W        W42763   4.415  14.244  11.412  0.1479  0.0076  0.1849
26690W        W42764  13.023  17.643  13.113  0.1603  0.0858  0.1109
26691W        W42765  19.289  18.253   1.106 -0.0552  0.1677 -0.2726
26692W        W42766   0.188   2.504   4.885 -0.0741 -0.0018 -0.0710
26693W        W42767   1.402  14.535  13.852 -0.1629 -0.2767  0.3750
26694W        W42768  12.290   2.197  13.401  0.1419 -0.3366  0.2444
26695W        W42769  17.358   5.501  10.785 -0.0855 -0.2003  0.0948
26696W        W42770  10.240  16.279  12.474  0.3898  0.2581  0.1418
26697W        W42771  17.452  15.282  13.265  0.2652  0.4880  0.0231
26698W        W42772  11.901  12.393   1.250  0.1464 -0.1786 -0.7803
26699W        W42773   0.269   5.780  13.852 -0.1628 -0.0709 -0.0664
26700W        W42774  16.381  11.082   0.568  0.1446  0.1628 -0.0927
26701W        W42775  10.196   2.583   1.607 -0.3693 -0.5455 -0.0036
26702W        W42776  12.540  11.055   1.672 -0.3370 -0.0391 -0.0852
26703W        W42777  18.511  13.286  10.558 -0.0007  0.3052 -0.0470
26704W        W42778   8.171  12.170  13.065  0.2018 -0.2648  0.0380
26705W        W42779  10.149  10.767  12.977 -0.0097 -0.0764  0.1668
26706W        W42780   9.729  11.769  11.105 -0.0501 -0.0846  0.4030
26707W        W42781  16.883  11.165   0.980 -0.0864 -0.2182 -0.1692
26708W        W42782  17.850   5.497   5.503  0.0040 -0.3040 -0.0107
26709W        W42783   4.837   1.284   4.823  0.0099  0.1055 -0.0089
26710W        W42784  16.531   3.932  12.897  0.0420 -0.2439 -0.1998
26711W        W42785  11.207  15.628   3.269  0.1625 -0.1376 -0.1710
26712W        W42786  13.831  18.603  11.254 -0.0010 -0.1903  0.2583
26713W        W42787   4.185  10.673   3.035 -0.1316  0.4787 -0.0779
26714W        W42788   4.158  16.192  12.496 -0.1084  0.1678  0.5194
26715W        W42789  12.709   9.085   3.453 -0.1129 -0.3976  0.1801
26716W        W42790  17.170  15.894   2.888  0.1442 -0.2020  0.2695
26717W        W42791  18.485   4.610  11.082  0.0368  0.1452 -0.0909
26718W        W42792   0.459   1.700   1.507  0.0411 -0.1191  0.3540
26719W        W42793   8.911  17.901   0.884  0.0180 -0.0142 -0.1428
26720W        W42794  19.124   1.668   0.805 -0.2308 -0.0311 -0.2717
26721W        W42795   7.678  11.396  13.100 -0.1529 -0.2582  0.1317
26722W        W42796   2.139   6.797   0.602  0.2158  0.1981  0.0954
26723W        W42797  11.705   3.903  12.263  0.0641 -0.3801  0.0406
26724W        W42798  13.187   0.251  14.344  0.0007  0.0723 -0.1046
26725W        W42799   1.724   3.001   4.838 -0.2014 -0.0444 -0.1865
26726W        W42800   6.346   0.072   4.407 -0.0368 -0.1267 -0.0659
26727W        W42801  13.877   5.593  13.811 -0.0175  0.1413  0.4309
26728W        W42802  14.275   6.642   3.236 -0.2467 -0.2701  0.1977
26729W        W42803   9.877   7.615  10.411  0.1189 -0.2921  0.3191
26730W        W42804   9.451  15.301   5.190 -0.3157 -0.1831 -0.1984
26731W        W42805  14.926   7.868  11.978 -0.1211  0.4080 -0.0607
26732W        W42806   1.083  13.225  14.908 -0.1326 -0.2473  0.0171
26733W        W42807   9.138   5.905   5.198 -0.1100 -0.1562 -0.2618
26734W        W42808   4.850  14.785  10.982  0.1964 -0.3261  0.1710
26735W        W42809  10.813  14.412  12.590 -0.2259 -0.4436  0.1975
26736W        W42810  14.437  17.981   0.293  0.1813  0.2329  0.2481
26737W        W42811   0.681  18.921  10.948 -0.2357  0.0169 -0.2685
26738W        W42812  16.240   7.021   5.073 -0.0673 -0.3113  0.1424
26739W        W42813  14.293   0.669  12.413  0.0493 -0.0449 -0.1313
26740W        W42814   6.264  11.232  13.640  0.0552  0.1205 -0.2617
26741W        W42815   9.181   4.481   4.506  0.1053  0.1611  0.2394
26742W        W42816  17.798   8.145   4.879  0.0291  0.1756  0.3750
26743W        W42817   5.791   9.807   2.694  0.2868 -0.1549 -0.2497
26744W        W42818  11.441   4.345   2.852  0.3648  0.2500 -0.3394
26745W        W42819   0.104  11.989   3.226 -0.0277  0.0708  0.0278
26746W        W42820   5.766   1.093   0.679 -0.1575  0.2043  0.2373
26747W        W42821  11.986  15.048   1.297  0.3181  0.1837  0.0259
26748W        W42822   7.768  13.644   4.167  0.0810  0.0833  0.2079
26749W        W42823  16.202  11.849   3.435  0.0983  0.0356  0.0189
26750W        W42824  13.237  14.374   4.016 -0.0786 -0.3946 -0.0453
26751W        W42825   7.252   4.768   4.177 -0.1306 -0.4081  0.1563
26752W        W42826  13.650   4.181  11.800 -0.2286  0.0472 -0.3357
26753W        W42827   5.342   1.733   3.682 -0.3574 -0.1263 -0.3885
26754W        W42828   6.067  19.249  14.489  0.2151 -0.2748  0.1638
26755W        W42829  17.260  13.253  14.558  0.2627 -0.2591  0.0195
26756W        W42830   5.681  12.804   4.627 -0.0442 -0.1227  0.2445
26757W        W42831  16.810   3.091   0.092  0.1420  0.0140 -0.2297
26758W        W42832  10.398  11.472  12.670  0.1497  0.0945  0.2829
26759W        W42833  13.975   5.645  11.280 -0.2347 -0.0730  0.1996
26760W        W42834   6.167   0.653   4.201 -0.3669  0.2973 -0.0689
26761W        W42835   9.201   8.491  10.484  0.1982 -0.3856  0.3096
26762W        W42836  11.898   3.162  14.087  0.2757  0.1925 -0.0438
26763W        W42837  14.198   2.891  12.880 -0.4689 -0.2264 -0.2631
26764W        W42838   8.323  10.006   0.406  0.2946 -0.1675 -0.2485
26765W        W42839  14.728   3.814   9.570 -0.3740  0.1150  0.0360
26766W        W42840  12.831   9.605   3.687 -0.0321 -0.2525 -0.1768
26767W        W42841   5.535   2.327   3.846 -0.0778  0.2432 -0.3671
26768W        W42842  10.361   2.882   0.451  0.2825 -0.0759 -0.2355
26769W        W42843  13.055  15.351  13.233  0.0081 -0.1864  0.0057
26770W        W42844  13.824  10.628   3.188  0.2152 -0.0002  0.1488
26771W        W42845   8.894  10.822  13.542  0.2367 -0.0420  0.0041
26772W        W42846   7.279   9.441   0.911 -0.0441 -0.2259  0.0048
26773W        W42847   7.783   2.874  14.428 -0.3006  0.2358  0.3266
26774W        W42848   1.569  18.972  13.810  0.0019  0.0233 -0.0937
26775W        W42849  18.812   0.873   3.023 -0.0655 -0.2239 -0.4432
26776W        W42850  11.451  10.147  12.065  0.0146 -0.0452  0.0233
26777W        W42851  15.766  13.026  14.312  0.3362  0.0728  0.0317
26778W        W42852   6.909   4.235  12.858  0.0654  0.0764  0.3369
26779W        W42853   3.648   9.248   0.185  0.0051  0.4686 -0.1851
26780W        W42854   4.597  14.396  10.645  0.0414  0.0522 -0.0883
26781W        W42855  16.642  15.217   3.857 -0.0441 -0.2598 -0.1515
26782W        W42856  17.086   5.227  13.349 -0.0881 -0.1666 -0.2319
26783W        W42857   9.960   7.996   0.142 -0.3538  0.4023  0.1109
26784W        W42858   9.825  13.328   1.155  0.3219  0.0691 -0.0002
26785W        W42859  14.736   9.407   4.989  0.1647  0.0539  0.3360
26786W        W42860   6.024   3.229  12.138  0.1105  0.1935  0.0426
26787W        W42861   8.822  11.838   4.476 -0.0054 -0.0470 -0.0332
26788W        W42862   4.107   9.146  14.045  0.2700  0.2623  0.2549
26789W        W42863  13.003   6.671   1.436  0.2543  0.7126 -0.0051
26790W        W42864   3.971  17.511  14.042 -0.0474  0.0280 -0.0639
26791W        W42865  13.217   2.459   3.839  0.2116  0.1673 -0.2889
26792W        W42866   0.151   6.215  13.194 -0.1360 -0.1020 -0.4493
26793W        W42867  11.467   3.955  11.298  0.2838  0.1225  0.4230
26794W        W42868   1.547   9.837  10.538 -0.1787 -0.0015  0.2944
26795W        W42869   0.061  11.208  14.096 -0.4551  0.0655  0.0671
26796W        W42870   5.786  12.267   2.786 -0.0645 -0.4011  0.0632
26797W        W42871  18.466  17.266   3.649  0.1525  0.0243 -0.0027
26798W        W42872   9.072  18.062   2.235  0.1094 -0.0663  0.2122
26799W        W42873   7.174  12.961  10.553  0.1345  0.1483  0.0440
26800W        W42874   4.453   4.943   2.412 -0.0001  0.0106  0.1005
26801W        W42875  12.634   7.120   3.324 -0.2262  0.0905 -0.0949
26802W        W42876  10.455   4.659   2.709  0.0077 -0.0424 -0.2381
26803W        W42877  14.694   1.688  12.637  0.0936 -0.1897  0.3429
26804W        W42878   2.435   8.886   1.314  0.2223  0.0501 -0.0213
26805W        W42879  16.709   3.485  11.014 -0.0662  0.0929 -0.1703
26806W        W42880  16.392   8.916  11.062 -0.0381  0.0001  0.4338
26807W        W42881  16.264   9.194  12.985 -0.2703  0.0823  0.0100
26808W        W42882  12.025  19.177   3.961  0.1913  0.1002  0.0347
26809W        W42883  11.352  13.973   3.900 -0.2526 -0.0187 -0.3327
26810W        W42884   6.597  17.880  11.403  0.2144  0.2013  0.1701
26811W        W42885   3.049   7.369  10.536 -0.0187 -0.4120  0.0235
26812W        W42886   2.042  15.042  13.255 -0.3609 -0.0270  0.2314
26813W        W42887  11.353   7.731   5.098 -0.1468  0.2223  0.1434
26814W        W42888   7.458   6.601  13.477 -0.2250 -0.0147  0.3454
26815W        W42889  16.652  14.578   2.919 -0.1540  0.0478  0.2840
26816W        W42890  17.219  12.753  13.572  0.3644  0.1021  0.1122
26817W        W42891  12.632   8.790  14.391  0.0169  0.1254 -0.3174
26818W        W42892   6.576   0.834   3.212 -0.0293 -0.2477  0.0894
26819W        W42893   9.255  15.788   1.543 -0.1586 -0.2345  0.1129
26820W        W42894   5.819   1.861  14.933  0.0257 -0.2058  0.2552
26821W        W42895  16.789   7.194   0.242 -0.0357 -0.1858 -0.2173
26822W        W42896  10.675  15.859   1.544 -0.0618 -0.1542 -0.1063
26823W        W42897   3.214  11.900   2.028 -0.0270 -0.0219  0.1558
26824W        W42898   3.238  12.039  14.674 -0.0478  0.3495 -0.2683
26825W        W42899   0.769  16.329  12.727  0.3236 -0.1507  0.1849
26826W        W42900   6.090   8.562  14.493 -0.0647  0.1144 -0.2741
26827W        W42901  10.294   3.348   2.144 -0.3317  0.6031  0.2654
26828W        W42902   2.518   7.142  14.774 -0.3657 -0.0765  0.0411
26829W        W42903  15.833   6.424   3.331  0.0878 -0.4884 -0.1795
26830W        W42904  16.587   1.710   1.002 -0.0700  0.1724 -0.4850
26831W        W42905  15.586  14.752  14.590 -0.0484 -0.1143  0.1482
26832W        W42906  17.546  13.111   2.493  0.3099 -0.1277  0.0826
26833W        W42907  14.714  15.354  13.414  0.0422  0.1875  0.0185
26834W        W42908  12.362  18.125  12.066  0.3333 -0.3161  0.0137
26835W        W42909  11.520   3.629  13.219 -0.0215  0.1460 -0.3469
26836W        W42910   7.486   7.103  13.654  0.1095 -0.3081  0.2459
26837W        W42911   5.596  10.794   5.663 -0.4095  0.2476 -0.2810
26838W        W42912   7.076  17.792   4.393  0.2445  0.2366 -0.1496
26839W        W42913   3.331   4.348  12.604 -0.0647 -0.0794  0.0419
26840W        W42914  18.673   7.484  14.508  0.1793 -0.0606 -0.0342
26841W        W42915   6.393   1.331   0.894 -0.3406 -0.1341  0.2417
26842W        W42916  16.316   7.680  10.712 -0.0128  0.1125 -0.3193
26843W        W42917  10.480  13.713   5.561  0.2601 -0.0518  0.1710
26844W        W42918  19.247   7.042   0.756  0.0288 -0.0200  0.2450
26845W        W42919   2.612   2.215   3.718 -0.0599  0.2160  0.3000
26846W        W42920  12.901  12.258   1.973  0.1364  0.2928 -0.1758
26847W        W42921  17.944   6.326   5.235 -0.1529  0.2611  0.1350
26848W        W42922  12.743  17.285  12.262  0.6090  0.3348 -0.0603
26849W        W42923  17.814   8.645   4.926  0.0669  0.0772  0.2094
26850W        W42924  19.271   6.779   4.863  0.2822  0.0830 -0.0258
26851W        W42925  15.001  17.721  10.334 -0.1477 -0.1028  0.3363
26852W        W42926   2.319  17.483  12.870 -0.0153 -0.1186 -0.1640
26853W        W42927   9.377   3.857  14.144  0.0647 -0.0935 -0.0758
26854W        W42928   4.435  14.704   4.592  0.1323  0.1116 -0.0732
26855W        W42929   1.768  18.325  12.010 -0.0551 -0.4670 -0.1941
26856W        W42930  18.060  18.111   4.797 -0.2599 -0.2642  0.0013
26857W        W42931   5.928   2.269  14.652  0.3499  0.1762  0.1456
26858W        W42932  19.070  17.615   2.894  0.0636  0.4166 -0.5518
26859W        W42933  15.263  18.003   0.797  0.2635  0.0070 -0.0212
26860W        W42934   3.460   9.063   4.739 -0.2029 -0.0974 -0.0779
26861W        W42935   3.939   6.870   0.782  0.1358  0.1152 -0.0639
26862W        W42936   9.999  16.228   0.133 -0.0025 -0.1409 -0.0108
26863W        W42937  18.688   9.960  11.472 -0.1215  0.0310  0.0634
26864W        W42938  15.329  14.220   0.200 -0.1253  0.0918  0.1156
26865W        W42939   7.352  16.086   1.902 -0.0354 -0.1778 -0.1087
26866W        W42940   7.845   7.445   3.485 -0.1499  0.1821 -0.3862
26867W        W42941  16.459  17.814  14.658 -0.0049  0.1316  0.0186
26868W        W42942  18.048  15.944  13.935  0.0061  0.1155 -0.0798
26869W        W42943   5.440  12.719   4.112  0.1297 -0.3099  0.0004
26870W        W42944   1.018   3.988   3.055 -0.2150  0.1187 -0.3102
26871W        W42945  12.618  15.344   1.564 -0.0690 -0.0254  0.3949
26872W        W42946   8.479  15.744  12.212  0.0598 -0.0101 -0.1533
26873W        W42947   9.061  14.190  13.503  0.2178 -0.1601  0.0212
26874W        W42948   2.327   1.202  13.781  0.1376 -0.1308 -0.1239
26875W        W42949   1.618   8.291   3.026  0.2344  0.0139  0.0813
26876W        W42950  12.630  18.188  12.751 -0.2974  0.2799  0.1178
26877W        W42951  12.141  10.486  11.524  0.0430  0.0545 -0.1052
26878W        W42952   9.920   9.254  14.097  0.4410  0.0123 -0.0585
26879W        W42953  16.387   2.951   1.370 -0.1081 -0.0706  0.3339
26880W        W42954   2.276   3.990   2.366  0.1761  0.1521 -0.0786
26881W        W42955   5.384  17.120  12.818  0.1670 -0.0643  0.2187
26882W        W42956   8.184  16.074   0.308  0.1231  0.0444  0.3102
26883W        W42957  13.352  12.523   3.096  0.3475 -0.3225  0.0097
26884W        W42958   1.633  10.967  11.503  0.1296 -0.0480 -0.2950
26885W        W42959   9.180   6.072  11.560  0.2441 -0.0061  0.0514
26886W        W42960  16.471   8.244   1.083  0.0343 -0.0574 -0.3052
26887W        W42961  18.009  18.812   1.518 -0.1160  0.2636 -0.2389
26888W        W42962  17.317   4.056  11.103 -0.0676  0.2061 -0.2206
26889W        W42963   7.178   2.734  13.978 -0.1517 -0.1966  0.0303
26890W        W42964  19.113  16.746  12.620  0.4165 -0.2681 -0.0723
26891W        W42965  13.195   5.924   5.179 -0.2214 -0.0770 -0.3879
26892W        W42966  16.197  17.966  12.368 -0.0246 -0.1308  0.0203
26893W        W42967  17.743  17.183   0.048  0.0030 -0.0934 -0.3782
26894W        W42968   3.638   9.147   0.679  0.0766  0.1846  0.2202
26895W        W42969   2.873   9.334   5.462  0.1541  0.1506  0.0969
26896W        W42970  19.014   8.784  14.003  0.1323  0.1202  0.1909
26897W        W42971  18.184  18.295  12.975  0.2059  0.0889  0.2080
26898W        W42972   5.671  18.766  12.759  0.0474  0.1674 -0.0053
26899W        W42973   5.227  15.836  14.848 -0.2936 -0.2490  0.1885
26900W        W42974  13.459   6.219   2.946 -0.2192  0.0099 -0.2915
26901W        W42975   0.461   1.813   3.374 -0.0862  0.4540  0.1579
26902W        W42976   0.743  12.179  12.289  0.0158 -0.2699  0.1300
26903W        W42977  11.407  10.322   4.769  0.3607 -0.0629 -0.0203
26904W        W42978   2.680   4.897   1.665  0.1807  0.1183  0.3175
26905W        W42979  10.338   9.508   0.964  0.1902 -0.2162  0.0686
26906W        W42980  11.443   5.871  14.886  0.0778  0.1870 -0.1964
26907W        W42981   2.344   8.024   4.842 -0.2112  0.0259 -0.0101
26908W        W42982   2.973   6.657  14.053  0.0973 -0.1205  0.0643
26909W        W42983  14.169   2.628   0.939 -0.1147 -0.1119 -0.1890
26910W        W42984  17.055   9.452  12.508  0.0724  0.1049 -0.0610
26911W        W42985   1.488   9.381  11.088 -0.0231  0.2854  0.0460
26912W        W42986   2.094   2.825   5.221  0.3012  0.1478 -0.3937
26913W        W42987   5.925   1.049   0.163 -0.0573 -0.0160  0.1989
26914W        W42988  14.032  11.147   5.214 -0.2086  0.1980  0.1321
26915W        W42989  18.987   1.781   4.239  0.0271  0.1237 -0.1630
26916W        W42990  11.829  15.071   2.427 -0.1021  0.0781 -0.0252
26917W        W42991   3.255  14.716   0.452  0.1854  0.1119  0.4789
26918W        W42992  16.780   6.246   0.139 -0.1178  0.0447  0.1171
26919W        W42993   3.762  17.648  13.586  0.3806 -0.0609 -0.0966
26920W        W42994   3.074   2.964  11.033  0.1046  0.2541 -0.1098
26921W        W42995  17.470   0.865  14.120 -0.0672 -0.0425 -0.1069
26922W        W42996   8.088   5.672   0.210 -0.3442 -0.1310  0.0049
26923W        W42997  12.184   8.983  14.190 -0.1379 -0.0599 -0.3680
26924W        W42998  10.176  18.410   1.201 -0.1425 -0.0339  0.3694
26925W        W42999  18.641   7.665   4.876  0.0759 -0.3143  0.1929
26926W        W43000  12.579  11.124   2.177 -0.4049 -0.0928  0.0497
26927W        W43001   7.092   0.487  14.546  0.3509  0.2149  0.1393
26928W        W43002  12.701  12.158  11.010 -0.2793 -0.2291 -0.0299
26929W        W43003   1.526  10.523  11.041 -0.1201 -0.0692  0.1947
26930W        W43004   6.113   0.875   0.948 -0.0455 -0.3223  0.1804
26931W        W43005   5.155  15.782  13.881 -0.2336 -0.1573 -0.1337
26932W        W43006  17.873  18.281   3.267  0.1450  0.0628  0.1745
26933W        W43007   5.404   9.338  13.179 -0.5567  0.3393 -0.0964
26934W        W43008   3.990   9.683   4.312  0.1333  0.3774 -0.2338
26935W        W43009   0.754  14.248  13.830  0.2839  0.0104 -0.1396
26936W        W43010   1.167   2.503  14.342  0.1375  0.2377  0.2360
26937W        W43011   8.599  14.205   5.632 -0.0381  0.3219  0.1238
26938W        W43012   3.026   3.878  14.640  0.0730  0.0822 -0.0952
26939W        W43013  10.627   2.023  14.012 -0.0373  0.0760  0.1548
26940W        W43014   7.331  11.931  10.956  0.0081 -0.2218 -0.0064
26941W        W43015  12.576   6.421   2.245 -0.0474 -0.1465 -0.0288
26942W        W43016  11.741  18.193  14.562 -0.2002 -0.0290  0.3009
26943W        W43017  15.850  14.310   0.240 -0.1710  0.4042 -0.1217
26944W        W43018   4.293  16.167  14.773 -0.0737 -0.1610  0.1952
26945W        W43019  11.524   3.655   0.506  0.3518 -0.0896 -0.0312
26946W        W43020   4.622  11.759  10.452  0.5683 -0.1241 -0.0648
26947W        W43021  16.701   0.606   2.800 -0.2210  0.2498  0.2295
26948W        W43022  19.048   0.478   3.381  0.0958 -0.1330 -0.0742
26949W        W43023   6.037  10.800   1.756  0.3585 -0.5009  0.0638
26950W        W43024   5.781  18.657  12.278  0.0581  0.0222 -0.0989
26951W        W43025   5.640   5.876   1.056 -0.3186 -0.3845 -0.2351
26952W        W43026   1.617   7.731   1.690  0.2898 -0.1307 -0.0668
26953W        W43027  10.265   8.476  15.050 -0.4440  0.0295 -0.1048
26954W        W43028   7.875   4.121  10.575  0.1416  0.2066  0.1055
26955W        W43029   4.129   8.781  14.583 -0.0615 -0.1602 -0.1969
26956W        W43030  10.788  11.317   0.370 -0.1743 -0.0053 -0.2762
26957W        W43031  12.576  18.747  13.784 -0.2832 -0.1911 -0.0451
26958W        W43032   3.966   9.768  13.662  0.0276  0.1018 -0.0546
26959W        W43033   8.470  11.343   1.846 -0.1671  0.1365  0.0345
26960W        W43034   1.339   7.545  10.459 -0.1444 -0.5636 -0.2506
26961W        W43035  11.446  10.724   0.670  0.0366  0.1998 -0.2214
26962W        W43036  11.774  14.449  12.277 -0.2279  0.1823 -0.0311
26963W        W43037   4.537   5.386  13.813  0.1490  0.1295  0.1741
26964W        W43038  18.847   8.120  12.332 -0.0876 -0.1339  0.1154
26965W        W43039   6.139  13.908  12.778 -0.1039  0.4601 -0.3578
26966W        W43040   8.295  14.395   2.667 -0.1402  0.3318 -0.1008
26967W        W43041  17.874   1.624   2.110  0.3225 -0.2534 -0.1414
26968W        W43042  14.149   8.361   4.198  0.0300  0.5193 -0.0232
26969W        W43043   8.162   4.157  11.397  0.2192  0.2027  0.1078
26970W        W43044   8.231  15.881   3.253  0.0932  0.1267  0.3191
26971W        W43045   5.495  18.200   2.659 -0.0345 -0.1139  0.2526
26972W        W43046   1.925  11.716   1.076  0.5101 -0.0667 -0.0987
26973W        W43047   1.013   9.403   1.351  0.2935 -0.1437 -0.1814
26974W        W43048   5.157  19.141  14.043 -0.0254  0.0877 -0.1795
26975W        W43049   1.725   4.165  14.337 -0.0214 -0.1136 -0.1490
26976W        W43050   6.934  14.967   1.223  0.0801 -0.2290  0.1780
26977W        W43051  11.756  17.534   3.326 -0.1287 -0.0528  0.2389
26978W        W43052   4.214   4.661   2.732 -0.0194  0.1984  0.1063
26979W        W43053  14.926   6.880  13.510 -0.4868  0.0765 -0.1954
26980W        W43054  14.937   8.869  12.624 -0.1094 -0.0237  0.2779
26981W        W43055  10.064  13.873   4.675 -0.0386  0.1652  0.0082
26982W        W43056   2.495  17.224  13.274  0.0026  0.0450 -0.2485
26983W        W43057   0.426  12.524  12.455  0.2336  0.0064 -0.0036
26984W        W43058   0.069   9.168  14.780  0.0063 -0.0938 -0.4116
26985W        W43059  13.744  13.910   1.988 -0.0351  0.0626  0.0536
26986W        W43060   7.983  17.423   5.034 -0.2576 -0.0097 -0.1536
26987W        W43061   7.809   7.451   6.189  0.4224  0.2636  0.0458
26988W        W43062   2.745   8.736  11.344  0.4108 -0.3265 -0.5124
26989W        W43063   3.495   4.656   3.176  0.0232  0.0762  0.4457
26990W        W43064  16.926  15.105  13.127  0.4556 -0.1486  0.0903
26991W        W43065  14.029   7.626   1.493 -0.2016 -0.0675  0.1681
26992W        W43066  13.679   3.686  14.170 -0.4694 -0.1206  0.0033
26993W        W43067  11.173   7.664  13.405  0.6399 -0.0967  0.0730
26994W        W43068   9.708   1.487  11.370  0.1633 -0.0700  0.0123
26995W        W43069   2.225   4.140  10.999 -0.1926  0.0487 -0.2114
26996W        W43070  15.947   9.964   4.664  0.0711  0.0125  0.2235
26997W        W43071  13.561   7.872   1.397  0.0351  0.0293 -0.0015
26998W        W43072  11.238  18.177   0.772 -0.1813 -0.0563  0.1709
26999W        W43073  19.129   1.063  10.731  0.1674 -0.1537  0.0136
27000W        W43074   4.237  17.550   0.742 -0.0143 -0.1037 -0.0852
27001W        W43075  13.832  14.468  12.725 -0.0274 -0.0375 -0.0801
27002W        W43076  19.129  10.593  13.506  0.0367  0.0484 -0.2060
27003W        W43077   4.060  17.277  13.243 -0.2172 -0.3084 -0.3737
27004W        W43078  13.236  14.938  15.033  0.1118  0.2253  0.1129
27005W        W43079   0.946  10.627   4.190  0.3500  0.4294 -0.0892
27006W        W43080  16.208  13.489   0.772  0.0675 -0.0415 -0.0567
27007W        W43081  18.819   4.333  13.457  0.1085 -0.1286 -0.0106
27008W        W43082  13.283  11.661  10.812 -0.0816  0.2287  0.4106
27009W        W43083  15.204   9.553  11.102 -0.0459  0.2214 -0.0188
27010W        W43084  11.555   8.259   2.652 -0.0877 -0.1882  0.2960
27011W        W43085   2.218   2.101   4.046  0.3112  0.2979 -0.1129
27012W        W43086   8.711   9.598   1.800 -0.1068  0.0761 -0.0276
27013W        W43087  11.939   8.312  11.242  0.3571  0.1752  0.1210
27014W        W43088   0.164  13.611  11.225  0.3091 -0.1265 -0.1491
27015W        W43089   4.826   8.554  11.848  0.1670  0.2311  0.0516
27016W        W43090   7.454  15.148  11.839 -0.0049 -0.1642  0.1197
27017W        W43091   8.150  15.424   3.562 -0.3191 -0.1766 -0.0570
27018W        W43092   8.462  16.229   4.738 -0.0899  0.0623  0.2204
27019W        W43093  14.783   1.524  11.443 -0.2107 -0.2609  0.2817
27020W        W43094  18.518   5.469   2.092  0.0610  0.1543  0.0337
27021W        W43095   8.869  15.251  13.126 -0.2049 -0.0197 -0.1566
27022W        W43096  16.368   8.933   1.875  0.0528 -0.0325  0.4832
27023W        W43097  14.545   9.422  10.458 -0.0670  0.0339 -0.0851
27024W        W43098  17.659   0.305   1.632 -0.4642  0.1268  0.1161
27025W        W43099   9.495   6.599   3.717 -0.0516  0.0952  0.0123
27026W        W43100  13.025   5.849   4.731 -0.1405  0.4086  0.2347
27027W        W43101   8.537  14.801  12.672  0.1855 -0.1612  0.4055
27028W        W43102   2.155   9.810   1.153 -0.1291 -0.3810  0.0199
27029W        W43103  11.145   6.074   3.084 -0.0325 -0.1540  0.2493
27030W        W43104  14.961   8.855   4.812  0.0257  0.0003 -0.2022
27031W        W43105  13.383  17.829  15.032  0.0515 -0.1680 -0.0602
27032W        W43106  13.479   0.910  13.959  0.1961 -0.0861  0.1533
27033W        W43107   8.966   6.870   3.148  0.1616  0.2164  0.1094
27034W        W43108  10.430   8.839   2.699  0.0033  0.3033  0.1718
27035W        W43109   9.627  11.257  10.800 -0.0724  0.1213  0.2096
27036W        W43110   6.267   4.660  14.906 -0.4167  0.0032  0.1951
27037W        W43111  17.309   5.656   5.264  0.3506 -0.1074 -0.0813
27038W        W43112   9.719   2.998  11.296 -0.0887 -0.1260 -0.1099
27039W        W43113  10.022  16.479   3.127  0.0054 -0.2300 -0.1826
27040W        W43114   5.152   3.197  10.673 -0.2171  0.3424 -0.0626
27041W        W43115   0.617  11.672  12.202  0.0618  0.3056 -0.2117
27042W        W43116   8.053   5.866  12.547 -0.1213  0.0740  0.0539
27043W        W43117  10.514  11.844  10.710  0.0267  0.0780 -0.0888
27044W        W43118   3.335  17.790   1.089  0.1564 -0.0387  0.3150
27045W        W43119  13.009  16.221  10.944  0.0046 -0.4283  0.0567
27046W        W43120   3.440   6.764  11.731 -0.2044 -0.3724 -0.1804
27047W        W43121  18.930   8.932   0.308 -0.1028  0.3483 -0.2140
27048W        W43122   3.813  16.421  11.893  0.1085 -0.0512  0.1549
27049W        W43123   3.716  12.763  14.204 -0.0642  0.1331  0.1371
27050W        W43124   8.581   8.799   5.304  0.0174 -0.0464 -0.1168
27051W        W43125   9.092  17.803  11.298  0.1102 -0.1367  0.3584
27052W        W43126   8.456   6.605   0.026 -0.2239 -0.0549 -0.1994
27053W        W43127  13.115   6.304  13.355  0.0344 -0.1413 -0.1196
27054W        W43128  15.382   9.033   5.385 -0.3182  0.0442 -0.0962
27055W        W43129   8.068  15.604   0.883  0.1778  0.3267 -0.3194
27056W        W43130   4.188  18.533   2.407 -0.2056  0.0890 -0.3617
27057W        W43131  13.739  10.869  10.603  0.1050  0.0657  0.1262
27058W        W43132  13.315   9.982  10.464  0.2093  0.0786  0.2411
27059W        W43133   1.614   8.348   2.126 -0.0483 -0.4315 -0.1817
27060W        W43134  16.959   4.024   4.215  0.1356 -0.1011 -0.0732
27061W        W43135   9.385  11.659   1.862 -0.2013  0.1567  0.0489
27062W        W43136   0.941   3.425   2.288  0.0336  0.1374 -0.2467
27063W        W43137   5.893  14.877  11.282  0.0415 -0.0947 -0.0623
27064W        W43138  18.800  12.448   2.514  0.0128 -0.1326  0.0621
27065W        W43139  12.170   8.037   1.514 -0.1678  0.1077 -0.1000
27066W        W43140  10.165  11.249  11.008 -0.1368 -0.1582 -0.0222
27067W        W43141   1.113  17.420  10.747 -0.1110 -0.0101 -0.2847
27068W        W43142  18.157  14.136   3.750 -0.1932  0.0828 -0.1039
27069W        W43143  18.330  10.608   2.295  0.0865  0.1199  0.3678
27070W        W43144   4.249   6.638   5.154 -0.2748  0.1382 -0.2324
27071W        W43145   9.405  15.030  14.008 -0.0680 -0.2016 -0.0208
27072W        W43146  13.921  10.554  13.676 -0.0396  0.1441 -0.0082
27073W        W43147   4.847   4.200  11.767  0.1635 -0.0331 -0.1514
27074W        W43148  17.935   0.106   2.357  0.0209  0.2359  0.4950
27075W        W43149   5.248  12.486  11.070  0.1184  0.0506 -0.0709
27076W        W43150   6.415  15.482  12.092  0.2516  0.1961 -0.2142
27077W        W43151   1.321   4.691   2.428  0.1775 -0.0363  0.2312
27078W        W43152   1.641  14.120  13.465  0.1343  0.2713 -0.0149
27079W        W43153  13.784   9.101  11.405 -0.3831  0.0013 -0.0926
27080W        W43154  10.858  13.234   1.948 -0.1946 -0.4461  0.1093
27081W        W43155   8.186   9.722  12.578  0.1446  0.0430  0.2122
27082W        W43156   9.608   3.958  11.029 -0.0479 -0.1073 -0.0901
27083W        W43157  15.833  11.190   1.323 -0.0291  0.4148 -0.1106
27084W        W43158   8.854   2.479   2.339 -0.3916  0.1421  0.0906
27085W        W43159  12.273   9.909  13.922 -0.4033 -0.1229  0.1412
27086W        W43160   2.848  14.469  10.168  0.1538  0.2257 -0.4542
27087W        W43161  13.382   9.111  12.367 -0.0671 -0.0863  0.2112
27088W        W43162   2.614   2.995  11.402  0.3036 -0.0622  0.1680
27089W        W43163  16.729  12.589   0.977  0.1112 -0.1000 -0.1487
27090W        W43164  13.393  16.010   1.122 -0.0354  0.0270  0.0885
27091W        W43165  10.632   5.736   5.088 -0.0687 -0.0163  0.0410
27092W        W43166   7.762  11.853  12.971  0.0980 -0.2506  0.0742
27093W        W43167   1.591  14.772  12.539 -0.0623 -0.0553 -0.2448
27094W        W43168   3.817  10.696  12.776  0.2610  0.2698 -0.0274
27095W        W43169   0.099  12.217  10.910 -0.2746 -0.0706  0.2023
27096W        W43170  18.187   4.995  14.742 -0.1853 -0.1750  0.2537
27097W        W43171  18.429   4.069   3.241 -0.0264 -0.2902 -0.2287
27098W        W43172   7.035   6.792   0.213 -0.1139  0.0797 -0.0498
27099W        W43173   5.881   0.832  14.248 -0.3597 -0.1873  0.1624
27100W        W43174   6.707   8.393  10.700  0.1893 -0.2227  0.0607
27101W        W43175  12.353  13.860   1.259 -0.0548 -0.0667  0.1824
27102W        W43176  11.299  11.142   1.362  0.0497  0.0609 -0.3750
27103W        W43177  13.254   0.989  13.422  0.0993  0.1806  0.0263
27104W        W43178   1.897  11.502   0.538  0.1597  0.0657  0.1396
27105W        W43179   7.524   5.987  13.014 -0.0617 -0.2058  0.1281
27106W        W43180  17.389   6.600  14.369  0.4207  0.0301  0.0570
27107W        W43181   9.069   0.828  11.778  0.1319  0.5455  0.1108
27108W        W43182   3.539   6.943  11.166  0.1855  0.2794 -0.0973
27109W        W43183  10.576  18.073   3.805 -0.0521 -0.2532  0.4547
27110W        W43184  16.173   4.404  12.880 -0.2949  0.2399 -0.0569
27111W        W43185  18.341   8.277  14.041 -0.0440 -0.1156 -0.1266
27112W        W43186   3.932   6.810  14.923  0.1534 -0.0757 -0.0268
27113W        W43187  16.117  19.271   2.348 -0.1367 -0.0454 -0.2383
27114W        W43188  10.320   2.655  14.588  0.4603  0.2300 -0.1903
27115W        W43189  14.808   2.728   1.024  0.1239 -0.3575 -0.0909
27116W        W43190   2.238   6.098   3.085 -0.1034  0.0463  0.2126
27117W        W43191  12.063   7.706   0.156  0.1106  0.0023 -0.1129
27118W        W43192   7.100  15.115  14.374  0.2825 -0.0067  0.1209
27119W        W43193  14.699   6.236   0.826  0.1721  0.1662  0.2522
27120W        W43194   2.785  11.446  10.847  0.2495 -0.1518 -0.1311
27121W        W43195   4.454   0.080   3.081 -0.0704 -0.1570 -0.1330
27122W        W43196   4.733   1.044  12.657 -0.0565 -0.0001  0.2473
27123W        W43197  12.146   2.970   2.439 -0.4187 -0.2515 -0.2961
27124W        W43198   3.753  15.833  12.687 -0.5637  0.0315 -0.1400
27125W        W43199  11.353   6.058   0.365  0.2615 -0.1705  0.1470
27126W        W43200   5.348  17.156   2.150 -0.1563 -0.1826 -0.0166
27127W        W43201   5.158   4.899  12.843 -0.1412  0.1891  0.1200
27128W        W43202   5.355   8.049   0.673  0.1336  0.0131 -0.2802
27129W        W43203  11.400   8.492   1.647  0.2188 -0.1282  0.0096
27130W        W43204   2.930   6.590   3.042 -0.1025 -0.3481 -0.2331
27131W        W43205  12.581  15.389  12.593 -0.0810 -0.2033  0.1732
27132W        W43206   5.363   3.282  14.662  0.1032  0.2916  0.0964
27133W        W43207   1.445   5.038  13.762  0.2487 -0.0362  0.0748
27134W        W43208   5.889  16.570  14.705  0.0782 -0.0842 -0.0645
27135W        W43209   8.278  16.009   1.061 -0.2212 -0.5059 -0.2829
27136W        W43210  14.585   6.203  12.353 -0.0689 -0.0517  0.4823
27137W        W43211   0.197  15.606   3.464  0.2064 -0.0603 -0.0764
27138W        W43212  13.182  14.627  11.553  0.0513  0.0739 -0.2196
27139W        W43213  17.109  19.295  10.811 -0.1619  0.1659  0.0239
27140W        W43214   2.643  17.881  12.256 -0.0321  0.0307  0.2014
27141W        W43215  12.237   3.830  14.662 -0.1419  0.0124 -0.1829
27142W        W43216   6.140  12.926   3.408 -0.2030  0.0794  0.0154
27143W        W43217  16.441  16.880   4.439  0.0135  0.2630 -0.2098
27144W        W43218  12.270   7.365   2.270  0.5066 -0.1830  0.3772
27145W        W43219  14.651  14.347  12.495  0.0103  0.0067 -0.0000
27146W        W43220  14.245  16.128   2.815 -0.1576 -0.0437 -0.1707
27147W        W43221  15.355  11.405   2.773  0.1573  0.0883  0.1549
27148W        W43222  15.525  15.072   1.485 -0.0143 -0.1541  0.4843
27149W        W43223  10.655   3.236   4.304 -0.0776  0.0677 -0.0442
27150W        W43224  14.281  12.881  14.419  0.4310  0.0377  0.0809
27151W        W43225   8.834  13.960  13.096 -0.2453 -0.3521  0.1035
27152W        W43226   4.044  16.174   3.889 -0.1896 -0.0759 -0.0789
27153W        W43227  11.114   0.008   3.540  0.0152  0.1543 -0.1383
27154W        W43228  15.077  16.412  12.837 -0.4767 -0.0174  0.1534
27155W        W43229  14.649   8.087  11.058  0.4166 -0.0333 -0.1117
27156W        W43230  12.711   2.421   4.086 -0.1802  0.1674 -0.0102
27157W        W43231   8.717   8.812  12.661 -0.1980  0.2836  0.1176
27158W        W43232   7.459   4.649   3.685 -0.2369  0.2648  0.1793
27159W        W43233   1.862  14.629   2.609  0.1572 -0.0613  0.2037
27160W        W43234   6.932  11.216  11.655  0.1638  0.0311 -0.4105
27161W        W43235  17.287   9.117   1.789  0.1403 -0.3095  0.0414
27162W        W43236   1.439   0.074   2.575  0.0606 -0.1821 -0.0854
27163W        W43237  14.490  10.918   1.791 -0.1474 -0.1272 -0.0400
27164W        W43238  10.696  15.756   3.448 -0.1910  0.0237  0.2416
27165W        W43239   8.285  14.583  14.029 -0.0218 -0.2035 -0.1314
27166W        W43240   2.246  10.161  12.203 -0.2420  0.0462 -0.0222
27167W        W43241  11.948   0.835  11.979  0.1608  0.3406  0.0937
27168W        W43242  13.695  13.586   1.110  0.0102  0.1709  0.0130
27169W        W43243   9.535   9.852   1.138  0.0526  0.2640  0.0088
27170W        W43244   3.096  18.127   2.666 -0.1879  0.3555 -0.1546
27171W        W43245  19.124  18.903  12.399 -0.3200  0.0538 -0.0159
27172W        W43246   1.808   4.413  12.534 -0.0061 -0.0520  0.1387
27173W        W43247   3.856  12.105   1.414 -0.1827  0.5074 -0.1051
27174W        W43248  15.683   2.500   4.591 -0.0936  0.0208 -0.0656
27175W        W43249   7.896   1.074  12.729  0.4603 -0.2186  0.0206
27176W        W43250  13.363  12.264  14.541 -0.0439 -0.0192 -0.0776
27177W        W43251   1.281   3.670   4.397  0.1485 -0.3353  0.2921
27178W        W43252  10.216  11.408   2.148  0.1070  0.3608  0.0650
27179W        W43253  17.888   9.366   4.347 -0.0479  0.1015 -0.1434
27180W        W43254   1.364   0.539  13.205 -0.3651  0.1549 -0.1793
27181W        W43255   5.796   2.819   3.980 -0.0271  0.1115  0.0519
27182W        W43256   9.650   3.178  13.700  0.0365  0.3263  0.1082
27183W        W43257  16.549  11.840  10.738 -0.1323  0.0081  0.1474
27184W        W43258   5.146  10.508   0.488 -0.2284  0.1350 -0.2848
27185W        W43259   4.242  10.793   1.691 -0.0068 -0.0436  0.2728
27186W        W43260  12.606  14.209   2.485 -0.3265 -0.0177  0.0885
27187W        W43261  18.136  12.369   1.516  0.1419  0.2154 -0.0128
27188W        W43262   9.446   2.101   1.953  0.3464 -0.1073 -0.0127
27189W        W43263   7.537   8.501  11.671  0.0009 -0.0890  0.1682
27190W        W43264   7.442   4.402   0.785  0.1647 -0.1910 -0.1717
27191W        W43265   0.216   8.240   4.579 -0.1571 -0.2495 -0.0803
27192W        W43266   2.682   4.841  15.037 -0.2656  0.1767  0.0793
27193W        W43267  17.057  14.697   9.369 -0.4060 -0.2748 -0.1033
27194W        W43268   3.478   0.018  10.715 -0.1561 -0.3544 -0.1452
27195W        W43269  12.216   0.038  11.257 -0.1188 -0.0797  0.0100
27196W        W43270  18.425   8.427   3.064 -0.2427  0.1047 -0.0941
27197W        W43271   8.233   2.249   4.991 -0.0168  0.4481 -0.0245
27198W        W43272   8.802   1.648  12.525  0.1653  0.1183  0.1089
27199W        W43273   0.072  17.073  10.737  0.0909  0.1772 -0.3550
27200W        W43274   5.172  10.534  12.387  0.0722 -0.0681  0.3421
27201W        W43275  13.980   7.208  12.516  0.1092  0.2861  0.0519
27202W        W43276  17.785   7.547  11.274  0.0318 -0.1559  0.0239
27203W        W43277   9.658   9.379  14.526  0.1369 -0.0008  0.0509
27204W        W43278  13.327   8.163   2.637  0.1420  0.2764 -0.0874
27205W        W43279  13.020   2.240   1.724 -0.2058  0.0341  0.2960
27206W        W43280  11.322  17.562   1.782 -0.2466  0.1556 -0.3320
27207W        W43281   9.676  13.456   5.316 -0.0880 -0.1121 -0.3915
27208W        W43282  17.060  12.095  13.606  0.1265 -0.1632 -0.0324
27209W        W43283  15.156   0.533  14.188  0.4605 -0.0429 -0.1152
27210W        W43284   8.733  14.504  13.705  0.0836  0.1129  0.2325
27211W        W43285   7.628  16.115   3.255  0.1944  0.1003  0.2518
27212W        W43286  14.997  18.335   0.416  0.1174  0.0613  0.0881
27213W        W43287  13.530  11.933   3.815 -0.0184  0.2798  0.4220
27214W        W43288  11.979   9.366   1.422 -0.1415  0.1496 -0.1558
27215W        W43289   6.760  13.225  11.758 -0.1468 -0.2691  0.0599
27216W        W43290   7.820  12.690  12.180  0.2056  0.0623  0.1173
27217W        W43291   5.974   6.901  13.809  0.0099  0.0822 -0.0386
27218W        W43292   8.358   4.564   3.140 -0.1092 -0.1650 -0.2334
27219W        W43293   1.269  10.550  11.778  0.0279 -0.1047 -0.0959
27220W        W43294   5.632   5.680  11.684 -0.1397  0.0344  0.1885
27221W        W43295   6.813   8.146  12.332 -0.0093  0.0059  0.1121
27222W        W43296   7.203   4.279   3.877 -0.1282  0.3261 -0.4206
27223W        W43297   6.139  18.925  14.979  0.0250 -0.1287 -0.1158
27224W        W43298   4.528  14.980   4.049 -0.2095 -0.1954  0.2343
27225W        W43299  14.580   9.208  12.499 -0.2910 -0.3410  0.2888
27226W        W43300  15.801   0.963  12.532 -0.0711  0.0840 -0.0212
27227W        W43301  17.632   4.388   4.046 -0.0496  0.1962  0.0701
27228W        W43302  17.871  12.740   4.352  0.2175 -0.1564  0.2229
27229W        W43303  11.575  11.394   5.542 -0.2928  0.0517 -0.1982
27230W        W43304  14.044   6.770  12.817  0.2284  0.2379  0.3726
27231W        W43305   7.640   0.329   1.729 -0.6185  0.2646  0.1006
27232W        W43306  13.318   7.851  13.387 -0.0297 -0.1030 -0.1708
27233W        W43307   4.955  12.155  11.364 -0.2146  0.2392  0.1095
27234W        W43308  18.465   2.096   5.687  0.1663 -0.0033 -0.0634
27235W        W43309   4.352   8.498  12.731  0.1829 -0.1083 -0.3613
27236W        W43310  10.842   3.690  13.468 -0.1731  0.1320  0.2367
27237W        W43311   3.162   1.217   1.949 -0.0816  0.2190  0.2253
27238W        W43312  11.648   4.862  12.019 -0.1910 -0.0582 -0.0074
27239W        W43313   0.432   0.590   4.612  0.0650  0.1126  0.2192
27240W        W43314  10.861  18.053   0.057  0.2606  0.1033 -0.1030
27241W        W43315  14.196  10.059   1.923 -0.1968 -0.0532  0.1750
27242W        W43316  17.511   4.693   1.540  0.2199 -0.1433  0.1455
27243W        W43317   1.011  11.815   0.485 -0.1087 -0.0639  0.5532
27244W        W43318   0.357  13.209  14.144 -0.0379 -0.4745  0.0103
27245W        W43319  10.067   0.893   4.602  0.0450  0.1316  0.1472
27246W        W43320   4.832   3.150  13.232 -0.0534 -0.0558 -0.2529
27247W        W43321   4.314  12.005   2.966  0.1366 -0.0535 -0.3173
27248W        W43322   7.840   7.789  10.960  0.3352  0.0100 -0.0799
27249W        W43323  18.460   8.258   0.543  0.0241 -0.2322 -0.1886
27250W        W43324  15.634   9.948   0.856  0.1392  0.4401  0.1925
27251W        W43325   8.942   7.673   0.995  0.0832 -0.1975  0.2145
27252W        W43326  14.673   0.060   1.958 -0.2099  0.2102 -0.0668
27253W        W43327  18.285  14.989   2.343 -0.0008 -0.4826 -0.0104
27254W        W43328  11.616   8.038  14.414 -0.2064  0.2332  0.0444
27255W        W43329  12.447   6.221   0.673  0.0230 -0.0963 -0.0963
27256W        W43330   4.833   2.620  14.360 -0.0381  0.3127 -0.3004
27257W        W43331  16.753   7.711   0.079 -0.0239  0.2782  0.2811
27258W        W43332   6.364   3.266   2.662 -0.2046  0.3146  0.0731
27259W        W43333   0.414   5.841   1.317 -0.0283  0.2658 -0.0538
27260W        W43334   7.924   0.053  14.876  0.1705 -0.0034  0.2579
27261W        W43335   2.418   8.495   3.500 -0.0017 -0.0217 -0.3370
27262W        W43336  19.273  13.343   9.935  0.3484 -0.1118  0.0136
27263W        W43337  16.366   4.058   3.275  0.2223  0.0634  0.1625
27264W        W43338   6.249  12.941   4.468  0.3144 -0.3489  0.0102
27265W        W43339  12.050  11.196   0.010  0.1141 -0.2258  0.0839
27266W        W43340   0.460   2.097  12.104  0.2319  0.0380 -0.0096
27267W        W43341   0.799  11.689  10.273  0.1979 -0.1504 -0.0727
27268W        W43342   1.075  18.918  11.237 -0.2078 -0.0202 -0.5684
27269W        W43343  18.471  18.995  12.478 -0.4547 -0.0428 -0.3011
27270W        W43344   4.598   9.142   0.334 -0.3492  0.1637  0.2208
27271W        W43345   5.085   8.367  14.903  0.1341  0.1464  0.1610
27272W        W43346   9.482  12.429   4.291  0.1185 -0.1155 -0.1408
27273W        W43347  14.103  10.853  11.896 -0.1412  0.1438  0.0931
27274W        W43348   3.231  12.902   2.333  0.0446 -0.0297 -0.0438
27275W        W43349   1.359  18.606   3.838  0.0814  0.1554  0.1063
27276W        W43350   8.687  10.008   2.205 -0.0038  0.1620 -0.1688
27277W        W43351   2.656   2.226   0.718 -0.0858 -0.0172 -0.1206
27278W        W43352  17.187  12.439   0.064 -0.1344  0.0583 -0.0465
27279W        W43353   4.010  13.865   4.590  0.3421  0.3913  0.0123
27280W        W43354   8.677  12.856  11.238  0.0071 -0.3008  0.3383
27281W        W43355   2.833   6.095   0.637 -0.5778  0.1816 -0.0893
27282W        W43356   5.422  14.740  12.890 -0.0269 -0.2398  0.1032
27283W        W43357   1.729  13.487   4.649 -0.0021  0.0246  0.2055
27284W        W43358   4.094   0.415  13.209  0.0252 -0.0565 -0.1670
27285W        W43359   7.873   7.317   4.363  0.2975  0.1882 -0.0914
27286W        W43360   1.681   5.044   0.028 -0.0992  0.3330  0.1935
27287W        W43361   6.446  16.183  14.885 -0.2374 -0.0890 -0.1468
27288W        W43362  18.736   1.453   1.556 -0.0492 -0.1484  0.1271
27289W        W43363   9.534   2.094  14.528  0.1234 -0.1068 -0.0352
27290W        W43364  18.573   0.940  11.456 -0.0157  0.0390  0.0177
27291W        W43365   6.239  14.325   5.222  0.0601  0.2245  0.1021
27292W        W43366   5.642   3.278   3.817 -0.2675 -0.0530  0.3562
27293W        W43367   5.246   9.437   1.416  0.2442  0.1529  0.1898
27294W        W43368   8.562   7.516   0.557 -0.2101  0.1439  0.1914
27295W        W43369  11.570  15.505   2.556  0.2770  0.0774 -0.3720
27296W        W43370   5.985  16.019  12.720  0.1227  0.1596 -0.1376
27297W        W43371   8.412   9.831   1.379 -0.1526  0.1596  0.3323
27298W        W43372   7.348  17.244  13.867  0.3012 -0.3153 -0.1137
27299W        W43373   8.137  10.220   1.394  0.1849  0.0953 -0.0191
27300W        W43374   1.445  18.063  14.793 -0.1817 -0.0995 -0.0228
27301W        W43375  16.650   1.699   2.778 -0.5920 -0.0564 -0.0648
27302W        W43376   1.262  13.606   8.952  0.1080  0.0776 -0.0817
27303W        W43377  18.036   5.981   3.208 -0.3181  0.0338  0.1317
27304W        W43378   0.391  15.129  14.256  0.0451 -0.1160 -0.2382
27305W        W43379   5.084  10.893   3.236  0.2931  0.1919  0.2221
27306W        W43380  17.938  17.170   1.835  0.0073 -0.2226  0.1682
27307W        W43381   1.176  16.721  13.556 -0.1464  0.0844  0.0022
27308W        W43382   6.241   0.883  11.576  0.1443 -0.3257  0.0244
27309W        W43383  16.876   5.313  12.038 -0.1125 -0.1708 -0.0356
27310W        W43384   0.422   6.988   1.029 -0.3098 -0.0810 -0.1910
27311W        W43385  16.203  10.997   3.888 -0.0391  0.0684 -0.0891
27312W        W43386   1.002   6.593  14.038 -0.4273 -0.2239 -0.0014
27313W        W43387  18.107  15.671  13.496  0.1988  0.3885  0.2599
27314W        W43388   5.821  19.280   0.951 -0.0175  0.1361 -0.0879
27315W        W43389   1.787   6.255   0.598 -0.0880 -0.1932  0.1785
27316W        W43390  17.849  18.893  13.590 -0.4772  0.1916  0.2974
27317W        W43391  13.093  15.289  11.046  0.0770  0.0801  0.2717
27318W        W43392   4.107  18.567  11.581  0.0047  0.3827  0.0471
27319W        W43393   3.684   5.901  11.528  0.3332  0.2678 -0.0593
27320W        W43394   0.531   1.345  10.832 -0.0245 -0.0226 -0.3971
27321W        W43395   9.087   8.650  12.297 -0.0467  0.0564  0.3752
27322W        W43396   1.087   3.809  10.108  0.3983  0.0675 -0.4906
27323W        W43397  17.218  12.733  11.708 -0.0107 -0.3602 -0.0153
27324W        W43398  16.475  13.895  12.965  0.0580  0.0245 -0.5226
27325W        W43399   5.829   1.200  11.776 -0.2683  0.0928  0.0594
27326W        W43400  14.216   3.148  12.152  0.1454 -0.1752 -0.3412
27327W        W43401  17.592  12.566   1.668 -0.4111 -0.0703 -0.3303
27328W        W43402   7.578  14.865   0.435  0.1065  0.0653  0.2705
27329W        W43403  10.154   5.874  11.340  0.1871 -0.0489 -0.1891
27330W        W43404  12.910   4.005  13.157  0.0695  0.0496 -0.1490
27331W        W43405  17.125   1.599  13.916 -0.0068 -0.1463  0.1544
27332W        W43406  11.367  13.029   1.210 -0.1060 -0.1947  0.0730
27333W        W43407   9.504  16.335   1.903 -0.0434 -0.0693  0.1907
27334W        W43408   9.907   7.716   2.424  0.1563  0.0176  0.2546
27335W        W43409  10.998   0.156   4.534 -0.0449  0.4140  0.3261
27336W        W43410   1.252   0.939   2.462 -0.0189  0.0747  0.1769
27337W        W43411  14.890   7.156  10.714 -0.0183  0.2016  0.0806
27338W        W43412   2.685   2.766   5.907 -0.2505 -0.1696  0.0023
27339W        W43413  10.774  10.055  14.581  0.1159 -0.1559  0.0065
27340W        W43414   4.402   9.225   2.622  0.1007  0.0076 -0.1030
27341W        W43415   8.027  13.212   4.199 -0.2850 -0.1285  0.0851
27342W        W43416   3.244  17.354  14.687 -0.0098 -0.1311 -0.2730
27343W        W43417  18.601   9.812   3.125  0.2414 -0.0392  0.0686
27344W        W43418   9.279   0.392  12.617  0.0333 -0.1399 -0.0091
27345W        W43419   9.360   8.342  11.002  0.0893 -0.2213  0.0607
27346W        W43420   5.376   1.243  10.867  0.3554 -0.1386  0.0244
27347W        W43421   4.211   9.135   4.099 -0.1547  0.0049 -0.2161
27348W        W43422   0.489   3.063   1.111 -0.0162 -0.0246  0.1258
27349W        W43423  18.903   9.495   5.205  0.2406  0.0572 -0.2478
27350W        W43424  18.654   4.280  10.453  0.0269  0.0287 -0.2858
27351W        W43425  17.754   7.508   0.344 -0.0688 -0.1257 -0.2506
27352W        W43426   7.910  11.813  14.913 -0.1035 -0.0904 -0.1470
27353W        W43427   1.643   6.094   5.064 -0.2964 -0.2395  0.1419
27354W        W43428   6.129  16.959  12.473 -0.0634  0.0456  0.1639
27355W        W43429   8.180   6.467   2.532  0.1662  0.2209  0.2094
27356W        W43430   8.368   8.039   4.097  0.0745 -0.0423 -0.0044
27357W        W43431  14.235   3.735  11.138 -0.1530  0.0973  0.2316
27358W        W43432  12.142   5.467  12.788 -0.1788 -0.0734  0.0626
27359W        W43433  18.946   4.392   0.871 -0.1785  0.3611 -0.1340
27360W        W43434   1.900  14.898   1.748 -0.1032  0.0460  0.2854
27361W        W43435   4.719   8.211   3.609 -0.2272  0.0577 -0.0685
27362W        W43436  18.154   5.786   1.154 -0.0516 -0.1193 -0.1508
27363W        W43437   3.495   5.432   1.514 -0.3470 -0.0856  0.0512
27364W        W43438  14.579   9.442   0.437 -0.3127  0.3402  0.0038
27365W        W43439  13.414   7.429   0.601 -0.3273  0.2897 -0.1232
27366W        W43440  13.804  18.294   2.060  0.3864 -0.0030  0.1851
27367W        W43441   4.897  10.090   3.200  0.2291  0.0863  0.1765
27368W        W43442  10.100   1.197   0.458  0.2312 -0.1634  0.2337
27369W        W43443   2.975   4.083   4.258  0.1129 -0.0550  0.1937
27370W        W43444   4.727  17.400   2.043  0.1208 -0.1816 -0.4648
27371W        W43445  13.921   8.415   3.529 -0.0394 -0.2012 -0.0250
27372W        W43446   5.537  18.110  12.299 -0.1315 -0.0231  0.1404
27373W        W43447  12.970   6.974   2.936  0.2413 -0.0516 -0.1749
27374W        W43448  16.604   0.057  11.579  0.1442 -0.0572 -0.5394
27375W        W43449  13.084   3.590   5.216  0.0829  0.1681 -0.0926
27376W        W43450  13.523   6.087  14.458  0.2431 -0.1172 -0.0734
27377W        W43451   1.303  11.755   2.285  0.1137  0.2440 -0.0955
27378W        W43452  17.200  16.034   0.324  0.2538 -0.1584  0.1300
27379W        W43453  17.322  15.453  14.729  0.1666  0.3280 -0.0419
27380W        W43454  13.495  13.233  14.747 -0.2364  0.0203  0.0746
27381W        W43455  10.597  14.899  10.816 -0.3666  0.1463  0.3300
27382W        W43456   1.954  15.840   1.094 -0.1230 -0.0381  0.3009
27383W        W43457  18.224   9.142   0.660  0.1572 -0.0068 -0.1306
27384W        W43458   3.715   5.059  14.222 -0.2767 -0.0328 -0.1098
27385W        W43459  14.833   0.465  12.504 -0.1453 -0.1110 -0.0652
27386W        W43460  18.509   2.952   9.592 -0.0143 -0.3269 -0.0188
27387W        W43461   5.348  11.239  12.843 -0.0804  0.2915 -0.0523
27388W        W43462  17.465   3.704  12.543  0.0818  0.1059 -0.2378
27389W        W43463  16.799  13.553   3.440 -0.1657 -0.0822  0.2326
27390W        W43464   8.875   8.020   3.601 -0.1339 -0.2063  0.2035
27391W        W43465  12.878  10.229   1.325 -0.2039 -0.3760 -0.2331
27392W        W43466   8.395   1.400  14.664 -0.0740 -0.1843 -0.0291
27393W        W43467   1.194   4.264   0.582  0.0289 -0.0426  0.0040
27394W        W43468  14.049   9.275  14.168  0.1672  0.2248 -0.0171
27395W        W43469  13.828  11.363   1.785  0.0965 -0.1275 -0.0729
27396W        W43470   3.641   8.416   3.589 -0.2016  0.0118 -0.0807
27397W        W43471   3.968   6.349   0.871  0.2070  0.0418 -0.4356
27398W        W43472   1.208   5.611  12.416 -0.1780  0.0854 -0.4429
27399W        W43473   5.932   0.619  13.636 -0.2030 -0.1314  0.4467
27400W        W43474  16.383  16.881   9.933  0.3122  0.3745  0.0466
27401W        W43475  10.496   3.829   4.335  0.1334 -0.0746 -0.2352
27402W        W43476   3.067  12.476   0.431 -0.1713  0.1372  0.0599
27403W        W43477   4.697   6.906   4.955  0.1173  0.0032  0.2569
27404W        W43478  16.746  10.956  12.509  0.0130  0.0444 -0.1464
27405W        W43479  18.457   4.621  14.756 -0.0692  0.0251 -0.0023
27406W        W43480  14.600   0.605   3.956  0.3651 -0.0804 -0.1694
27407W        W43481  13.675   3.357  10.815  0.1629  0.0115 -0.2387
27408W        W43482   2.859   0.413   4.051  0.3187 -0.3783  0.0160
27409W        W43483   6.274  15.836   1.109  0.0591 -0.0029  0.1370
27410W        W43484  18.461   0.015   1.142 -0.0038  0.0357  0.1343
27411W        W43485   8.649  14.142  12.020  0.2990  0.1075  0.0179
27412W        W43486  17.976   5.674   1.766  0.0107  0.6485  0.0094
27413W        W43487  16.707   6.912   2.929 -0.0738 -0.0032  0.2001
27414W        W43488   8.351   1.287   3.632 -0.0711  0.2895  0.2857
27415W        W43489  16.247   4.740  13.591 -0.0223  0.1443  0.3106
27416W        W43490   3.809  13.596   3.122 -0.2124 -0.0398  0.0031
27417W        W43491  14.848   1.586   1.266  0.1295  0.0749 -0.1090
27418W        W43492  14.858  17.316  11.128  0.2073 -0.1038  0.2291
27419W        W43493  14.727  12.481  14.942  0.1686 -0.2695 -0.2634
27420W        W43494   6.946   7.852   5.336 -0.2578  0.1210 -0.2759
27421W        W43495  13.794   2.613   3.266  0.0580 -0.1005  0.2712
27422W        W43496   5.772   8.935   5.368 -0.0676  0.2747 -0.1715
27423W        W43497   5.385   8.027  13.581  0.0171  0.1449  0.0926
27424W        W43498   0.894  17.473   2.918 -0.0219  0.1082  0.1679
27425W        W43499   2.476  13.863  14.429  0.2079  0.0193 -0.0408
27426W        W43500   1.843  12.291   3.005  0.1850  0.1481 -0.2294
27427W        W43501  11.980  15.954  14.471  0.1040 -0.0889  0.5094
27428W        W43502  18.065   3.228  11.806  0.3354 -0.2169  0.0512
27429W        W43503   3.863  17.169  13.678 -0.0529  0.0758  0.1156
27430W        W43504  10.869   7.680   3.421 -0.0606 -0.0562  0.2250
27431W        W43505   9.267  17.867  13.738  0.0004  0.1197  0.1799
27432W        W43506   5.050   9.446   0.178 -0.2162  0.2097 -0.0042
27433W        W43507   9.656  17.600  12.443 -0.4008 -0.0069  0.1348
27434W        W43508  12.875   9.273  14.381 -0.1924 -0.1345 -0.1352
27435W        W43509   3.244  14.327   0.836  0.4091  0.1995  0.2649
27436W        W43510   0.164  15.614  11.276 -0.3340  0.3568 -0.0350
27437W        W43511  15.236   2.740  13.923 -0.1403 -0.1495  0.2380
27438W        W43512   1.697   3.957   3.504  0.4254 -0.0788  0.3169
27439W        W43513  10.406  17.113  12.916  0.3526 -0.2422 -0.0420
27440W        W43514   9.663  11.623   5.701  0.2179 -0.0613 -0.0865
27441W        W43515   8.995  11.321   1.989  0.1883 -0.0370  0.1963
27442W        W43516   7.097  11.523   2.908  0.0153 -0.0216 -0.3375
27443W        W43517  19.206  14.980  14.187  0.4485  0.0659  0.1032
27444W        W43518   0.822  10.158   3.471 -0.0194  0.1772 -0.1548
27445W        W43519   6.383  12.987  14.944 -0.0620 -0.3345 -0.2074
27446W        W43520   2.332  18.136  11.372  0.0428 -0.2379  0.1728
27447W        W43521  11.492   6.260  14.545  0.1367  0.0196 -0.0100
27448W        W43522   3.569   3.890  13.831  0.0125 -0.0663 -0.1438
27449W        W43523   9.417   1.686   4.740 -0.3349 -0.0369 -0.1712
27450W        W43524   5.199   1.237   0.918  0.1415 -0.3807  0.1354
27451W        W43525  10.821  13.368   2.927  0.0260  0.1117  0.3699
27452W        W43526  10.866  18.586  14.396  0.0339  0.0294 -0.0192
27453W        W43527  16.076   3.431   1.230  0.1121 -0.1768 -0.4209
27454W        W43528   8.855   6.845   4.017 -0.1292 -0.0786  0.1080
27455W        W43529   6.048   6.078   5.070  0.3568  0.0153  0.3826
27456W        W43530   9.045  13.763  11.696  0.2844 -0.0492  0.0407
27457W        W43531  16.789  17.633   2.461 -0.0170  0.1121  0.0896
27458W        W43532  16.551  10.680   1.610 -0.0616  0.2451  0.0927
27459W        W43533   2.667  17.747   4.396  0.2233 -0.2498  0.1647
27460W        W43534  11.959  15.192   3.134  0.1456 -0.1833  0.1470
27461W        W43535   3.555   0.838   5.348 -0.1876  0.1527  0.0930
27462W        W43536  15.026  15.864   1.982 -0.1390 -0.1079 -0.0490
27463W        W43537   1.750   2.350  10.595  0.1329  0.1578  0.1139
27464W        W43538  17.288  16.258   3.716 -0.0060 -0.2856 -0.1694
27465W        W43539   3.593  19.121   0.936  0.2604  0.1627 -0.0880
27466W        W43540   9.942   3.476  14.097 -0.4231 -0.0464  0.0658
27467W        W43541  11.382  12.799   4.710  0.1647  0.1104  0.1161
27468W        W43542  17.749  19.120   2.723  0.0401 -0.0921 -0.0237
27469W        W43543  13.004   8.095   4.632  0.2368 -0.0891 -0.1910
27470W        W43544   5.190   3.074   1.318 -0.0458 -0.2590  0.5621
27471W        W43545  19.150   2.634  11.492  0.0439 -0.2141 -0.2083
27472W        W43546   0.396  18.979  12.353 -0.0463  0.3613  0.1409
27473W        W43547   1.181  13.248   1.459 -0.1709 -0.0463  0.3876
27474W        W43548  17.473   8.719  14.447  0.1081  0.2537 -0.1074
27475W        W43549   7.428   3.782   4.077 -0.0837  0.2911 -0.1565
27476W        W43550  13.551   8.087  12.643  0.2259 -0.3341 -0.2548
27477W        W43551   8.671  15.515  11.415 -0.1725  0.0810 -0.3660
27478W        W43552  15.258  17.368   2.309 -0.1045  0.2356  0.2754
27479W        W43553   9.080   3.467  13.419 -0.2447 -0.1152 -0.2133
27480W        W43554  16.572  16.228  12.974  0.0498  0.0127  0.1433
27481W        W43555   5.486  12.454  13.274  0.0080  0.1171  0.1013
27482W        W43556  10.741  12.004  11.264 -0.3273 -0.1135 -0.0371
27483W        W43557   6.128  17.647   1.537  0.0506  0.3093  0.0159
27484W        W43558  14.627  13.504   3.248 -0.0361 -0.0432 -0.0306
27485W        W43559  10.870   5.674  13.903 -0.1094 -0.0992  0.3965
27486W        W43560  13.847  13.885   2.969 -0.0127  0.2237  0.1631
27487W        W43561   4.241  12.082   1.690  0.1764  0.1404 -0.2531
27488W        W43562  18.348  15.863   1.684  0.3114 -0.1179 -0.1058
27489W        W43563   3.844  18.192   1.262  0.0563  0.0817  0.1903
27490W        W43564   1.581   8.868   0.208  0.2975  0.2573 -0.4972
27491W        W43565  15.679  12.952   3.610 -0.1096  0.0313 -0.0522
27492W        W43566  18.210   6.956   4.468 -0.2426 -0.2551  0.0918
27493W        W43567  18.203  14.716  13.680  0.3778  0.2021 -0.0605
27494W        W43568  18.338   1.864  12.311  0.0213  0.2129 -0.1579
27495W        W43569   6.670   2.693  10.661 -0.1090  0.1436  0.2284
27496W        W43570   1.539   2.128   0.565  0.0564 -0.4172  0.1246
27497W        W43571   4.468   8.090  11.112  0.3533 -0.0006  0.2548
27498W        W43572   9.047   0.582   4.222  0.3209  0.0420 -0.1277
27499W        W43573  18.507   8.325  13.575 -0.2597 -0.2260  0.1570
27500W        W43574   3.062  10.306  10.524 -0.0424  0.0425  0.2792
27501W        W43575   2.413  14.993   3.584 -0.0747 -0.2688  0.2145
27502W        W43576   4.600   2.979   2.197  0.1786 -0.0175 -0.3519
27503W        W43577  12.558  15.172   2.524  0.0217 -0.1463  0.2002
27504W        W43578  13.989   6.651   1.576  0.0014 -0.1313  0.4154
27505W        W43579   2.763   9.083  10.164  0.1411  0.2223  0.1921
27506W        W43580  13.264   9.387   3.429  0.0060 -0.1631  0.0817
27507W        W43581  18.608   9.262  14.656 -0.1283 -0.1939  0.2424
27508W        W43582  11.114   4.838  12.154  0.3155  0.0195 -0.1032
27509W        W43583   2.477   6.931   0.911  0.0715 -0.0159  0.1527
27510W        W43584   3.168   2.237  13.808  0.0144  0.1730 -0.0585
27511W        W43585   0.177  17.594  14.721 -0.4114  0.0482 -0.0621
27512W        W43586   0.046  16.115   2.687 -0.1350 -0.2216  0.1522
27513W        W43587  11.567  14.318   1.508  0.0379  0.2573  0.1239
27514W        W43588  18.889   0.380  11.485  0.0252  0.0690 -0.0212
27515W        W43589   3.478   7.863   0.759  0.0119  0.0251 -0.1280
27516W        W43590  11.438  13.331  11.765 -0.2066 -0.0555 -0.2285
27517W        W43591   6.133  16.416  11.165 -0.3980 -0.3625  0.1122
27518W        W43592   1.744   1.598   2.568 -0.0098  0.0607 -0.2073
27519W        W43593  18.573   3.423   5.751  0.1041  0.0958 -0.1054
27520W        W43594   8.789  17.942  11.632  0.0517  0.1108 -0.0058
27521W        W43595  14.791  12.400  11.439 -0.0407  0.1798 -0.4206
27522W        W43596   0.601   3.001  13.568  0.1101  0.0466  0.1623
27523W        W43597  16.196   4.497   3.444 -0.0313  0.0292 -0.0336
27524W        W43598   6.993   3.300   3.500 -0.2820 -0.1718  0.1888
27525W        W43599  18.651  14.270   2.826 -0.0385 -0.1478  0.2739
27526W        W43600   9.661   2.463   4.280 -0.2030  0.0178 -0.1980
27527W        W43601  13.890   0.984   0.644  0.2173 -0.1614 -0.2061
27528W        W43602  16.169  15.615  14.514  0.0499 -0.0986  0.1372
27529W        W43603   2.138  15.418  10.705  0.1872  0.3228  0.0081
27530W        W43604   7.771   9.915  11.556 -0.0736 -0.0474 -0.0114
27531W        W43605  11.804  15.467  11.030 -0.0790  0.0262  0.2592
27532W        W43606   1.558  17.592   1.409 -0.2476 -0.0822 -0.4153
27533W        W43607  13.080   6.748  12.403 -0.1405 -0.2070  0.2366
27534W        W43608   0.537  14.623   4.731  0.0952  0.0900  0.3237
27535W        W43609   4.334  10.993  11.095  0.1357  0.0878 -0.1804
27536W        W43610   6.677  12.170   0.433 -0.0613  0.0784  0.0683
27537W        W43611   2.646   9.483  11.928 -0.0444 -0.1158 -0.0168
27538W        W43612   4.388  18.482  13.712  0.1379  0.4347 -0.2526
27539W        W43613   3.275  15.262   1.408  0.1317  0.1467 -0.1330
27540W        W43614  16.701  18.425   2.125 -0.3522 -0.1269  0.3680
27541W        W43615  14.625  18.021   2.427  0.0806 -0.4347  0.2219
27542W        W43616   0.977   1.720  15.041 -0.1877  0.0405  0.1739
27543W        W43617  19.027  18.309  10.490 -0.1252 -0.2073  0.0338
27544W        W43618  14.217  15.161   0.852  0.0738  0.0182  0.2102
27545W        W43619  10.405   6.602  11.108 -0.0246  0.2450 -0.0567
27546W        W43620   7.523   7.890   3.553 -0.2166  0.0304  0.0768
27547W        W43621  14.103  12.397  13.028  0.2175  0.4841 -0.2414
27548W        W43622   4.451   4.477   0.571 -0.3426 -0.1019 -0.1481
27549W        W43623  10.262   3.894   0.440  0.4535 -0.2089  0.0296
27550W        W43624   1.409  10.843  14.466  0.0864  0.3254  0.2336
27551W        W43625  19.082   6.927  13.237  0.1878  0.0789  0.0795
27552W        W43626   2.113   4.676   4.326  0.2434  0.1674 -0.3665
27553W        W43627  14.944  14.330   3.274 -0.0661  0.1092  0.1241
27554W        W43628   6.568   4.324  14.767  0.2938  0.0126  0.1316
27555W        W43629  18.406   7.356  12.861  0.0601  0.0820  0.0990
27556W        W43630   8.790  16.423  14.006 -0.0634 -0.0254  0.2810
27557W        W43631  12.876   3.763  14.750 -0.0306 -0.0602 -0.0456
27558W        W43632  16.728  16.491  12.526 -0.1988  0.0660  0.2914
27559W        W43633  12.626   3.042   1.799  0.1056  0.0289 -0.0978
27560W        W43634  15.530  13.080  11.488  0.0513  0.1885  0.0329
27561W        W43635   1.963   7.400   3.507  0.0942  0.1473 -0.1445
27562W        W43636  18.418  18.411  14.897  0.0080  0.5044  0.0772
27563W        W43637  15.124  18.880  14.518 -0.0028  0.1081  0.0376
27564W        W43638   3.600  14.897   3.349  0.2014  0.5697 -0.1092
27565W        W43639  18.751  10.864  10.719 -0.0636  0.0007 -0.1033
27566W        W43640   7.596  11.504  14.082 -0.3011 -0.0338 -0.1013
27567W        W43641  15.601   0.403   0.950  0.0858 -0.3273 -0.0457
27568W        W43642   1.873   9.531   0.751 -0.0768  0.0197 -0.0756
27569W        W43643  12.814  16.608  13.241 -0.1184 -0.0056  0.1023
27570W        W43644   5.811  11.942   0.117  0.5062  0.1680  0.0080
27571W        W43645   1.926  18.856  14.806  0.2899  0.5225  0.1162
27572W        W43646  15.934  14.623  11.933  0.3078  0.0036  0.0748
27573W        W43647   8.541  13.383  14.370  0.3136  0.2311 -0.0839
27574W        W43648   5.033   9.581  14.029 -0.1708  0.1471 -0.1938
27575W        W43649  14.454   5.896   6.136  0.2057 -0.2470  0.0163
27576W        W43650  13.983   2.356   2.913 -0.0066 -0.4511  0.4485
27577W        W43651  14.058   8.695  14.785 -0.0298 -0.1983  0.2608
27578W        W43652  15.346   3.477  14.004 -0.3290 -0.2777  0.0226
27579W        W43653  12.929  16.562   0.499 -0.0470 -0.1425  0.0930
27580W        W43654  18.978   9.226  13.101  0.0557  0.0397 -0.0090
27581W        W43655  11.914  14.056  10.138 -0.3757  0.3256  0.1837
27582W        W43656   5.287   7.918  13.099  0.3482  0.3665  0.1235
27583W        W43657  13.112   1.895   2.142 -0.0348  0.2675  0.0354
27584W        W43658   1.948  11.805  10.901  0.0292 -0.1843  0.0905
27585W        W43659   6.185   0.122  14.944  0.0126  0.2858 -0.1179
27586W        W43660  11.189   3.514   1.344 -0.1018  0.0648  0.3219
27587W        W43661   2.230  12.600   0.248 -0.0952 -0.0354 -0.1356
27588W        W43662   6.587   3.883  14.258  0.0893 -0.0492  0.1120
27589W        W43663  14.587   5.443   0.811 -0.0406  0.0977  0.1105
27590W        W43664   5.801   7.606   4.509 -0.2930  0.1066 -0.1734
27591W        W43665   0.816  17.043  14.825  0.3456  0.0298 -0.2339
27592W        W43666  11.802   3.593   1.456  0.2948  0.1804 -0.2569
27593W        W43667  14.581  10.200  11.822 -0.1086  0.0553  0.1605
27594W        W43668  13.283  17.963  12.813 -0.0496  0.1018  0.0033
27595W        W43669  17.509   6.100   4.949 -0.0189 -0.1564  0.2313
27596W        W43670   6.490  18.751   1.135 -0.2679  0.1668  0.1769
27597W        W43671  18.869  14.799   1.154 -0.4991  0.2785 -0.2424
27598W        W43672   5.971   3.236  10.979  0.2143  0.3833  0.0618
27599W        W43673  12.633   9.035   5.492  0.0080  0.2173  0.2977
27600W        W43674   8.818   9.736   4.337 -0.1468  0.0257  0.0487
27601W        W43675  10.647   7.374  13.315  0.3793  0.2631  0.0761
27602W        W43676  18.006  14.109   1.055  0.1461 -0.3240  0.1063
27603W        W43677   0.691   4.727  13.217 -0.0842 -0.3817  0.0657
27604W        W43678   2.918  18.818   2.248  0.0827  0.0423 -0.0927
27605W        W43679  12.353   9.889  11.484 -0.3854  0.0815  0.0163
27606W        W43680   0.677  12.025   3.099 -0.1579 -0.0239  0.3661
27607W        W43681   9.797   8.163  12.498 -0.0423 -0.1563  0.0744
27608W        W43682   4.333  14.557  13.649  0.0881  0.1803 -0.2819
27609W        W43683  17.876  16.602   1.693 -0.1465 -0.3162 -0.4398
27610W        W43684  15.096   7.449  14.786 -0.1647  0.1281  0.1398
27611W        W43685   9.844  17.542   5.329 -0.0890 -0.3694 -0.1331
27612W        W43686  12.241   5.504  12.194  0.1916  0.2392 -0.3102
27613W        W43687   4.385  10.925   2.600 -0.2185 -0.1700 -0.0411
27614W        W43688   1.156   4.595   3.933  0.3050  0.0860  0.2904
27615W        W43689  18.854  13.292  12.073 -0.3033 -0.1255  0.3689
27616W        W43690  13.497   0.308   1.562  0.3494  0.2315  0.0801
27617W        W43691   0.484  11.851   0.893 -0.0684  0.1580 -0.2046
27618W        W43692  14.067  19.004   2.567 -0.2847 -0.0991 -0.0478
27619W        W43693   1.789  18.439   1.488  0.2867  0.1173 -0.2081
27620W        W43694  19.227   7.175  11.649  0.2141 -0.0200 -0.2241
27621W        W43695  10.698   6.473  13.203  0.0269  0.0718 -0.0041
27622W        W43696   4.758  16.591   1.539  0.3011  0.0697 -0.0429
27623W        W43697  18.776  11.476   1.078  0.2511 -0.1936 -0.1673
27624W        W43698  15.690   6.206  14.512 -0.0355 -0.1452  0.2766
27625W        W43699  16.998  14.934   0.713 -0.2194 -0.0027  0.1180
27626W        W43700   6.078   1.637   3.605  0.0915  0.2517  0.1280
27627W        W43701   4.469   8.990  10.104 -0.0426 -0.0379  0.3255
27628W        W43702  13.772  15.094   4.255 -0.0421 -0.1701 -0.0159
27629W        W43703  18.957   7.535   0.068  0.2704  0.0344  0.1733
27630W        W43704  13.368   1.700   4.371  0.2704 -0.0665 -0.0149
27631W        W43705  18.979  17.064  13.041 -0.0846  0.2088 -0.0643
27632W        W43706  13.035   4.776  13.518 -0.0890  0.2646  0.0977
27633W        W43707   5.123  15.058   0.269  0.0358 -0.0652 -0.3461
27634W        W43708  16.548  15.962  11.249  0.0316  0.0320 -0.0350
27635W        W43709  14.186   8.154   4.852 -0.0356  0.0749 -0.2563
27636W        W43710   9.859   7.243   2.827  0.0203  0.0340 -0.0761
27637W        W43711   5.940  12.223  13.562 -0.1870 -0.1953 -0.0404
27638W        W43712   8.789  15.058  14.917  0.0109  0.1894 -0.2954
27639W        W43713  16.960   6.532  13.945  0.0951  0.4851 -0.0991
27640W        W43714   8.885  18.581   2.406 -0.1992  0.1852 -0.2765
27641W        W43715   2.473   5.943  12.611 -0.3287  0.2461 -0.2434
27642W        W43716  15.838   4.582  13.364 -0.1802 -0.2277  0.1107
27643W        W43717  13.271  18.586  12.070 -0.2773 -0.2183 -0.0831
27644W        W43718  15.117  14.160  12.522 -0.0733  0.2321 -0.0571
27645W        W43719   9.225  18.010  14.310 -0.3991 -0.5607  0.1130
27646W        W43720   3.024   5.253  11.182 -0.0907  0.0896  0.2273
27647W        W43721  10.802   4.437  12.269  0.1338  0.0094 -0.0448
27648W        W43722   5.640  15.828  12.441 -0.5346  0.3613 -0.0020
27649W        W43723   7.618   9.372  14.959  0.0139  0.0391 -0.0958
27650W        W43724   1.325  15.038  10.314 -0.4998 -0.0157  0.4461
27651W        W43725   3.122  16.282  13.437  0.0999 -0.3257  0.0984
27652W        W43726  14.554   7.918   4.543 -0.0786 -0.0211 -0.2837
27653W        W43727  13.800   9.596  11.436 -0.0683 -0.1956 -0.1034
27654W        W43728   0.149   9.752  13.780  0.0767 -0.0550 -0.1569
27655W        W43729  11.697   7.973  10.606 -0.0311 -0.0971 -0.0808
27656W        W43730  14.477   6.679  12.415 -0.1820  0.0231  0.0270
27657W        W43731   3.047   1.085  11.857 -0.0453 -0.1045  0.1433
27658W        W43732  12.207  18.034  14.997  0.1119  0.1629 -0.2237
27659W        W43733   4.252   7.875   3.470 -0.2975  0.2041 -0.0712
27660W        W43734  12.510   3.471  12.636 -0.2176 -0.2008 -0.1793
27661W        W43735  13.055  10.022  13.628  0.0534  0.0334  0.0067
27662W        W43736   2.718  16.229   0.235 -0.2866 -0.0967  0.1521
27663W        W43737   6.415   7.629  11.920 -0.0485 -0.1413  0.3044
27664W        W43738  16.098   4.807  11.472  0.3315 -0.2557  0.1265
27665W        W43739   6.582  17.231  10.479  0.2288  0.0042  0.1135
27666W        W43740   2.001  18.869  12.315 -0.1301 -0.2304  0.1179
27667W        W43741  16.691   8.503  11.274 -0.3725 -0.2710  0.1573
27668W        W43742  10.048  13.899   3.646  0.0652 -0.1426  0.1456
27669W        W43743   0.012  17.469   4.225 -0.1476  0.3432 -0.3205
27670W        W43744   2.464  17.841  13.815  0.0082  0.0216 -0.0147
27671W        W43745   1.058  11.585  10.712 -0.0762 -0.1463 -0.0480
27672W        W43746  14.855  13.041  14.809  0.0659 -0.0542 -0.0771
27673W        W43747  13.089   7.765  11.743  0.3611 -0.2354  0.0581
27674W        W43748  10.603   7.658   3.831 -0.1870  0.4539  0.2499
27675W        W43749  16.503  11.775   1.847  0.1336 -0.0033 -0.1037
27676W        W43750  10.841   0.012  11.736 -0.0394 -0.3750  0.0048
27677W        W43751   5.810   4.023  11.954 -0.0507 -0.0434 -0.0857
27678W        W43752   2.952   0.437  13.761  0.2152 -0.0359 -0.0123
27679W        W43753  18.058   8.317  14.735 -0.1857  0.1462 -0.0260
27680W        W43754   6.763  17.073  10.992  0.0602  0.3197 -0.0094
27681W        W43755   6.037  10.749   4.804  0.0204 -0.0994  0.0819
27682W        W43756   5.355  10.008   2.657 -0.2802  0.3253  0.0184
27683W        W43757  15.587   0.964  10.475 -0.2152 -0.1415  0.0607
27684W        W43758   1.665   0.881  14.994 -0.3000 -0.0280  0.0980
27685W        W43759  12.173  16.101   1.257 -0.0315  0.0478  0.0908
27686W        W43760  12.757   5.458   2.743  0.2069 -0.0827  0.0875
27687W        W43761  16.996   2.313  15.019  0.3855 -0.0641  0.0944
27688W        W43762  13.683   9.798   4.100  0.1202  0.1869 -0.0675
27689W        W43763   4.609   5.739   4.901 -0.0103  0.2821 -0.0645
27690W        W43764   7.851  17.652  11.525 -0.1024  0.0796  0.0270
27691W        W43765   4.963  11.170  14.840 -0.0224  0.0403 -0.3635
27692W        W43766  17.165  14.861  12.262 -0.0538  0.1035  0.2376
27693W        W43767   1.181  15.948  13.398 -0.2738 -0.0044  0.5873
27694W        W43768   5.855  16.316   0.412 -0.3326  0.1329  0.3370
27695W        W43769  11.831  15.342  13.887 -0.0484 -0.1577  0.0295
27696W        W43770  16.361  10.537  10.519  0.1348 -0.2975 -0.2252
27697W        W43771   7.971  13.667  13.502 -0.0809 -0.1189 -0.1349
27698W        W43772  12.207  14.085  11.498  0.2207  0.2286  0.1215
27699W        W43773  17.712  10.020  12.525  0.0629 -0.2914  0.0613
27700W        W43774  11.181   6.354  11.401 -0.1142 -0.1884 -0.0107
27701W        W43775   5.371   2.805   4.828 -0.1996 -0.0454  0.0090
27702W        W43776   1.972  17.726  13.340  0.0718 -0.1777  0.0175
27703W        W43777   6.305   4.541   2.209 -0.1167 -0.1270 -0.0170
27704W        W43778   3.561   1.723   2.842  0.2169 -0.2961  0.1899
27705W        W43779   9.786   4.949  12.719 -0.1269  0.6029  0.1105
27706W        W43780  13.126  14.636   1.028  0.0659  0.0067 -0.2207
27707W        W43781  14.025  14.762  11.574  0.0120 -0.0090  0.0940
27708W        W43782   8.339   4.590  12.720 -0.2132 -0.0311  0.1379
27709W        W43783   3.544  13.116  13.864  0.2170  0.0306  0.1186
27710W        W43784  14.700   4.857  13.428  0.0358  0.2608 -0.0584
27711W        W43785  11.119  15.356   0.599 -0.2089 -0.1483  0.0353
27712W        W43786   1.924   8.300  14.688  0.0031 -0.1239 -0.0946
27713W        W43787   7.669  18.629   3.094 -0.1624 -0.0566  0.2558
27714W        W43788  15.953  16.704   3.668  0.0775  0.0605 -0.1807
27715W        W43789  11.600   7.779   2.144  0.3760 -0.0314 -0.3452
27716W        W43790  15.908  10.512   0.969  0.1808  0.3164 -0.5355
27717W        W43791  12.959   6.964   4.077  0.2245  0.0186  0.0729
27718W        W43792  14.537   1.794   0.461  0.2224  0.0800 -0.0411
27719W        W43793  14.993   6.671   4.935  0.3849 -0.1229  0.0819
27720W        W43794   9.181   3.340   3.223  0.1037  0.1167 -0.1843
27721W        W43795   1.625   8.216   5.453 -0.4058 -0.0558  0.0702
27722W        W43796   9.580  17.404   2.719 -0.1230  0.1495 -0.4894
27723W        W43797   5.920  17.367  11.888 -0.2916 -0.0289  0.2947
27724W        W43798  19.274   2.274  12.817  0.1464 -0.3175 -0.0152
27725W        W43799   0.663   1.227   5.244  0.1284  0.4165 -0.5266
27726W        W43800   9.349  16.886   1.964 -0.2758 -0.1632  0.4293
27727W        W43801  10.642   8.288   2.819 -0.0861  0.2330  0.2467
27728W        W43802   6.716   3.944   3.463 -0.3150 -0.3306  0.1744
27729W        W43803  15.306  10.269   3.258  0.3307 -0.5077  0.0446
27730W        W43804  11.138  11.898  10.849  0.1086 -0.0441 -0.2921
27731W        W43805  17.701   4.095  11.452  0.0608  0.3831 -0.0157
27732W        W43806  11.007  13.680   5.764 -0.5000  0.0863  0.1709
27733W        W43807   1.625   6.184  12.455  0.1139 -0.1560 -0.1466
27734W        W43808   2.826   8.549   3.208 -0.3400 -0.1081  0.0372
27735W        W43809   0.215   9.570   2.398 -0.0045 -0.1626  0.5046
27736W        W43810  10.553   7.108  15.032 -0.0736  0.2684 -0.0579
27737W        W43811   8.595  17.088  11.242  0.2456 -0.0445  0.2664
27738W        W43812   8.142   0.203   1.742  0.1249 -0.0917  0.3232
27739W        W43813  19.013  12.799  11.126  0.1157  0.0466  0.0185
27740W        W43814   2.308  11.075   3.681  0.1686 -0.0070  0.0864
27741W        W43815  10.642   1.010  14.281 -0.2096  0.1501  0.1262
27742W        W43816  17.320   0.803   2.346 -0.1215  0.2027  0.0263
27743W        W43817  10.941   9.275   0.485  0.0037 -0.1382  0.2330
27744W        W43818   1.725   5.298   3.313 -0.1914 -0.0523  0.0320
27745W        W43819  15.044   0.291   1.042  0.0307  0.1942  0.2333
27746W        W43820  15.976   2.900  11.570  0.2595  0.0595 -0.1224
27747W        W43821   2.092  12.197  14.423 -0.0479  0.2741  0.1219
27748W        W43822  10.534  14.956  13.705 -0.1183  0.2099 -0.2011
27749W        W43823   5.647  11.427  10.146  0.1882 -0.1798 -0.0185
27750W        W43824   7.102   3.794  14.318  0.0240 -0.1130 -0.2668
27751W        W43825  14.304  10.893  14.441 -0.0624 -0.2480 -0.0082
27752W        W43826  16.338   1.195   3.072 -0.3410  0.0561  0.0252
27753W        W43827  16.655  17.146   2.975 -0.1260  0.0460  0.0186
27754W        W43828   3.704  12.548   9.988  0.0998  0.2310  0.0983
27755W        W43829   1.113  11.622   3.218 -0.0473 -0.0355  0.0529
27756W        W43830  17.883   7.360  12.470 -0.3790  0.1218  0.0079
27757W        W43831   3.571   8.919  13.696  0.1982  0.1167 -0.1167
27758W        W43832   3.695   4.661  12.811  0.1543  0.0329  0.1043
27759W        W43833   1.224   5.170  11.521  0.0362  0.2533 -0.0711
27760W        W43834   6.685  17.701  13.002 -0.0401  0.2334  0.2778
27761W        W43835  15.569  16.988   0.071 -0.1546 -0.0675 -0.3335
27762W        W43836  10.772   0.514  12.584  0.0526  0.1922  0.0090
27763W        W43837   6.721  19.057   4.363  0.0275  0.0036  0.2329
27764W        W43838  10.811  12.401  13.071 -0.1406  0.1273  0.2618
27765W        W43839  15.693   8.207  11.435 -0.2593 -0.0808 -0.0155
27766W        W43840   0.150  17.345   4.655  0.0748 -0.0454 -0.2310
27767W        W43841   5.700  12.051  12.359 -0.0741  0.1040 -0.0820
27768W        W43842   0.548  11.279  14.078  0.0839 -0.0178  0.1202
27769W        W43843  12.899  11.524   2.068 -0.1275 -0.0530 -0.2956
27770W        W43844  14.905  12.814  10.435  0.0352 -0.0312  0.1276
27771W        W43845   3.400   7.502   3.191  0.0593 -0.0887 -0.0376
27772W        W43846  13.286   8.596   2.424 -0.0510  0.3258  0.1480
27773W        W43847  15.506   4.464   1.897 -0.2073 -0.0122  0.3921
27774W        W43848  14.501   1.487  14.713 -0.3662 -0.2105  0.1513
27775W        W43849   2.531   4.398   4.145  0.1113  0.1286  0.0560
27776W        W43850   8.048   8.707   0.396 -0.1403  0.0397  0.4549
27777W        W43851  11.270   1.407   1.468 -0.1625 -0.2978 -0.2052
27778W        W43852  11.984   5.564  13.289 -0.1168  0.0321  0.1942
27779W        W43853  16.890  16.576   1.431 -0.1381  0.0041 -0.3265
27780W        W43854   0.039   3.232   2.990  0.2437 -0.1630 -0.1888
27781W        W43855  16.596   4.509   2.433  0.2526 -0.1179  0.1291
27782W        W43856  10.633   1.085   2.873 -0.2537  0.0116  0.0165
27783W        W43857  12.221  13.507  14.143  0.0763 -0.2843 -0.3647
27784W        W43858  19.274   3.935   3.741  0.3552 -0.1703  0.0697
27785W        W43859   4.196   1.485   4.258  0.1210  0.1590 -0.1438
27786W        W43860   0.834  11.346   3.637 -0.3412  0.1607  0.1195
27787W        W43861  13.518   9.687   3.121  0.1442  0.0245  0.0941
27788W        W43862   6.291  11.736  11.760  0.2350  0.0434 -0.1569
27789W        W43863  18.644   4.033  13.839 -0.0467 -0.2179  0.0777
27790W        W43864   1.002  19.089   2.421 -0.0794  0.2066  0.0339
27791W        W43865  14.581  16.885  12.548  0.0990 -0.1211 -0.0728
27792W        W43866   4.504  13.133  11.316  0.1860 -0.0422 -0.2781
27793W        W43867   8.606   1.607   4.558 -0.2176  0.1718  0.0757
27794W        W43868   5.306   8.493   2.697 -0.3577  0.0420 -0.0953
27795W        W43869   5.080   8.162   5.078  0.0477  0.0317  0.1168
27796W        W43870   4.867  12.914   4.629  0.1313  0.0548  0.0285
27797W        W43871  12.649   5.998   5.095 -0.1058 -0.0823  0.0229
27798W        W43872  11.044  14.667  12.991 -0.2169  0.4439 -0.4971
27799W        W43873   5.548   7.636  12.272  0.0808  0.0978 -0.1636
27800W        W43874   9.842   6.532   0.171 -0.4156 -0.1767  0.2364
27801W        W43875   5.529  14.434  12.531 -0.2093  0.2255  0.5626
27802W        W43876   2.603   0.655   4.907 -0.1795  0.1856 -0.0876
27803W        W43877   3.095   8.525   0.069  0.1534 -0.2760 -0.0917
27804W        W43878   2.960  18.160   3.502  0.0521  0.2687 -0.1921
27805W        W43879  13.466  19.013  12.247 -0.0822  0.0054  0.0763
27806W        W43880   9.869  12.977   1.497  0.1792 -0.0238 -0.0343
27807W        W43881   5.736   2.364   1.116 -0.1002  0.0954 -0.2007
27808W        W43882   1.684   8.424  10.025 -0.0018 -0.2399  0.4885
27809W        W43883   7.163   7.234   3.230 -0.1092  0.0905  0.2913
27810W        W43884  10.304   5.296   4.713 -0.1648  0.0396  0.4789
27811W        W43885  10.952   3.659   4.336 -0.3170 -0.1720  0.0007
27812W        W43886  19.110  18.480   3.359  0.1460 -0.0318 -0.1593
27813W        W43887   0.718  17.560  11.626 -0.0668  0.1611 -0.0828
27814W        W43888  14.519   3.352  14.264  0.0901 -0.1294 -0.0635
27815W        W43889  15.092   9.925  12.393 -0.0894 -0.1920 -0.1700
27816W        W43890  18.676   1.816   1.907 -0.0725 -0.2970 -0.1209
27817W        W43891   4.497  14.108  12.329 -0.3962  0.1808  0.2318
27818W        W43892  13.528  18.509  13.416  0.6395  0.2734  0.0428
27819W        W43893  11.804   3.404  12.021  0.2491 -0.0076 -0.1314
27820W        W43894   7.195  16.264   3.430 -0.0105 -0.1830 -0.0491
27821W        W43895   3.785  19.254  11.199  0.4435 -0.3149 -0.2737
27822W        W43896  13.891  18.060  14.553 -0.3063  0.1479  0.0550
27823W        W43897  17.138   3.037   1.709 -0.0862 -0.1884  0.0703
27824W        W43898   5.981  15.627  13.181 -0.1936  0.1978 -0.4158
27825W        W43899  15.772  15.474   1.283  0.0882  0.4028  0.0311
27826W        W43900   7.116   2.231   1.691 -0.0475  0.1961  0.0533
27827W        W43901  19.183   4.755  13.614 -0.0060 -0.0233 -0.0349
27828W        W43902   1.690  10.050   2.199  0.0627  0.0779  0.2586
27829W        W43903  15.360   6.463   1.117  0.1058 -0.1797  0.3587
27830W        W43904   9.343   9.016   3.677  0.0233  0.1503  0.0083
27831W        W43905  16.200   2.207   1.825  0.0165  0.2218 -0.0615
27832W        W43906  11.297   6.712   4.769 -0.0297 -0.1247  0.1267
27833W        W43907   6.230   2.139  11.443 -0.0437 -0.1362 -0.1270
27834W        W43908   9.856  11.256  13.619  0.3223  0.0263  0.0828
27835W        W43909   1.467  15.967  13.954  0.4907 -0.0333  0.1399
27836W        W43910  15.295   6.414  14.685  0.0047  0.0635  0.3343
27837W        W43911  13.527  17.662  10.615  0.1366  0.1033  0.2406
27838W        W43912   2.368  14.096  11.306 -0.0706  0.1937 -0.1346
27839W        W43913   2.413   6.634  14.918 -0.0017 -0.1094  0.0522
27840W        W43914   9.063  19.243  12.825  0.1063 -0.1004 -0.0572
27841W        W43915  12.269  17.061  14.479 -0.0352  0.0400  0.0782
27842W        W43916  11.136   4.915  13.522 -0.1449  0.2191  0.0041
27843W        W43917   0.924  11.489  11.201 -0.0096  0.0441  0.0479
27844W        W43918  15.058  17.754   4.945  0.3449  0.0280  0.0031
27845W        W43919   2.660  16.290  14.786 -0.1015 -0.0191 -0.0423
27846W        W43920  17.130  17.636   3.607 -0.3320  0.0248 -0.1382
27847W        W43921  11.261  13.822  13.471 -0.1549  0.0894 -0.0258
27848W        W43922  16.157   5.572  12.992 -0.2812  0.1499 -0.1694
27849W        W43923  10.733   1.026   3.914  0.0904 -0.3297 -0.0480
27850W        W43924  12.076  13.359   2.674  0.0514  0.3243  0.0438
27851W        W43925  18.679   7.862  14.217  0.2058 -0.1178 -0.2236
27852W        W43926  18.547   3.234  14.993 -0.2421 -0.0471  0.1487
27853W        W43927   8.081  15.181  13.855  0.0056 -0.0659 -0.1408
27854W        W43928   1.493  17.046   1.888  0.2327  0.2571  0.2822
27855W        W43929   6.520  13.330   4.141 -0.1024  0.0794  0.0547
27856W        W43930  18.112   1.351   2.824 -0.1746 -0.3002  0.2207
27857W        W43931   1.994   7.600  13.552  0.0929  0.2335 -0.0858
27858W        W43932   7.263   8.427  14.048 -0.1408 -0.0700 -0.2545
27859W        W43933  16.540  17.614   0.376  0.0057 -0.0275 -0.2213
27860W        W43934  15.418   7.311   0.054  0.2968 -0.0534 -0.0251
27861W        W43935   1.609  13.517   1.802  0.1627 -0.0206 -0.0192
27862W        W43936   1.084   5.590   2.152 -0.0479 -0.1126  0.0036
27863W        W43937  16.332  11.708  14.364 -0.3011  0.2961  0.1756
27864W        W43938   2.807  11.148  14.123 -0.0116 -0.1839  0.0662
27865W        W43939   0.184   3.636  11.854 -0.1500  0.4373 -0.1255
27866W        W43940  16.350   2.113   2.459  0.1101 -0.0180 -0.0705
27867W        W43941  11.775   8.618   4.930  0.0085 -0.2538 -0.4221
27868W        W43942   0.439   4.535   0.502  0.1422 -0.1142  0.0499
27869W        W43943  17.092   8.314  10.641 -0.0515 -0.2548  0.0267
27870W        W43944   7.945  11.742  10.929 -0.2112  0.0759 -0.1877
27871W        W43945  18.331   2.405  14.873  0.1227  0.1126  0.0342
27872W        W43946  12.865   9.800  12.036  0.1340 -0.4161  0.2259
27873W        W43947  16.791   3.362   0.549  0.0421  0.1112 -0.4132
27874W        W43948   3.644  11.648   2.201  0.0412 -0.0794 -0.2316
27875W        W43949   1.909   5.158   4.268  0.3111  0.0650 -0.1776
27876W        W43950   7.303   9.099   4.640  0.2080 -0.2026  0.4082
27877W        W43951   1.930  11.244   5.110  0.2510  0.0843 -0.2457
27878W        W43952   6.999   7.293   1.505  0.1262  0.1070  0.2408
27879W        W43953  11.522   3.217  14.974 -0.0848 -0.0030  0.0260
27880W        W43954  15.985  10.560  13.502 -0.0400 -0.0453  0.0592
27881W        W43955  12.928   5.406   1.737 -0.3497  0.2826  0.0019
27882W        W43956   5.066   3.547   5.137  0.0713 -0.0860 -0.3119
27883W        W43957  15.027  17.361  11.983  0.0019  0.2830  0.4732
27884W        W43958   8.109  11.167  13.568  0.0706 -0.0242 -0.4107
27885W        W43959   7.276   1.714   1.832  0.3039 -0.0915 -0.4483
27886W        W43960  19.303   7.982   0.744 -0.1814 -0.1296  0.0395
27887W        W43961   4.690  19.195   4.472 -0.1827  0.0529  0.0193
27888W        W43962  18.084  12.099  14.596 -0.4457  0.0653  0.2817
27889W        W43963   6.517   9.191   1.367 -0.0517 -0.2613  0.2340
27890W        W43964  14.584  13.992   3.389  0.1567 -0.2328 -0.4573
27891W        W43965   9.997   2.048   4.818  0.1427  0.0321  0.0146
27892W        W43966  17.357  16.932   4.093 -0.2930  0.0939 -0.1064
27893W        W43967  10.422   3.396   2.654 -0.0027 -0.0408  0.0624
27894W        W43968   9.036  15.891  14.903  0.2033 -0.3342 -0.1525
27895W        W43969   0.278   5.750   4.215  0.0205 -0.1657  0.2546
27896W        W43970   0.298  13.229   2.402  0.1188  0.0299  0.0158
27897W        W43971  19.261   8.297   3.184 -0.3174  0.0383 -0.0541
27898W        W43972  17.735  16.540  11.734  0.3167  0.2224  0.0349
27899W        W43973   2.155  15.746   1.917 -0.2174 -0.0223  0.0619
27900W        W43974  18.156   1.820  10.279  0.1101  0.2436 -0.0487
27901W        W43975   9.766  16.401  12.746 -0.4350 -0.4020 -0.0707
27902W        W43976   9.573   1.980   0.390  0.0003 -0.2459  0.3453
27903W        W43977  10.401   5.182   0.782  0.0852  0.3754 -0.2660
27904W        W43978  18.588  17.430   5.271  0.1694 -0.0648  0.0325
27905W        W43979  17.717  16.267  11.058  0.2337 -0.1427 -0.0217
27906W        W43980   0.311   6.186   4.877  0.0037  0.2394 -0.0256
27907W        W43981   2.534  10.603   4.197 -0.1300  0.1395  0.2674
27908W        W43982   0.583   0.692  11.901  0.1177  0.6493  0.3422
27909W        W43983   7.781   7.453  12.798 -0.0563  0.2754  0.1605
27910W        W43984  15.299  15.411  14.221  0.2954  0.0232  0.0542
27911W        W43985   9.086   7.113  13.068  0.1177  0.3712 -0.0470
27912W        W43986   5.805  12.792  10.902  0.5026  0.1092  0.0549
27913W        W43987  16.267   8.155   1.697 -0.1800  0.2414 -0.3436
27914W        W43988   2.171  13.727   1.106 -0.0147 -0.1775 -0.1488
27915W        W43989  16.464  10.162   2.289  0.0614  0.0347 -0.3155
27916W        W43990   0.248  13.530  12.812  0.0112  0.3720  0.1771
27917W        W43991   0.027  16.898  14.394 -0.1809 -0.0719 -0.1917
27918W        W43992  13.395   8.182   4.286 -0.1651  0.0859  0.0159
27919W        W43993  13.639   9.962   4.572  0.2200 -0.0342 -0.0242
27920W        W43994  18.114  18.696   3.860  0.0898  0.1861 -0.0131
27921W        W43995  17.767   3.916   4.633  0.0665 -0.0519  0.0411
27922W        W43996  17.604   4.050  12.958 -0.1931 -0.3539 -0.2574
27923W        W43997  17.868  18.452  10.313  0.2141  0.1161 -0.0916
27924W        W43998  11.622   6.782   1.358  0.2509  0.1507  0.0651
27925W        W43999   7.083   8.348  11.966 -0.1458 -0.1393 -0.0186
27926W        W44000  17.706  12.471   3.388 -0.0406 -0.2095  0.3402
27927W        W44001   9.159  18.225   0.546 -0.0530  0.2855 -0.2174
27928W        W44002   8.293   8.940   2.160 -0.1134 -0.0482 -0.2015
27929W        W44003   4.736   9.162  10.639 -0.0903  0.3189 -0.1750
27930W        W44004   1.506  13.424   3.123  0.1541 -0.0259 -0.1452
27931W        W44005   9.023  16.850   2.436  0.0214  0.0698 -0.1797
27932W        W44006   9.455  10.274   2.993  0.0179 -0.3267  0.2137
27933W        W44007  17.389  18.695  12.973 -0.1223 -0.0398 -0.3712
27934W        W44008  16.167   6.009  14.885 -0.1065 -0.0566 -0.2745
27935W        W44009   7.409   0.002   0.493  0.2481 -0.5667 -0.1872
27936W        W44010   4.962   3.826   3.314 -0.1313  0.1699 -0.1000
27937W        W44011   0.011  12.961   9.596 -0.2081 -0.0385  0.0065
27938W        W44012   4.990  16.884  11.611 -0.0096 -0.2021  0.1816
27939W        W44013  11.647  10.934  12.215 -0.2244  0.1152 -0.2594
27940W        W44014  10.949  13.767  11.673 -0.1571  0.1722  0.0575
27941W        W44015   3.063   8.709   5.398 -0.0220  0.0084 -0.1272
27942W        W44016   4.254   0.514   3.248  0.3367 -0.0559 -0.1119
27943W        W44017  15.631   3.778  10.719  0.0057 -0.1418 -0.2389
27944W        W44018   3.808   0.412   5.717 -0.3169  0.2141 -0.1123
27945W        W44019   5.015   4.172   2.193  0.0239 -0.0767  0.2046
27946W        W44020   9.211   8.932   4.586 -0.1686 -0.2526  0.2747
27947W        W44021   6.998   6.439  13.765 -0.0089  0.1539  0.1348
27948W        W44022   0.744  13.156  11.154 -0.2031  0.2992 -0.0669
27949W        W44023   2.896   3.154   2.127  0.2991 -0.4263  0.1415
27950W        W44024   0.039  10.974  14.947 -0.0080  0.5697 -0.2566
27951W        W44025   2.270   3.398  14.388 -0.2313  0.1778  0.0442
27952W        W44026   6.726   0.269   2.574  0.1696  0.1996  0.2342
27953W        W44027   8.747  12.050   1.212  0.3985 -0.2774 -0.0320
27954W        W44028  16.173   4.466   3.902  0.1053  0.4114  0.1699
27955W        W44029  10.877   4.191   3.038 -0.0083 -0.0880  0.0418
27956W        W44030  17.976   4.828   0.921  0.2691 -0.3215  0.0356
27957W        W44031  10.934  16.383  10.868 -0.0539  0.2742 -0.0774
27958W        W44032  15.664   6.439  13.086 -0.2574 -0.2050  0.0028
27959W        W44033   6.769  12.875  12.958 -0.0181  0.2837 -0.0252
27960W        W44034   1.406  12.806   3.768  0.0034  0.1892  0.0035
27961W        W44035   6.808   7.837   0.959 -0.1406 -0.1197  0.0086
27962W        W44036  14.099  11.418   0.177  0.0439 -0.3195 -0.0301
27963W        W44037  12.844  12.730  10.689  0.3734 -0.0310 -0.1556
27964W        W44038   8.740  18.846  14.500  0.2137 -0.0557 -0.1542
27965W        W44039   4.344  15.928  11.075 -0.0519 -0.1753 -0.2180
27966W        W44040  13.300  15.905   0.063 -0.2587 -0.1974  0.2155
27967W        W44041  10.763  17.569   9.732 -0.1589 -0.2879  0.1775
27968W        W44042   3.409   0.889  13.795 -0.2923 -0.1581 -0.0054
27969W        W44043  14.058   9.123   2.396 -0.0601  0.0087  0.1444
27970W        W44044  16.465   7.723  11.583 -0.0991 -0.3292 -0.0488
27971W        W44045   7.106  11.556   1.217  0.2174 -0.1725  0.1256
27972W        W44046   5.933  16.884   2.013 -0.1094 -0.0880  0.2521
27973W        W44047   9.820   0.436   4.670 -0.0738 -0.0151  0.1086
27974W        W44048   8.395   2.120   4.470 -0.1106 -0.1855 -0.1320
27975W        W44049   8.754  13.586  12.725  0.0676  0.0121  0.1976
27976W        W44050   4.791   9.594   4.051 -0.1789 -0.3791  0.2848
27977W        W44051  16.255   4.929   2.292 -0.0362 -0.0436 -0.0054
27978W        W44052  10.352  11.905  11.643  0.1084 -0.1994 -0.2109
27979W        W44053  17.105   4.495   0.561  0.1417  0.0524 -0.1996
27980W        W44054  14.799  18.681  13.281  0.3589  0.0462 -0.1086
27981W        W44055   2.500   8.909   1.812  0.0704 -0.1064  0.1985
27982W        W44056  15.941   8.456   3.137  0.1750  0.1709  0.0477
27983W        W44057  15.831  19.254  13.825 -0.1366  0.0172  0.1871
27984W        W44058  15.771  10.090   4.202 -0.2401 -0.4464 -0.3618
27985W        W44059   6.112   9.148  10.752 -0.0052 -0.0894  0.0460
27986W        W44060   2.932  13.356  10.455  0.1588  0.1127  0.1766
27987W        W44061  17.649  10.441  11.495 -0.3174 -0.1252  0.0112
27988W        W44062   9.985  16.581  13.495 -0.1705 -0.1473  0.0602
27989W        W44063   2.486  14.684   5.209  0.2281  0.3432 -0.3861
27990W        W44064   5.120  15.054  14.106 -0.0735  0.0788  0.0202
27991W        W44065  15.497  11.712   4.234 -0.0514 -0.2973 -0.1201
27992W        W44066  11.286  18.665   2.755 -0.1250  0.1190 -0.0167
27993W        W44067   6.907  10.531   4.728  0.1593 -0.0905  0.1658
27994W        W44068   5.105  14.844  11.810  0.0226 -0.1999 -0.1185
27995W        W44069   9.265  12.658  12.419 -0.0174  0.0413 -0.0348
27996W        W44070  17.772   1.580  13.014 -0.3930 -0.1911 -0.0836
27997W        W44071   5.937  18.061   2.991 -0.3387  0.2038 -0.2366
27998W        W44072   4.430   7.846   4.670 -0.1453 -0.1190  0.1301
27999W        W44073   9.490  16.343   0.937 -0.1160  0.0466  0.1102
28000W        W44074  15.073   9.428   2.768  0.1578 -0.0237 -0.4687
28001W        W44075   1.931   8.990   1.479  0.3279 -0.2605 -0.0514
28002W        W44076  19.062  10.777  11.806  0.2964 -0.1970  0.0225
28003W        W44077   3.229  18.282   2.239 -0.3145 -0.5750 -0.0080
28004W        W44078  10.616   2.363  12.076 -0.3556  0.2919  0.1912
28005W        W44079   2.904   2.022   1.627 -0.1740  0.3457  0.0542
28006W        W44080   8.162   2.223   0.680  0.4010  0.1642  0.0118
28007W        W44081  18.640   8.609   0.877  0.0742  0.0082 -0.0791
28008W        W44082   5.078   4.226   4.688 -0.2872 -0.0971  0.4261
28009W        W44083   5.958  14.028  13.475 -0.0596  0.4931  0.0679
28010W        W44084  16.127  11.075   0.016  0.3477  0.0785 -0.0842
28011W        W44085   1.788  15.152  12.744 -0.3274  0.1991 -0.0345
28012W        W44086   8.359   8.693  11.756 -0.2008  0.3318  0.0690
28013W        W44087   9.141  11.303   4.422 -0.2891 -0.4131 -0.0585
28014W        W44088   7.964  18.565   5.314 -0.2026 -0.2575 -0.3550
28015W        W44089   0.716   3.564  13.764  0.0902 -0.0342 -0.0470
28016W        W44090   0.538  15.995   3.599  0.0358  0.0451 -0.0875
28017W        W44091  19.132   9.892   2.496 -0.0503 -0.0803 -0.1021
28018W        W44092  16.077  16.168   0.159  0.1391  0.1566 -0.3512
28019W        W44093  15.955  12.881  11.718  0.1396  0.0378 -0.0992
28020W        W44094  14.348   3.508  12.574 -0.0269 -0.0947  0.3102
28021W        W44095  14.206   8.988  13.066  0.2492 -0.3896  0.3009
28022W        W44096  10.657  19.161   3.686  0.2607 -0.2353  0.0817
28023W        W44097  17.156  11.780   3.089  0.3630  0.2475  0.1786
28024W        W44098  10.469   5.574  13.512  0.0520 -0.1037 -0.0678
28025W        W44099   9.537  11.186  14.999  0.0808 -0.0370  0.2747
28026W        W44100   8.883  13.497  12.166 -0.2473 -0.4323 -0.0946
28027W        W44101  10.353   2.893   2.504 -0.1679 -0.0819  0.1169
28028W        W44102  13.410   7.236  10.904  0.1651 -0.0690 -0.1896
28029W        W44103  14.942  17.101  10.608 -0.2511 -0.3376  0.6201
28030W        W44104   7.615  18.811  12.336  0.2627  0.1255 -0.0723
28031W        W44105  19.034   8.073   1.993 -0.3310 -0.2061  0.1985
28032W        W44106  14.557   0.463   0.208 -0.0889  0.3815 -0.0104
28033W        W44107  11.921   9.575  12.692 -0.0616 -0.2495 -0.0619
28034W        W44108  17.883   0.993   3.912  0.0749  0.0950 -0.0768
28035W        W44109  19.056   8.414  13.560  0.0203  0.0141 -0.1393
28036W        W44110  11.008   0.277   4.994  0.1587  0.1560 -0.0814
28037W        W44111   2.244   7.208  13.188 -0.1510  0.3337  0.2300
28038W        W44112   8.832   2.935   0.504 -0.1718  0.0557  0.1778
28039W        W44113  15.603  11.105   5.012  0.2136 -0.0605 -0.0252
28040W        W44114  11.320  10.196   2.229  0.1573 -0.0864  0.1587
28041W        W44115   6.452   1.140  13.099  0.0914  0.4209  0.1946
28042W        W44116   1.329   6.480  10.575  0.0582  0.3785  0.2735
28043W        W44117   3.367   9.590  11.411  0.2608 -0.2166  0.1562
28044W        W44118   8.666  19.087   3.684 -0.2676  0.1960  0.1171
28045W        W44119   3.754  15.237   5.335 -0.1431 -0.3130  0.4027
28046W        W44120  14.475  11.199   1.350 -0.0328 -0.2026  0.2551
28047W        W44121  14.903   9.134   2.353 -0.2569 -0.2343 -0.1123
28048W        W44122   8.368   7.313  11.964  0.3323  0.0431 -0.2021
28049W        W44123  14.342   2.596  12.449 -0.1024 -0.1379  0.0290
28050W        W44124  13.770   5.745   5.177 -0.0040 -0.0654  0.2017
28051W        W44125   4.139   7.970  13.508 -0.4649  0.3465  0.0434
28052W        W44126   6.355   1.786  12.173 -0.2128 -0.1493 -0.0432
28053W        W44127   3.028   8.301  12.757  0.2039  0.3560  0.0826
28054W        W44128  14.042  14.218  12.381  0.0665  0.3192  0.1919
28055W        W44129   6.375   3.571  12.884 -0.1929 -0.1839  0.0767
28056W        W44130  13.816   0.003   2.219  0.0973 -0.1471 -0.2788
28057W        W44131   7.068  11.422   3.798 -0.2248 -0.0268 -0.1378
28058W        W44132  13.063  16.057   4.392 -0.2563  0.2917 -0.1003
28059W        W44133   7.317   0.576  14.010  0.0694 -0.1679  0.1725
28060W        W44134  14.733   9.806   1.277 -0.2177  0.2848  0.0264
28061W        W44135  16.443  10.674   4.361  0.0659  0.0359 -0.2208
28062W        W44136  13.790   0.832  10.546  0.1404 -0.0203  0.1472
28063W        W44137  17.060  17.345  11.450  0.2790 -0.0616  0.0041
28064W        W44138  11.078  16.313   2.747 -0.1001 -0.0026 -0.0913
28065W        W44139  17.537  18.294   4.723  0.0541 -0.1398 -0.0760
28066W        W44140   0.844   1.149  14.386 -0.1946 -0.0623  0.2794
28067W        W44141   1.971  13.880  11.462  0.0885 -0.0307  0.2321
28068W        W44142   7.562  19.157   2.744 -0.2853 -0.2399 -0.0309
28069W        W44143  12.439  11.201   2.765  0.0306 -0.2534 -0.0703
28070W        W44144  13.485   6.228   1.955  0.0834 -0.0750  0.0092
28071W        W44145  13.192   2.537  10.834 -0.0109  0.0296  0.0009
28072W        W44146  18.804   8.892   4.458 -0.1003 -0.2692 -0.0369
28073W        W44147  15.569  14.947   3.151 -0.0749 -0.3643  0.0833
28074W        W44148   1.030   0.321  13.467 -0.0339 -0.1257  0.1512
28075W        W44149  10.100   0.476  14.312  0.0179 -0.2250  0.1180
28076W        W44150   3.315   5.059   3.385  0.0084  0.0126 -0.0304
28077W        W44151  18.771  13.300  14.886 -0.0488  0.3287 -0.2588
28078W        W44152   9.517  19.182  12.667  0.0745 -0.1446 -0.0286
28079W        W44153  10.656   7.756  12.982  0.0334  0.0242 -0.0362
28080W        W44154  15.128   3.079  11.380 -0.0887  0.5695 -0.4793
28081W        W44155  19.095   8.728  13.122  0.0555  0.1079 -0.1015
28082W        W44156  14.123  15.641   2.661 -0.0585  0.0519 -0.4617
28083W        W44157   6.493   0.793  12.761 -0.0299  0.0282  0.0002
28084W        W44158  14.170  12.961  13.149 -0.1200 -0.1227  0.1924
28085W        W44159  17.203  18.069   4.251  0.2722  0.0220 -0.0070
28086W        W44160  16.873   4.560  14.190 -0.0626  0.2251 -0.1734
28087W        W44161  11.291  15.903   1.091 -0.3271  0.0970 -0.2624
28088W        W44162  15.979   1.329   9.719  0.0878  0.0017 -0.5687
28089W        W44163   0.676  10.800  10.396 -0.0254  0.1169  0.3624
28090W        W44164   0.316  12.760  13.898  0.0588 -0.2130  0.3538
28091W        W44165  18.382  17.002   3.102 -0.2226 -0.2907  0.1601
28092W        W44166   8.404   2.957  11.988 -0.3412 -0.0677  0.0228
28093W        W44167   6.045   4.227   5.620  0.0006  0.6222 -0.2596
28094W        W44168  15.387  16.103  13.478  0.1461  0.3103 -0.0187
28095W        W44169  16.862   7.496   1.197  0.0196  0.2628  0.1514
28096W        W44170   5.395   9.825   3.424 -0.1496 -0.1330 -0.0430
28097W        W44171   0.521  10.652  11.962  0.1783 -0.0507  0.0864
28098W        W44172   5.492   0.108  10.720 -0.1366 -0.2086 -0.3307
28099W        W44173   5.885  13.775  11.922  0.0093  0.1929 -0.2156
28100W        W44174  18.452  13.240  12.574 -0.2504 -0.0681 -0.4323
28101W        W44175  19.226   3.096   0.231  0.0188  0.0659  0.0404
28102W        W44176  12.206   6.948  11.737  0.2112  0.2167  0.3092
28103W        W44177  12.435   0.968   0.176 -0.1796  0.0666 -0.0378
28104W        W44178   5.142   2.509   2.877  0.1260  0.0985  0.0082
28105W        W44179   8.897  15.008   0.840  0.0866  0.1418  0.2557
28106W        W44180  12.303  18.193  10.617 -0.2138 -0.0835  0.4396
28107W        W44181   0.807  14.540   2.774 -0.3607 -0.1007  0.1192
28108W        W44182  15.724  17.172   3.264  0.2443 -0.1390  0.2021
28109W        W44183  19.133  17.145   1.835 -0.0688 -0.3759  0.3294
28110W        W44184  14.887   6.591   1.789  0.0870 -0.2192  0.0822
28111W        W44185   3.514   8.708   5.114  0.2381  0.1021  0.2093
28112W        W44186  11.164  17.376   2.706  0.1169  0.1560 -0.2281
28113W        W44187  18.012   3.771  14.876  0.1230  0.0512  0.1722
28114W        W44188  15.071   3.653  13.565 -0.2915 -0.0976 -0.0775
28115W        W44189   0.774   8.030  13.683 -0.0763  0.0913 -0.1375
28116W        W44190   2.605  14.571   1.239  0.1434  0.0304  0.0266
28117W        W44191  14.905   0.197  13.454  0.3156 -0.3368  0.1044
28118W        W44192  14.052   4.545   0.864  0.3081 -0.2816  0.0260
28119W        W44193   2.115   4.131  12.190  0.1449  0.2899  0.0946
28120W        W44194  13.843   3.803   4.457 -0.0293 -0.0804 -0.2359
28121W        W44195   7.075  19.118  13.305  0.3032  0.2622  0.1405
28122W        W44196  15.714   9.853  11.213 -0.1295 -0.0072 -0.0983
28123W        W44197   8.830   1.564  14.411 -0.0206 -0.1927 -0.2277
28124W        W44198   7.629  11.384   3.833  0.0025  0.0918 -0.1896
28125W        W44199  18.827  16.951   3.920 -0.1560  0.0152  0.1443
28126W        W44200  11.219  14.827  13.625  0.0932 -0.1081 -0.0485
28127W        W44201  15.671   5.963  11.709 -0.0733  0.1707  0.0434
28128W        W44202  16.272  13.024   1.072  0.1186 -0.1943  0.3471
28129W        W44203   4.092  10.424   3.456 -0.0022 -0.0050 -0.0201
28130W        W44204  16.459  17.037  11.304 -0.0604  0.3360 -0.1458
28131W        W44205  10.597  14.588   4.225 -0.4249 -0.2926  0.0180
28132W        W44206  18.644   8.381  11.176 -0.0612 -0.2656  0.2243
28133W        W44207   3.313  18.973   4.593 -0.2388  0.0177 -0.3422
28134W        W44208   2.917   3.811   5.108  0.1422 -0.0089 -0.4328
28135W        W44209  16.141   3.439  11.629  0.2696 -0.1106  0.1864
28136W        W44210   2.397   0.129   9.622  0.1898  0.3217  0.1427
28137W        W44211  16.367   1.366   4.044  0.0264 -0.2635  0.1751
28138W        W44212   6.575   8.610   4.971 -0.1810  0.0736 -0.0107
28139W        W44213   3.650  10.218   2.139 -0.0771  0.1728 -0.2980
28140W        W44214  19.282  18.608  10.118  0.1166  0.1723  0.0405
28141W        W44215   1.811   8.092   4.943 -0.0898 -0.2063 -0.0242
28142W        W44216  13.087   2.393   2.757  0.1652 -0.2664 -0.2437
28143W        W44217   5.047   2.553   0.711 -0.3553  0.2755 -0.3433
28144W        W44218   0.503  14.618  10.351  0.3507  0.0617  0.2830
28145W        W44219   1.029   5.146   1.089  0.0682  0.2031 -0.1650
28146W        W44220   7.317  10.167  14.364 -0.3345 -0.4507  0.5605
28147W        W44221   3.210   0.406   3.232 -0.0753 -0.3143  0.1722
28148W        W44222   7.746  18.589   4.227 -0.0081 -0.2422 -0.1293
28149W        W44223  14.836   7.550   4.742 -0.0782 -0.0015 -0.1110
28150W        W44224  10.120   3.858   2.027  0.0533 -0.5046  0.0532
28151W        W44225  12.156  11.951   4.066 -0.1083 -0.1354  0.1994
28152W        W44226  18.738  15.070  12.068  0.1790 -0.1138  0.1043
28153W        W44227  18.869   1.442   9.369  0.0375 -0.2674 -0.1753
28154W        W44228   3.716   7.412   0.704  0.3717 -0.0624 -0.1614
28155W        W44229   1.170   2.755  11.479  0.1600  0.0336 -0.0519
28156W        W44230  12.794   1.465  14.407 -0.1763 -0.0646 -0.1331
28157W        W44231   2.746   8.829   2.735  0.1629  0.1740 -0.1212
28158W        W44232   1.199   3.238   4.113  0.1872  0.0027  0.0730
28159W        W44233   9.290   2.818  10.311  0.0318  0.2181 -0.1770
28160W        W44234   1.131  15.053  13.544 -0.0513  0.0044  0.0697
28161W        W44235   9.489  15.599   4.730  0.0021 -0.0678 -0.0870
28162W        W44236  16.397   9.703  14.780 -0.0593  0.0934 -0.3622
28163W        W44237   8.097   9.719  10.657 -0.0887  0.1843 -0.0977
28164W        W44238  17.747  13.758  10.750 -0.1188 -0.0533  0.3137
28165W        W44239   4.326   3.114  13.052 -0.0406  0.0504 -0.2207
28166W        W44240  12.670   7.609  10.636  0.0177 -0.0447  0.0033
28167W        W44241  10.612  17.968   5.271  0.0539 -0.1766  0.2276
28168W        W44242   7.850  10.346   0.989  0.0101 -0.0059  0.1908
28169W        W44243  11.026   6.384   0.612  0.0325  0.0083  0.1639
28170W        W44244  11.976  15.297  12.434 -0.2564  0.0849 -0.0524
28171W        W44245  12.150  11.476   3.881 -0.0613  0.0666 -0.2056
28172W        W44246  13.684   0.077  14.211  0.1887 -0.0671 -0.0564
28173W        W44247   7.257  14.577   2.204 -0.0837 -0.3361  0.1042
28174W        W44248  12.294   7.914  11.949  0.0809 -0.1660 -0.4842
28175W        W44249  12.163   0.878   3.280 -0.3584 -0.0555 -0.1123
28176W        W44250   7.924   4.959   2.565 -0.2209  0.2694  0.0467
28177W        W44251   4.318   1.236   5.756  0.2566 -0.1928  0.1022
28178W        W44252  13.387   2.302  13.669  0.1647  0.1882  0.3260
28179W        W44253   5.345  19.151   1.013 -0.2780 -0.0657 -0.0650
28180W        W44254  15.029   4.431   1.199  0.3664 -0.0717  0.1487
28181W        W44255   6.048   4.554  11.110 -0.2622  0.2280 -0.0836
28182W        W44256  17.184  13.617   1.123  0.0576  0.0426  0.0197
28183W        W44257   6.463  12.886  10.228 -0.0164 -0.0806  0.0931
28184W        W44258   0.091   9.639  11.013 -0.1171  0.1303 -0.1600
28185W        W44259  13.490   5.120  12.224 -0.0423  0.0228 -0.0622
28186W        W44260   0.168   3.178   3.778  0.0582  0.1039 -0.2713
28187W        W44261   4.574   4.812  15.047 -0.2371  0.1663  0.7842
28188W        W44262  15.623   5.909  11.015  0.1867  0.3731 -0.2490
28189W        W44263  11.706   9.451  12.232  0.1967 -0.0629 -0.0005
28190W        W44264   5.838  13.629   0.885 -0.1159 -0.3202  0.1089
28191W        W44265   9.313   5.031   5.691 -0.2750  0.2127  0.1176
28192W        W44266   0.834   9.148   3.671  0.1780  0.0633 -0.2262
28193W        W44267   8.981   4.532  14.669 -0.0069  0.4797 -0.1693
28194W        W44268   8.187   6.309   0.529 -0.1122  0.0109  0.1103
28195W        W44269   5.975   0.085   2.660 -0.1789 -0.0337  0.1445
28196W        W44270  15.146   6.735   4.398 -0.0218 -0.1399  0.2821
28197W        W44271   4.596   6.632  10.133  0.1980  0.1329  0.0040
28198W        W44272  15.123  15.166  12.075 -0.0812  0.1101 -0.0957
28199W        W44273  10.068   3.399  11.474  0.1989 -0.1488  0.1705
28200W        W44274  14.321   4.662  12.930 -0.0366 -0.2162  0.0569
28201W        W44275   7.137   6.776   4.545 -0.0046 -0.0000  0.3879
28202W        W44276  18.255  17.728  14.002  0.3149 -0.1698 -0.2339
28203W        W44277  16.299  10.515   0.685  0.1709 -0.3072 -0.0039
28204W        W44278   1.906  11.709   4.409  0.1000  0.1859 -0.0126
28205W        W44279  11.354   9.408  11.471 -0.0049  0.1849  0.1110
28206W        W44280  13.741  11.781  10.558  0.1518  0.0507  0.3244
28207W        W44281  13.108   0.001  11.899 -0.1779  0.2385  0.0671
28208W        W44282  18.862  18.459   0.674  0.2313 -0.1238  0.1493
28209W        W44283  14.349   8.163   5.426  0.1977  0.2830  0.1451
28210W        W44284   9.546  11.374  14.122  0.3339 -0.1042 -0.0905
28211W        W44285   3.785  18.677  11.903  0.1384  0.1412  0.1455
28212W        W44286   1.292   0.751  14.683 -0.2317 -0.2017 -0.0680
28213W        W44287  13.767  14.972  13.333 -0.0292 -0.1842 -0.2015
28214W        W44288  16.076  16.322  12.878 -0.2343  0.0366  0.0162
28215W        W44289  18.448   1.131   3.737 -0.0039  0.0787  0.1230
28216W        W44290   8.970   0.110   4.514  0.1934 -0.0597  0.0259
28217W        W44291  11.340   4.859   2.825 -0.2734 -0.2047  0.1941
28218W        W44292  19.295   8.462  14.530 -0.1011  0.2246  0.0028
28219W        W44293   1.911  17.033  13.568 -0.0939  0.0658 -0.4108
28220W        W44294  16.754  13.544   3.942 -0.1985  0.0170 -0.1682
28221W        W44295  10.680   5.311   4.209 -0.0446  0.0356  0.1714
28222W        W44296   4.437  16.019  10.406  0.1021 -0.1297  0.0265
28223W        W44297  17.697  10.535  10.471  0.2043 -0.0322 -0.0038
28224W        W44298   2.444   8.062  14.228  0.0513 -0.0386  0.0218
28225W        W44299   7.010  17.104   2.560 -0.1817  0.0084 -0.0384
28226W        W44300   7.826  10.915   2.237  0.0046 -0.0075 -0.0872
28227W        W44301  13.062   0.511  11.762 -0.0215  0.0989 -0.0647
28228W        W44302   2.420  11.165   0.553  0.2590  0.0383  0.2370
28229W        W44303   8.380  17.732   0.689 -0.0735  0.4453 -0.0741
28230W        W44304   9.755   2.689  10.890  0.2363 -0.1747 -0.2165
28231W        W44305  17.822   8.261   1.828 -0.2355  0.3692  0.3067
28232W        W44306  11.492  17.469  11.890  0.0461  0.0396 -0.3279
28233W        W44307  14.886   9.991   3.589 -0.3000  0.0923  0.1535
28234W        W44308   3.366   9.210  12.792 -0.1245 -0.0371  0.3164
28235W        W44309   1.389  12.853   9.685  0.2497 -0.1264  0.3148
28236W        W44310  17.325   3.830   1.446  0.2734  0.0381 -0.2958
28237W        W44311  13.512   4.938   2.760 -0.3007 -0.1792 -0.2066
28238W        W44312  17.112  13.791   4.617  0.0253 -0.0833  0.0399
28239W        W44313  17.094  10.989   3.374 -0.2195 -0.2499 -0.0910
28240W        W44314  15.009   0.905   4.697  0.2067  0.2029 -0.1358
28241W        W44315   7.693  12.734   2.234 -0.1679 -0.1513  0.0239
28242W        W44316  10.409  15.029  11.768 -0.2326  0.0796 -0.2571
28243W        W44317  15.068  14.709   2.300 -0.2338  0.1761 -0.1214
28244W        W44318   5.047   8.923  10.917  0.0355  0.1753  0.1423
28245W        W44319  18.475  16.252  13.945 -0.1194  0.0800 -0.2548
28246W        W44320   8.257   4.101   0.425 -0.2177  0.3766 -0.0625
28247W        W44321   5.552  13.306  14.911  0.0701 -0.0012 -0.3170
28248W        W44322  17.335  19.180  11.199 -0.2059 -0.0927  0.0030
28249W        W44323  13.970   3.242  14.157  0.0472  0.0870 -0.2555
28250W        W44324  10.441  14.962   0.500 -0.0273 -0.0396  0.1679
28251W        W44325  16.371  15.492  11.916  0.0881  0.1981 -0.2507
28252W        W44326   5.929  10.836  12.386 -0.0056  0.0310 -0.1974
28253W        W44327  18.797  11.915   2.471  0.0394  0.1390 -0.0027
28254W        W44328  19.013  14.007   2.598 -0.0723  0.0604  0.2841
28255W        W44329   1.764  16.210   3.696  0.2466  0.0841 -0.1595
28256W        W44330   0.182   5.539  14.778 -0.2208  0.1611 -0.0826
28257W        W44331   1.477   3.582   2.108  0.0847 -0.0895 -0.3012
28258W        W44332   6.874  15.412   3.225 -0.4688  0.0413  0.1427
28259W        W44333   1.059  18.639  12.624  0.2658 -0.1729 -0.1705
28260W        W44334  13.624   5.090   2.254  0.1311  0.2779  0.1359
28261W        W44335   6.386   6.391   1.819  0.0627 -0.1221 -0.0387
28262W        W44336   9.942  12.113   5.703  0.2161  0.1532  0.0524
28263W        W44337  15.653   0.069   0.166 -0.0966  0.0100  0.3391
28264W        W44338   5.703  19.118  11.087 -0.1163  0.3688  0.0759
28265W        W44339   5.121   2.446  12.703  0.1902 -0.0265  0.3146
28266W        W44340   9.223  11.665  10.970 -0.0316  0.1738  0.1006
28267W        W44341   7.302   1.322  10.420 -0.0922  0.0215 -0.5893
28268W        W44342   4.984  11.731  14.106  0.5751  0.0628  0.1641
28269W        W44343   3.753  11.915  14.625  0.1861  0.3573  0.1017
28270W        W44344   0.899   8.971  13.323 -0.0977 -0.0276  0.2156
28271W        W44345  10.437   0.307   2.485 -0.2169 -0.1784 -0.7051
28272W        W44346  12.866   3.264  11.561  0.0331  0.1703  0.0382
28273W        W44347  19.207   3.439  12.909  0.1634  0.1968  0.1223
28274W        W44348   4.640   1.565   4.471 -0.2330 -0.2090  0.0458
28275W        W44349  11.289  18.293   0.268 -0.2934 -0.0502 -0.0921
28276W        W44350  17.681   3.147  12.141 -0.1129  0.1541  0.1993
28277W        W44351   7.739   3.932   5.260  0.0480  0.0018 -0.1437
28278W        W44352  17.283  17.489   0.780  0.1214 -0.2357 -0.0369
28279W        W44353   8.135  18.402  14.827  0.0110  0.0128  0.0045
28280W        W44354  15.197   9.876   4.961 -0.0847  0.3991 -0.2080
28281W        W44355   9.068  15.937   3.618 -0.1829 -0.0753  0.2794
28282W        W44356  11.033   9.291   1.417 -0.1434  0.1874 -0.1141
28283W        W44357   2.456  12.704  12.458 -0.0054 -0.1309 -0.4263
28284W        W44358   1.277  18.328  14.383 -0.2321  0.1398 -0.1751
28285W        W44359   0.227  17.623   1.790 -0.0813  0.0539 -0.0150
28286W        W44360   0.268  10.689  13.661  0.2104 -0.1128 -0.0253
28287W        W44361   9.134  19.203   3.567 -0.4010 -0.1760 -0.1458
28288W        W44362  12.855   1.041   4.634  0.0271  0.3250  0.2038
28289W        W44363   1.699  12.310  12.397 -0.0244  0.0376 -0.1288
28290W        W44364   1.951  13.681  14.628 -0.1246 -0.0012 -0.1633
28291W        W44365   1.827  15.834  10.606 -0.4517  0.0474 -0.2672
28292W        W44366   9.042  13.972  12.502 -0.3768 -0.2712  0.3856
28293W        W44367  15.749   0.511  12.295  0.1527  0.0855  0.1376
28294W        W44368   8.986   2.043  10.570  0.3484  0.2132  0.2201
28295W        W44369   0.183   5.529  11.170  0.0733  0.2697 -0.4165
28296W        W44370  16.719  16.525   5.489 -0.2041  0.0089  0.0747
28297W        W44371  15.401  15.047  13.145 -0.0333  0.0013  0.1004
28298W        W44372   6.826   9.451   2.050  0.2273  0.1668 -0.0375
28299W        W44373   3.744   2.224   2.828  0.0999  0.0638 -0.0294
28300W        W44374   9.017  15.037  10.989 -0.6217 -0.0454 -0.2233
28301W        W44375   7.366  10.969  11.170  0.4043  0.1972  0.2705
28302W        W44376   1.776   8.046  13.269 -0.1548 -0.0823 -0.2163
28303W        W44377  15.741  17.093   1.148 -0.2178  0.2568 -0.1834
28304W        W44378  18.860   4.463  14.561 -0.1041  0.3970 -0.2074
28305W        W44379  12.954   5.280  13.661 -0.2290 -0.2686 -0.1134
28306W        W44380   0.236  10.131  12.352 -0.0845 -0.2290 -0.1369
28307W        W44381   9.206  12.042  13.977 -0.2151 -0.1114 -0.1924
28308W        W44382  15.908   2.759   0.137  0.3034 -0.3039  0.0167
28309W        W44383   7.467  15.485   2.793 -0.0247 -0.0262  0.3474
28310W        W44384   3.576   7.293   2.199  0.0389  0.2524 -0.1024
28311W        W44385  13.569   8.282   1.014 -0.0707 -0.2751  0.3386
28312W        W44386   8.147   9.200   3.383 -0.1013 -0.0220 -0.0614
28313W        W44387   4.711   3.802   1.138 -0.3217  0.1207  0.1738
28314W        W44388   1.567   0.135   1.183 -0.0547  0.2574  0.0768
28315W        W44389   5.064  15.856   5.620 -0.1971  0.0701  0.2566
28316W        W44390   5.708   5.663   5.002 -0.3461  0.4902 -0.0768
28317W        W44391  15.903   7.160  11.525  0.1641 -0.1026 -0.2836
28318W        W44392  11.469  17.125  13.672 -0.0667  0.0955 -0.0538
28319W        W44393   9.959  12.295  11.883 -0.1123 -0.0962  0.0108
28320W        W44394  12.442  16.676  14.262 -0.1458 -0.0660 -0.0543
28321W        W44395  11.029  12.470   0.130 -0.0104 -0.0490  0.1641
28322W        W44396  11.819  14.798  12.683  0.3933  0.0233 -0.2011
28323W        W44397   8.928   2.057   1.945  0.3614  0.0048  0.1279
28324W        W44398  16.970   8.025  11.329 -0.1814 -0.0698 -0.1004
28325W        W44399  18.254   2.534   4.829 -0.0624  0.0987  0.0064
28326W        W44400   1.969  18.287  12.538 -0.3934  0.1688 -0.1500
28327W        W44401  13.335   3.859  12.993 -0.1693 -0.2018  0.3393
28328W        W44402   3.498   5.179  12.415  0.1430 -0.2011  0.1795
28329W        W44403   1.926   6.424  14.613  0.1940  0.0957  0.0419
28330W        W44404  12.340   0.573   4.386  0.2215  0.2781  0.2415
28331W        W44405   4.988   4.000   0.187  0.2842  0.4239  0.0823
28332W        W44406  13.165  15.401   4.502  0.3045  0.0942  0.1177
28333W        W44407  10.847   3.619  14.805 -0.0590 -0.4544 -0.0468
28334W        W44408   8.697   7.008   6.186 -0.1559 -0.2674 -0.0193
28335W        W44409  11.480   8.255   4.994 -0.0687  0.0404 -0.0624
28336W        W44410   4.154   7.103   3.062 -0.1836 -0.1648  0.2092
28337W        W44411   1.826  15.974  11.494 -0.2455 -0.1254  0.0943
28338W        W44412  11.965   9.718  14.362 -0.0061 -0.1651 -0.1128
28339W        W44413  10.476  13.075  13.591 -0.0208  0.2275 -0.0603
28340W        W44414   4.248  13.957   0.765 -0.0884  0.1803  0.2068
28341W        W44415   7.029   5.190   0.016  0.4524  0.4486  0.0163
28342W        W44416   6.551  18.836  10.264 -0.5173 -0.0523  0.2083
28343W        W44417  14.120   9.471   0.037 -0.0214  0.1937  0.3816
28344W        W44418  11.932  11.524   4.332  0.2648  0.0006  0.6817
28345W        W44419  17.905  13.091  14.191  0.2448 -0.1107  0.1033
28346W        W44420  10.922  11.760   1.845  0.0284  0.1632  0.1064
28347W        W44421  10.635   5.569  11.222 -0.0905 -0.3170  0.3625
28348W        W44422  16.962   4.802   4.578  0.0251  0.1019  0.0460
28349W        W44423  18.259  16.417   3.567 -0.2233 -0.2071 -0.3470
28350W        W44424  11.253  15.730   1.587  0.0263 -0.4014  0.3968
28351W        W44425   6.277   3.068   5.453 -0.0629 -0.2404 -0.1612
28352W        W44426   5.929   5.623   0.267 -0.1060 -0.0274  0.3745
28353W        W44427   1.705   1.099   1.117  0.3942  0.4021 -0.3014
28354W        W44428   8.965  11.786  13.326 -0.1894 -0.0118 -0.0526
28355W        W44429   6.571  16.211   0.329  0.3248 -0.2803  0.0189
28356W        W44430  15.886  17.218  11.009  0.1285  0.0374 -0.0747
28357W        W44431  14.679   2.739  12.885 -0.2704 -0.1238 -0.0601
28358W        W44432  11.818   9.379   3.167  0.0591  0.0102  0.1012
28359W        W44433  14.395  16.396   3.155 -0.0612 -0.1041 -0.0547
28360W        W44434   1.523   8.864  10.226 -0.1620 -0.0525 -0.0720
28361W        W44435  15.792   4.747  12.807  0.0195 -0.1288 -0.1290
28362W        W44436  11.714   9.259  14.137 -0.2302 -0.0048 -0.0239
28363W        W44437   7.277  14.249  14.157 -0.1392 -0.2371 -0.0722
28364W        W44438  15.452   5.608   5.853 -0.1875 -0.0340 -0.1970
28365W        W44439   0.112  14.418   3.353 -0.2030  0.0858 -0.3337
28366W        W44440  16.578  10.170   3.395  0.1460 -0.1250 -0.1152
28367W        W44441   7.117  13.704  11.543 -0.1140  0.3095  0.3828
28368W        W44442   7.460   7.815   4.384 -0.1631 -0.0511  0.1391
28369W        W44443   6.250   3.864  10.397 -0.0550  0.1288 -0.3111
28370W        W44444   9.885   4.767   4.096 -0.0861 -0.1500 -0.2897
28371W        W44445  15.427  16.460   0.135  0.2652  0.1356 -0.0294
28372W        W44446   6.776  13.034  11.153 -0.2747 -0.0325 -0.2358
28373W        W44447   9.719  11.585   2.613 -0.1940  0.1912 -0.0016
28374W        W44448  11.777  15.174   4.732  0.2532  0.2672 -0.0831
28375W        W44449   9.067  13.012  12.774 -0.1742 -0.0930  0.0092
28376W        W44450   4.414  17.236  11.100 -0.0731  0.1869 -0.0014
28377W        W44451   6.649   4.663   2.495  0.0286 -0.0454 -0.0931
28378W        W44452   4.523   7.366   4.861 -0.2308  0.0066 -0.3390
28379W        W44453   0.264   9.962   2.128  0.0968 -0.0003  0.0584
28380W        W44454   3.039  18.118   0.348 -0.1281  0.2132  0.0985
28381W        W44455  13.739   6.528  14.126 -0.0520 -0.2396 -0.4262
28382W        W44456  18.846   2.586  13.271 -0.2651  0.2231 -0.1856
28383W        W44457  15.780  11.331  10.319  0.1061  0.0241  0.3091
28384W        W44458  16.627   6.302   3.942 -0.1315  0.2170  0.1729
28385W        W44459   7.148   5.847   1.837 -0.1526  0.0995 -0.1858
28386W        W44460   4.244   4.991  13.620  0.1833  0.3378 -0.2280
28387W        W44461  16.050  13.110   0.543  0.3505  0.0975  0.4479
28388W        W44462   1.214  12.575   0.832 -0.1042  0.2114  0.1014
28389W        W44463   9.184   2.614   0.744  0.1771  0.0465 -0.2471
28390W        W44464   8.248  16.514  12.953 -0.1954  0.0317 -0.3301
28391W        W44465   3.198  12.089  12.667  0.2753  0.4808  0.0852
28392W        W44466  14.181   8.126  11.327 -0.1398 -0.0823  0.2600
28393W        W44467   3.147  14.402   2.399 -0.0195  0.3013  0.0667
28394W        W44468  10.440  13.486   1.072 -0.0562 -0.7580  0.0622
28395W        W44469   4.880   1.168  14.975 -0.1905  0.0819  0.0446
28396W        W44470  15.557  12.937  12.951  0.2060  0.1029 -0.1127
28397W        W44471   4.190   4.066  10.920 -0.0235 -0.0638  0.1093
28398W        W44472  15.033   3.746   1.520 -0.1379 -0.2242 -0.2947
28399W        W44473  15.379  11.008  11.563  0.3095  0.0275 -0.1860
28400W        W44474  14.236   8.490  12.242 -0.2000  0.2836 -0.0171
28401W        W44475  15.106   9.163  12.115 -0.0231 -0.0339  0.3329
28402W        W44476   2.480   6.103  14.566 -0.2067  0.3854  0.0581
28403W        W44477  11.794   2.134   5.225  0.1110 -0.3180  0.0396
28404W        W44478   9.905   9.661  12.479 -0.0750 -0.0442  0.1824
28405W        W44479  15.537   8.536  12.977  0.2523  0.0750  0.2503
28406W        W44480  12.892  18.940  13.397 -0.1720  0.1616  0.2126
28407W        W44481  15.530  10.925   4.014 -0.1363 -0.1584 -0.0867
28408W        W44482   2.723  15.260   9.907 -0.0520 -0.0234  0.2538
28409W        W44483  10.356  14.718   3.095 -0.1545  0.1067 -0.0266
28410W        W44484  16.116  18.173  12.942 -0.3537  0.1427  0.2546
28411W        W44485  14.982  17.652   2.052  0.0058 -0.0241  0.0945
28412W        W44486   3.122  15.739   3.073 -0.1271  0.1958  0.2046
28413W        W44487  10.446   4.908   0.242 -0.0707 -0.2562 -0.0614
28414W        W44488  18.136   3.376   0.213 -0.4482 -0.0773  0.3057
28415W        W44489   9.914  18.226   3.161 -0.0060  0.0388 -0.1946
28416W        W44490   5.448   8.494   4.527 -0.1571  0.0312  0.0045
28417W        W44491  11.251  17.316  12.933  0.0839  0.0979 -0.0254
28418W        W44492  17.757   1.129   3.168  0.0897 -0.3532  0.1237
28419W        W44493   4.878   8.880   0.781 -0.3361  0.0888  0.0514
28420W        W44494   7.351  17.849   3.828 -0.0901  0.0677 -0.4242
28421W        W44495  11.056   6.190  12.910  0.0983  0.1777 -0.1857
28422W        W44496  12.264  10.787   1.996  0.0532 -0.0877  0.4911
28423W        W44497   2.213   9.992  11.065  0.1441 -0.2681  0.1484
28424W        W44498   3.059  16.549   2.339  0.1500  0.3253 -0.1261
28425W        W44499  18.346   4.995   3.912  0.1770 -0.3415  0.4813
28426W        W44500  13.714   2.262  11.146  0.2153  0.1594 -0.0517
28427W        W44501  14.261  14.761   1.159  0.2451  0.0728  0.0563
28428W        W44502   0.152   7.484   0.914  0.0101  0.4600  0.1645
28429W        W44503   8.395   1.520   0.417  0.0196  0.1100  0.1382
28430W        W44504  10.384  11.265   3.050  0.3486 -0.0545 -0.0259
28431W        W44505   9.797   9.854   3.025  0.2832  0.0083  0.0078
28432W        W44506   0.827  12.580   2.055  0.0114 -0.2762 -0.1509
28433W        W44507  15.088   0.671  13.492 -0.1260 -0.0350 -0.1214
28434W        W44508  11.542  15.063   2.858  0.2469 -0.2192  0.4572
28435W        W44509   2.359   2.430  13.211 -0.1910  0.0574  0.2682
28436W        W44510   4.517  19.027   3.627  0.1245 -0.0354 -0.0926
28437W        W44511   6.181  12.183  12.051  0.0674 -0.1976  0.0274
28438W        W44512  12.956   6.529   3.698  0.0100  0.3951 -0.0331
28439W        W44513  12.481  10.570  13.733 -0.1130 -0.1201  0.3135
28440W        W44514   5.039   9.046  11.760  0.0614 -0.0557 -0.1587
28441W        W44515   9.877  13.018  11.208 -0.0832 -0.0201 -0.3237
28442W        W44516   5.259  14.859  10.709 -0.0958 -0.1414 -0.0451
28443W        W44517  12.102  11.520   4.772 -0.0515 -0.1555 -0.1079
28444W        W44518   3.884  10.086   1.034  0.1402 -0.0388 -0.1439
28445W        W44519   8.044   4.847   4.646 -0.1280  0.0305  0.1096
28446W        W44520  13.425  15.164   1.352 -0.0448 -0.0638 -0.4036
28447W        W44521   7.673   4.746   0.311  0.2363 -0.1385  0.1569
28448W        W44522  13.532   2.697   5.320  0.2875  0.0745 -0.2201
28449W        W44523   7.433   7.393  12.324 -0.0835  0.0573 -0.1048
28450W        W44524   8.675  10.352   3.591 -0.1022  0.2330  0.2813
28451W        W44525  13.591  10.100   0.326 -0.1542  0.1572  0.4774
28452W        W44526  10.801  19.277  11.234 -0.0127  0.0758  0.0766
28453W        W44527   4.323   4.177   1.462 -0.1520  0.1626 -0.0977
28454W        W44528  17.326   9.026  11.929  0.0525 -0.1113 -0.0730
28455W        W44529   7.005  13.060   5.409  0.1044  0.1204  0.0275
28456W        W44530  11.805   1.478   1.407  0.2302 -0.2477 -0.0005
28457W        W44531   2.184   8.036   4.376 -0.0197  0.0275  0.0085
28458W        W44532  16.389  15.781   4.982 -0.0667  0.2308  0.0892
28459W        W44533   0.062  15.194   3.744  0.2021  0.2943 -0.4572
28460W        W44534  16.141   5.466   3.003 -0.0061 -0.0258 -0.2788
28461W        W44535  12.706   0.958  13.430  0.0271  0.2293  0.3223
28462W        W44536   2.759   4.432   1.584  0.0280  0.2861  0.0287
28463W        W44537  12.605   8.684  12.959 -0.1399  0.2455  0.1039
28464W        W44538  17.357  16.404   9.905 -0.2263 -0.2252  0.1929
28465W        W44539   7.010   3.092  14.865 -0.0418  0.0959 -0.0682
28466W        W44540   8.208  11.848  12.696 -0.0109 -0.0865 -0.0275
28467W        W44541  18.532  15.592  10.251 -0.1237 -0.2286  0.3964
28468W        W44542  16.534  18.002   1.894  0.1345 -0.0807  0.5203
28469W        W44543  15.117   3.295   3.848  0.1233 -0.0644 -0.0588
28470W        W44544  14.284   4.715   0.488  0.0218 -0.2706 -0.0744
28471W        W44545   1.282  17.122  10.011  0.3332  0.1457 -0.1196
28472W        W44546   2.283   3.857  13.695 -0.0657 -0.2810  0.0825
28473W        W44547  12.954  15.549   0.650 -0.0721 -0.2213  0.0182
28474W        W44548  18.780   7.088  14.213  0.0278  0.0633 -0.1027
28475W        W44549   6.641   7.309   2.325  0.1219  0.1141  0.1668
28476W        W44550   0.190  11.990   0.501  0.0080  0.1829  0.0959
28477W        W44551   3.069  14.354   1.337  0.0528  0.0637 -0.2179
28478W        W44552   1.928  11.314   3.450  0.1413 -0.0116  0.1133
28479W        W44553   0.199   5.787   6.102  0.0421  0.2299  0.3665
28480W        W44554   1.455  18.822   9.856  0.0326  0.1619 -0.1411
28481W        W44555   5.991  15.740  14.234 -0.1050 -0.3187 -0.2386
28482W        W44556   2.512  13.678   1.610 -0.0123 -0.1207 -0.1264
28483W        W44557   5.392  11.617  13.146  0.0073  0.1239 -0.0939
28484W        W44558  13.495  13.440  11.989 -0.0510 -0.1873  0.1761
28485W        W44559  11.433  19.182   0.435 -0.1507  0.0997 -0.0496
28486W        W44560  17.337  11.020  12.951  0.0865  0.2412  0.0638
28487W        W44561  16.094   7.120  13.081 -0.0098 -0.3484  0.0790
28488W        W44562  17.232   3.947   4.633  0.2354  0.1508 -0.2022
28489W        W44563  18.127  10.561  11.261 -0.2673  0.0135 -0.0577
28490W        W44564   0.228   0.165   4.554 -0.1302 -0.1062  0.0976
28491W        W44565  13.421  18.225   0.506  0.0331  0.0117  0.0191
28492W        W44566  19.131   8.682  14.991 -0.0370  0.0137  0.2141
28493W        W44567  16.298  17.578   9.551  0.0270 -0.0061 -0.1717
28494W        W44568   2.552  15.740  13.711 -0.0011  0.2380 -0.4350
28495W        W44569   8.222   8.902  13.653 -0.0344 -0.1746  0.0179
28496W        W44570   9.911  13.040  10.136 -0.3243  0.3661  0.1422
28497W        W44571  12.293  16.285   5.574  0.0486  0.1373 -0.2944
28498W        W44572   1.907  14.011   0.237 -0.0434 -0.1681 -0.2208
28499W        W44573  13.087   8.693  12.177  0.1693  0.2598  0.0124
28500W        W44574  16.470   6.684  12.893 -0.3691  0.0500 -0.0116
28501W        W44575   5.941  11.027   4.364  0.0976 -0.0930  0.2112
28502W        W44576  18.283   0.150   4.015 -0.3286 -0.0118 -0.3624
28503W        W44577  11.315   1.335  14.459  0.1354 -0.0705  0.0111
28504W        W44578  11.461   7.079   0.168  0.1396 -0.0411  0.0607
28505W        W44579  11.595  14.248   4.814 -0.3143 -0.2864  0.0607
28506W        W44580   1.772  17.193  14.642 -0.1671 -0.0188 -0.0886
28507W        W44581  14.627  18.768   1.597 -0.4616 -0.0049  0.0314
28508W        W44582   5.816  10.104  14.886 -0.1343  0.1854 -0.2785
28509W        W44583   0.924  12.799  14.801  0.2125 -0.2339  0.3288
28510W        W44584   7.368   9.921  11.249  0.5635  0.2429  0.0266
28511W        W44585   7.674  11.456   2.938 -0.0730 -0.3795 -0.0765
28512W        W44586   3.119  15.410  13.335  0.0838  0.4560 -0.0130
28513W        W44587  17.708  19.139  11.781  0.0554 -0.1937  0.0205
28514W        W44588  19.193  10.589  10.813  0.1010 -0.2908  0.0699
28515W        W44589  19.246   5.305   0.135 -0.0071  0.2278  0.2129
28516W        W44590  12.530   0.302  11.551 -0.1802  0.0770  0.3076
28517W        W44591  14.405  16.613   4.534 -0.2027  0.0516  0.0445
28518W        W44592  10.868   5.002   1.785 -0.0459 -0.4110 -0.0172
28519W        W44593   0.990  12.196   2.291 -0.2653  0.1800  0.4635
28520W        W44594   4.054  17.117   4.387  0.1817 -0.0359  0.4211
28521W        W44595   3.454  17.051   0.443 -0.1796 -0.5502 -0.2718
28522W        W44596   7.669   5.393  12.511  0.1462 -0.0203  0.0109
28523W        W44597  16.825  13.749  10.617 -0.0928 -0.1027 -0.2217
28524W        W44598  13.687  13.824  10.326 -0.2267 -0.0726  0.0166
28525W        W44599   4.979   8.027  13.875 -0.1402 -0.2181 -0.3140
28526W        W44600  15.345   5.628  10.208  0.2250  0.1006  0.2631
28527W        W44601  14.817  16.432  12.376 -0.0195 -0.1678  0.1064
28528W        W44602  17.406   5.831   2.470  0.0483 -0.0172  0.1319
28529W        W44603  17.143   0.823  10.219 -0.0894 -0.1703  0.7895
28530W        W44604   0.496   1.960   0.041  0.2580  0.0648  0.0794
28531W        W44605  12.228   1.074   3.785 -0.0148  0.0219  0.1045
28532W        W44606   3.626   1.381  11.668  0.0028  0.0562  0.0686
28533W        W44607  12.395   6.882   4.594  0.1724 -0.0109  0.1712
28534W        W44608   7.428  12.254   0.209  0.0989  0.0211  0.0409
28535W        W44609   9.533  17.094  11.135  0.1011  0.1565  0.0130
28536W        W44610   8.547  15.305   2.282  0.0562 -0.3013 -0.3520
28537W        W44611   9.349  11.854   4.273  0.4088 -0.0124 -0.2884
28538W        W44612  10.799  14.807  14.793 -0.1265  0.0963  0.0033
28539W        W44613  12.822   4.645   5.078 -0.2696  0.0749 -0.0459
28540W        W44614  18.749  15.106  11.545 -0.0290 -0.2234 -0.0320
28541W        W44615  14.072  11.797   1.920  0.1771  0.2726  0.1669
28542W        W44616   1.306  13.456  10.501  0.2477  0.4245 -0.0989
28543W        W44617   9.829  16.606   4.484 -0.1955  0.1131  0.1507
28544W        W44618  12.835   6.474   2.846 -0.2110 -0.0317 -0.1805
28545W        W44619   0.954   7.293   4.212 -0.0247 -0.0844 -0.1614
28546W        W44620  12.088  13.360  11.591  0.2972 -0.0026 -0.1782
28547W        W44621  18.616   7.769   5.692  0.0845  0.4451  0.1795
28548W        W44622   6.844   5.726  13.665  0.1990  0.3248 -0.1741
28549W        W44623   2.800  15.162   1.843  0.3449  0.2829  0.2392
28550W        W44624  15.675   1.091   0.290  0.1136  0.3215 -0.1471
28551W        W44625   5.816   4.290   3.199 -0.0213 -0.2198  0.4637
28552W        W44626  15.519   7.591   1.310 -0.0349 -0.3285 -0.0459
28553W        W44627  12.126  15.541   9.264  0.1170 -0.2105  0.0725
28554W        W44628   0.042   4.641   1.867  0.2414  0.0294  0.1870
28555W        W44629   4.119  17.615   4.641 -0.0585 -0.0893  0.1205
28556W        W44630   8.446   0.032  15.033  0.3006 -0.0534  0.1316
28557W        W44631   6.321   2.237  12.495  0.0187  0.0349  0.0709
28558W        W44632  12.101   6.371   4.497 -0.4077  0.0625  0.1041
28559W        W44633  18.456  11.521  12.501 -0.2208  0.0625 -0.0519
28560W        W44634  17.893  16.579  13.268 -0.0281  0.0136 -0.2610
28561W        W44635   0.865   8.681   2.661  0.1296 -0.1321 -0.0479
28562W        W44636   2.718   1.605  12.267  0.0886  0.0729 -0.2507
28563W        W44637  17.175   1.783   0.482 -0.0184 -0.0354  0.0915
28564W        W44638   1.923  13.673   3.524 -0.1430  0.0877  0.1062
28565W        W44639   9.757   7.554   1.496 -0.0777 -0.3345 -0.1309
28566W        W44640   3.011   8.327  13.478 -0.3447 -0.1146 -0.1569
28567W        W44641  18.339   6.617  11.530 -0.2783  0.2557 -0.0274
28568W        W44642   9.792  15.158   4.359  0.0623  0.1989 -0.0359
28569W        W44643   1.388  14.912  14.532 -0.0349 -0.2810 -0.0476
28570W        W44644  12.943  15.330   0.100  0.0741  0.0394  0.0580
28571W        W44645  11.951  13.528   1.160  0.0889 -0.2489 -0.0015
28572W        W44646  12.914   0.841   1.803 -0.3378 -0.2892 -0.0079
28573W        W44647   1.277  18.400   2.366 -0.1368  0.0273 -0.2043
28574W        W44648  19.139   1.362  11.912 -0.0398 -0.0905  0.3092
28575W        W44649  15.277   6.193  11.342  0.1358 -0.2106 -0.1287
28576W        W44650  15.514   4.529   0.148  0.2899  0.2858 -0.0059
28577W        W44651  16.638   6.933   4.683 -0.3375  0.2725  0.0708
28578W        W44652  18.354   4.820  11.507  0.1053 -0.2700  0.2309
28579W        W44653   2.221   6.313  12.840  0.1521 -0.0138  0.2521
28580W        W44654   0.456   8.014   0.911  0.2084  0.0842  0.1154
28581W        W44655  10.879   7.254   0.769  0.3277 -0.1268  0.3846
28582W        W44656  11.398  14.000   1.078  0.5298  0.0606  0.0062
28583W        W44657   6.350  18.325  13.333  0.1038  0.0065  0.4067
28584W        W44658   8.035  10.727  12.415 -0.2406  0.0939  0.0229
28585W        W44659   6.998   3.840   1.630  0.0345  0.4609  0.1085
28586W        W44660   1.083  14.409   4.616 -0.2497  0.3059 -0.1788
28587W        W44661   3.694   9.733   1.334 -0.0963  0.1613  0.2090
28588W        W44662   4.674   4.177   6.196 -0.6002 -0.4981 -0.2390
28589W        W44663   0.410  13.031   1.970  0.0164 -0.1215 -0.3596
28590W        W44664   6.695   6.434   2.389  0.3938 -0.2525 -0.3222
28591W        W44665  11.055  14.402   0.223  0.0479  0.2008  0.1698
28592W        W44666   7.913  15.394  10.796 -0.1377  0.1592  0.0735
28593W        W44667   2.468   8.408   4.495  0.0248 -0.0681 -0.0376
28594W        W44668  15.930  13.476   0.272 -0.1112 -0.1532  0.0027
28595W        W44669  10.406   9.451   1.450  0.0529 -0.0268  0.0378
28596W        W44670  18.582  17.029  10.121 -0.2172 -0.2019 -0.0355
28597W        W44671  18.537  12.649   0.746 -0.0425  0.2477 -0.0399
28598W        W44672   6.149   8.377  14.022 -0.2454  0.0950  0.2934
28599W        W44673  14.430  11.733  12.013  0.0004 -0.0319  0.2229
28600W        W44674   4.013  10.488  12.334 -0.0699  0.1614  0.3080
28601W        W44675  17.955   6.534   4.363  0.0839 -0.0700 -0.1848
28602W        W44676  14.573  17.499   3.113 -0.0246 -0.4223  0.1390
28603W        W44677   8.201   1.502  10.987  0.2379  0.0419  0.0626
28604W        W44678  10.184  10.526  13.616  0.1970 -0.0060 -0.2391
28605W        W44679  17.519   9.021  13.282 -0.0174 -0.0237 -0.1139
28606W        W44680   7.952  15.654   0.073  0.1410  0.2432 -0.2363
28607W        W44681   6.218  15.223  13.195 -0.1335  0.0057 -0.0649
28608W        W44682   3.787   2.028   4.744 -0.0711  0.1163  0.1102
28609W        W44683   2.063  17.229  15.040 -0.2095  0.1409 -0.3647
28610W        W44684  17.565  13.313   0.813 -0.0079  0.1807  0.0747
28611W        W44685  16.874   3.340   2.036  0.2496 -0.1843  0.0301
28612W        W44686   2.908   6.330  12.590 -0.0922 -0.1049  0.1883
28613W        W44687  10.408  11.559  13.571  0.0615  0.1966  0.2872
28614W        W44688  14.127   8.642   5.439 -0.2466  0.2203 -0.0768
28615W        W44689  17.227  17.141  14.714 -0.1595  0.3548  0.2112
28616W        W44690  14.924   0.926  12.371  0.1378 -0.2570 -0.0683
28617W        W44691   8.303  10.478  14.027  0.0553  0.0064  0.1492
28618W        W44692  13.936  10.619   2.023  0.3257  0.1202 -0.1247
28619W        W44693  18.100  18.907  11.431 -0.0612 -0.1653  0.2180
28620W        W44694   7.084   3.631  11.555 -0.2970  0.1010 -0.2860
28621W        W44695  17.272   9.730   9.795  0.0895 -0.0441 -0.1634
28622W        W44696  14.682   6.046   0.328  0.4856  0.1071 -0.4095
28623W        W44697  19.223   4.183   1.809  0.0096 -0.0577  0.0871
28624W        W44698   7.149  15.113   2.487 -0.1545  0.1062  0.0500
28625W        W44699   5.904   9.185   2.757  0.3275 -0.0686  0.1749
28626W        W44700   6.012  19.266   5.334 -0.1336 -0.0341  0.1115
28627W        W44701  14.339  10.071   3.670 -0.1937 -0.2058 -0.2593
28628W        W44702   9.666  18.438  13.255 -0.0502 -0.4525 -0.0681
28629W        W44703  10.836  16.396   4.954  0.1954  0.0664 -0.0419
28630W        W44704   1.293  18.774   4.361  0.2321  0.0457 -0.0812
28631W        W44705   6.855  12.369   1.598 -0.3560 -0.0070  0.2021
28632W        W44706  13.972  12.649   1.155  0.1355 -0.0441  0.1242
28633W        W44707   0.403   8.714   4.353  0.1063 -0.0136  0.1592
28634W        W44708  11.458   7.745  11.808  0.0854 -0.0548 -0.3819
28635W        W44709  18.249   7.260   2.046 -0.1566  0.1738 -0.0747
28636W        W44710  12.731   4.573   4.223 -0.1499 -0.0433 -0.1863
28637W        W44711   5.607   5.674   2.718 -0.3021  0.0595  0.1192
28638W        W44712   2.528  19.237   3.141  0.0996  0.1197  0.3843
28639W        W44713  18.836  13.621   0.645 -0.1468  0.1335  0.0827
28640W        W44714  19.222  14.969   2.826  0.2289 -0.1761 -0.2175
28641W        W44715   3.269  18.854  15.009  0.2470 -0.1869 -0.3476
28642W        W44716  17.072  12.229  12.265  0.1532  0.0397  0.0562
28643W        W44717  18.166   4.349   4.635  0.0407 -0.1724 -0.0895
28644W        W44718   2.682   1.716   0.910  0.1427  0.0365  0.1517
28645W        W44719   8.846   5.474   4.174 -0.0557 -0.2089  0.1077
28646W        W44720   9.984   2.299   3.498 -0.1060  0.0668  0.2117
28647W        W44721  11.887  17.948   2.525  0.0162  0.0059  0.1513
28648W        W44722  16.922  16.654   3.693  0.1492  0.0354 -0.1375
28649W        W44723  16.470   7.902   2.789  0.2659 -0.0081 -0.0205
28650W        W44724   0.212   5.147   2.319  0.0375 -0.2446 -0.1650
28651W        W44725  18.544  12.031  12.541 -0.2615 -0.3702  0.3714
28652W        W44726  12.397  17.601  11.051  0.1853 -0.0092 -0.0252
28653W        W44727  17.155   7.982   0.069 -0.4030 -0.1544 -0.0403
28654W        W44728  14.956   8.450  14.670  0.0963  0.0301  0.0364
28655W        W44729   8.208  11.103   1.321 -0.0454 -0.0999 -0.0179
28656W        W44730  12.358   4.251   0.325 -0.0904  0.1741  0.3276
28657W        W44731  11.018   6.507  13.551 -0.0788 -0.1977  0.5460
28658W        W44732   4.815  10.320  13.847  0.0670  0.1168  0.5229
28659W        W44733   4.102  15.205   4.026 -0.1670  0.0477  0.1274
28660W        W44734  12.685  14.307  11.201  0.1064 -0.1936 -0.2188
28661W        W44735  18.591   3.423   1.090 -0.3915  0.0547 -0.1487
28662W        W44736  10.701   6.191  14.743 -0.0140 -0.1334 -0.0799
28663W        W44737  13.579   3.373   1.428 -0.2433  0.1964 -0.3490
28664W        W44738   6.120   0.649   3.356 -0.1624 -0.1421  0.1202
28665W        W44739  17.426   1.787   2.306 -0.1797  0.1277  0.2531
28666W        W44740  17.463  12.137   0.357  0.2504  0.3135 -0.4536
28667W        W44741  15.734  10.906   4.484 -0.2082 -0.1104 -0.2361
28668W        W44742   9.767   1.422  14.051  0.1296  0.2327  0.4141
28669W        W44743  17.794   6.748  11.608  0.1145  0.3736  0.0481
28670W        W44744  11.528  15.216   0.137 -0.2374  0.0605 -0.0894
28671W        W44745  16.242  10.956  10.274  0.2065 -0.1383 -0.2726
28672W        W44746  13.586   9.170   3.972  0.0163  0.4560 -0.1869
28673W        W44747   7.578   6.698   3.052 -0.1613 -0.2665 -0.1574
28674W        W44748  15.123   4.828  15.004 -0.2867  0.0780  0.2511
28675W        W44749  15.884  10.103  10.700 -0.0379  0.1511  0.2473
28676W        W44750  16.180   7.226   1.889 -0.1086 -0.0651 -0.0401
28677W        W44751  19.097  10.645   4.024 -0.4156  0.3866 -0.1645
28678W        W44752  16.313  15.804  13.025  0.1443  0.1743  0.0263
28679W        W44753   6.262  18.853   3.258  0.0583 -0.1051  0.1677
28680W        W44754  16.567  19.305   1.131 -0.6090  0.3161  0.1111
28681W        W44755   0.114   5.741   2.390  0.0491  0.1303 -0.0003
28682W        W44756  12.229  10.663  14.668 -0.1048 -0.4897 -0.1384
28683W        W44757   7.898   4.558   3.003  0.1375  0.2675 -0.0184
28684W        W44758  18.052  19.048   4.219  0.0482 -0.0456  0.1819
28685W        W44759   5.008  14.009  14.015 -0.1196  0.1065 -0.2224
28686W        W44760  17.714  18.003  10.598  0.2833  0.1455  0.0825
28687W        W44761   8.709  14.661   2.324  0.0825 -0.0335  0.2144
28688W        W44762   7.912  19.067   5.539  0.1265 -0.0803 -0.2654
28689W        W44763   3.383   1.165   1.498  0.0001  0.1768  0.1760
28690W        W44764  13.252  16.442   5.238  0.2656  0.0131  0.0758
28691W        W44765  11.970  17.998   4.124  0.0323 -0.0860 -0.2415
28692W        W44766   5.080  13.470   3.914  0.2532 -0.0056 -0.0681
28693W        W44767  11.244   5.385   2.827  0.0855  0.0147  0.0527
28694W        W44768  17.672   0.590  11.401  0.0443  0.1093  0.0647
28695W        W44769   8.218   6.493  13.583 -0.1252  0.2275  0.3437
28696W        W44770  14.362   9.948  10.569  0.1415 -0.0525  0.3053
28697W        W44771   5.319   4.158   3.359 -0.0016 -0.0982 -0.0789
28698W        W44772   7.020   8.124   4.399  0.0278 -0.0724 -0.0012
28699W        W44773   1.168  19.248   0.332 -0.1234  0.1126 -0.2251
28700W        W44774   4.959   4.482  13.111  0.0252  0.0331 -0.1003
28701W        W44775   3.761   2.086  13.228 -0.1006 -0.1295  0.0837
28702W        W44776  16.461  10.583  13.290  0.0242 -0.1004 -0.1242
28703W        W44777   9.138  12.673   1.051 -0.0044 -0.2703  0.2904
28704W        W44778  17.097  10.959   9.156 -0.1522  0.2461 -0.0890
28705W        W44779   9.474  13.971   2.228  0.1921  0.2140 -0.1830
28706W        W44780  16.284   6.093   4.390  0.2714 -0.3550 -0.3413
28707W        W44781  11.176   2.546  14.566 -0.3245 -0.0940 -0.3780
28708W        W44782   6.348  13.936  11.941 -0.0603  0.0689  0.0311
28709W        W44783   0.388  13.696  10.724  0.1171  0.2542 -0.2991
28710W        W44784  11.510  11.694   2.703 -0.2152 -0.1551 -0.2512
28711W        W44785  17.102  19.267   1.357  0.0090 -0.2745  0.2085
28712W        W44786  13.967   1.935   2.689 -0.0627 -0.0792  0.2251
28713W        W44787  18.047   7.717   4.862  0.2690 -0.0677 -0.1245
28714W        W44788   3.566   1.209   4.768  0.0461  0.1001  0.0948
28715W        W44789  13.544  13.865  14.717 -0.3049  0.2297 -0.2114
28716W        W44790   9.128  15.855   4.463 -0.0749  0.0552 -0.6280
28717W        W44791  11.413   2.308  11.110 -0.1853 -0.4470  0.0869
28718W        W44792   4.787  11.912   4.351 -0.1092  0.1037  0.1224
28719W        W44793   7.391   1.216  13.098  0.2437 -0.0337 -0.2289
28720W        W44794   4.979   3.426  12.848 -0.0978 -0.0042  0.3508
28721W        W44795   4.509   7.789  13.874  0.0529  0.2249 -0.0502
28722W        W44796   3.376  12.257   1.357 -0.0575 -0.2214  0.0012
28723W        W44797  11.522   0.263   5.174 -0.4792 -0.0625 -0.0613
28724W        W44798  10.585   9.341  13.147 -0.1276 -0.0128 -0.0046
28725W        W44799  18.094  14.755   3.490 -0.0101  0.0678  0.0447
28726W        W44800   0.220  18.015  11.317 -0.0947  0.1054  0.2072
28727W        W44801   4.315  13.586   3.475  0.0653 -0.1151 -0.1128
28728W        W44802  13.524  13.211   1.962  0.3950  0.1029 -0.1870
28729W        W44803   9.984  12.814  11.742  0.2863 -0.0091 -0.0194
28730W        W44804  17.227   5.374  12.885  0.2286  0.1185 -0.0465
28731W        W44805   1.741   2.655   3.850  0.1332  0.2639  0.2723
28732W        W44806  14.303   5.183  12.727 -0.0509  0.2746  0.0119
28733W        W44807   2.238  11.184  10.252  0.2675  0.1385 -0.4694
28734W        W44808  12.296   8.990   0.396 -0.4173  0.2059 -0.0778
28735W        W44809   6.164   5.720  11.981  0.1383 -0.0655 -0.0049
28736W        W44810   2.025   4.722  13.377 -0.1359 -0.0280 -0.3358
28737W        W44811   3.390   6.114  12.284 -0.2392 -0.1001  0.5388
28738W        W44812   3.897   3.400  13.840  0.3100 -0.2447 -0.1603
28739W        W44813  15.552   1.370   1.962 -0.1192  0.1809 -0.2578
28740W        W44814   7.888  12.171   3.507 -0.2069 -0.1968  0.3326
28741W        W44815  10.156   1.372  13.637  0.0338  0.0226  0.0163
28742W        W44816  11.099  10.088   0.806 -0.2195  0.2614  0.2836
28743W        W44817  18.634   2.856  12.453 -0.0861 -0.1156  0.4144
28744W        W44818   6.882   8.619  12.348  0.0127  0.1871 -0.0789
28745W        W44819   0.259  14.600   2.841  0.0761  0.1075 -0.0449
28746W        W44820  13.077  14.871  11.972  0.1074 -0.1400  0.0540
28747W        W44821  11.455   3.415  11.457  0.0162 -0.4401  0.0627
28748W        W44822  12.993  11.479  11.373 -0.2409  0.0143  0.0360
28749W        W44823  10.571  15.038   1.784 -0.0058 -0.3250 -0.0090
28750W        W44824   2.661  11.101   1.975  0.2423 -0.0021 -0.0647
28751W        W44825   6.088  19.093  13.971 -0.1631  0.0719 -0.3051
28752W        W44826   8.715   6.435   1.077  0.0052  0.0499  0.0389
28753W        W44827   9.718  13.560  13.200 -0.3418 -0.0776  0.1469
28754W        W44828   7.355   6.693   1.173  0.0911 -0.0863  0.0930
28755W        W44829  19.190   9.160  11.808  0.0608 -0.1080  0.0014
28756W        W44830  15.281  13.719  10.890 -0.0727 -0.0613  0.1794
28757W        W44831  13.792   4.110  15.034 -0.1157  0.0617 -0.0367
28758W        W44832  10.400  11.831  12.236 -0.1650  0.2507  0.1117
28759W        W44833  14.211   0.510  13.553 -0.1782  0.1812  0.2061
28760W        W44834  16.500  18.745   1.781  0.1330  0.1109 -0.0516
28761W        W44835  18.730   3.642  12.954 -0.2572  0.0169  0.1719
28762W        W44836  11.068   9.553  13.447  0.1383  0.0868  0.2134
28763W        W44837  14.558   2.996   0.116 -0.0864 -0.1021 -0.1203
28764W        W44838  18.106   3.016   1.942  0.3077  0.1727 -0.4357
28765W        W44839   7.661  17.977  11.233  0.3338  0.0473  0.3210
28766W        W44840  16.328   5.765   2.213  0.2651 -0.0768 -0.0354
28767W        W44841  16.578   3.600  11.477  0.2308 -0.1031 -0.0871
28768W        W44842   4.609   4.435  10.987 -0.1091 -0.5072  0.3845
28769W        W44843   0.096  16.213   9.433 -0.4016 -0.4139 -0.1190
28770W        W44844  18.120   6.602   2.481 -0.1865  0.0250  0.1553
28771W        W44845  10.459  11.053   0.117 -0.0244 -0.0879  0.1117
28772W        W44846   6.468  13.208   2.466  0.3663  0.2947  0.1642
28773W        W44847   7.377  10.471   4.105 -0.0636  0.0989  0.1853
28774W        W44848  14.575  15.235  11.985 -0.0331  0.2063  0.2359
28775W        W44849  19.226  13.158   2.048  0.2506  0.2858  0.1060
28776W        W44850   6.231  19.140   1.225  0.1823 -0.1055 -0.0490
28777W        W44851  12.251  19.057   1.591  0.0381 -0.0953 -0.0962
28778W        W44852   9.433   7.591  14.286  0.0852 -0.0833 -0.2337
28779W        W44853  16.659  11.833  13.856 -0.1712  0.2695  0.0879
28780W        W44854   3.567   8.606   4.552  0.0191  0.3246 -0.0414
28781W        W44855   2.675  14.320   2.938 -0.1265  0.3289 -0.1988
28782W        W44856  16.608   7.281  12.930  0.1597 -0.0811  0.0948
28783W        W44857   9.659  18.531   9.251 -0.0642  0.2093 -0.1888
28784W        W44858   0.343   9.473   1.908 -0.1559 -0.0133  0.1431
28785W        W44859   2.498   2.849  14.168  0.2040  0.0203  0.2989
28786W        W44860  13.347   6.576  11.553  0.3046  0.1934  0.1686
28787W        W44861  11.494   4.737  13.938  0.4169  0.0300  0.0271
28788W        W44862  18.467   0.576   3.105 -0.0891  0.0615  0.2715
28789W        W44863  14.966   0.032  12.071 -0.2110  0.0239  0.0197
28790W        W44864  13.838  10.160   3.764  0.0054  0.1760  0.1132
28791W        W44865   5.332  17.342   5.090  0.0577 -0.2162  0.0229
28792W        W44866  10.731   8.570   3.568 -0.3001  0.0821  0.0433
28793W        W44867   6.607  14.164   1.993  0.0047 -0.1191  0.0869
28794W        W44868  10.500  10.715   4.952  0.1397 -0.0836 -0.1333
28795W        W44869  11.082  10.226   3.816 -0.0284 -0.1834  0.0052
28796W        W44870   2.690  17.357   2.572  0.0201  0.0012 -0.0865
28797W        W44871  13.353   9.134   0.882 -0.1064  0.0219 -0.0259
28798W        W44872   3.438   7.492  13.797 -0.2045  0.0133 -0.1018
28799W        W44873  17.848   1.484   1.508 -0.3343 -0.2606 -0.5530
28800W        W44874  12.110   9.835   0.263  0.4670 -0.1671 -0.3466
28801W        W44875   8.351   7.041  12.365  0.4151 -0.1739 -0.1045
28802W        W44876   1.983  12.965   1.342 -0.2869  0.0604 -0.3239
28803W        W44877   4.724   7.672  12.892  0.2763  0.1108  0.2446
28804W        W44878   0.966  16.270  13.786 -0.2075  0.0683  0.1240
28805W        W44879   0.227  16.856  13.453 -0.1281 -0.1411  0.1785
28806W        W44880   5.175  15.993   4.728 -0.4280 -0.1568  0.0843
28807W        W44881   9.357   1.211   1.253 -0.4434  0.1071 -0.0761
28808W        W44882  10.447  18.165  10.891 -0.0570 -0.3039  0.3537
28809W        W44883  18.829  15.498  11.251 -0.0283 -0.3210  0.0173
28810W        W44884   1.579  11.485  14.061  0.1567 -0.1349  0.1626
28811W        W44885  14.799   9.035   0.240  0.0099 -0.0354  0.0310
28812W        W44886  12.032  17.139   3.156 -0.1583 -0.1201 -0.1746
28813W        W44887  15.936  18.695   1.601  0.2164  0.1165  0.0237
28814W        W44888   3.704   6.333  13.531  0.3236 -0.1949 -0.0193
28815W        W44889   4.850  11.074   2.718 -0.0328 -0.0246  0.4229
28816W        W44890  18.442   1.735  11.130  0.0546 -0.0504 -0.0578
28817W        W44891   4.539  14.374  14.115 -0.2110  0.1268  0.0946
28818W        W44892  14.434   3.875   4.187 -0.1008  0.1772 -0.1445
28819W        W44893  11.451   3.755   1.785 -0.1300 -0.0018 -0.3181
28820W        W44894   3.639  17.766   2.859  0.2845  0.0475  0.0939
28821W        W44895  15.063  18.949  10.237 -0.2824 -0.1930 -0.1469
28822W        W44896  18.178   0.927   0.920  0.0287  0.0074 -0.2907
28823W        W44897   5.991  17.468   3.238 -0.0974  0.0761 -0.3654
28824W        W44898   6.059   5.116  12.796 -0.1160 -0.0239 -0.0775
28825W        W44899  17.101  10.735   0.543  0.2057 -0.1052 -0.2285
28826W        W44900  10.030   5.014  14.340 -0.2044 -0.1558 -0.0664
28827W        W44901  17.165   6.934  13.590 -0.0996 -0.2303  0.1391
28828W        W44902   5.875   8.718   4.960  0.1915  0.1198  0.1917
28829W        W44903  16.436  10.043  10.619  0.1310  0.0701  0.1423
28830W        W44904   8.587  16.676  13.384 -0.0478 -0.2336 -0.1945
28831W        W44905   2.854  18.676   0.770 -0.1159 -0.2167 -0.1698
28832W        W44906  10.339  19.092   2.774 -0.0606  0.0564 -0.1479
28833W        W44907  18.553  12.359  14.083  0.2387 -0.1676 -0.2678
28834W        W44908   3.693  12.345   1.003  0.0995 -0.0166 -0.0884
28835W        W44909  12.812  12.362   3.708 -0.3346 -0.2143  0.2145
28836W        W44910   6.165   2.798  13.522  0.1378  0.0249 -0.0710
28837W        W44911   5.627   1.368   5.368 -0.0863 -0.0327 -0.0367
28838W        W44912  12.944  13.593   4.335  0.2187  0.0422  0.0367
28839W        W44913   3.514   0.665   1.490  0.3173  0.0403  0.1282
28840W        W44914   2.503   0.208   3.569  0.3251 -0.0069 -0.1311
28841W        W44915   8.495   2.092   2.139  0.4229  0.3918  0.1940
28842W        W44916   2.443   6.240  11.764  0.0812  0.0050  0.0859
28843W        W44917   7.275  10.874  11.623 -0.1624  0.0584 -0.1571
28844W        W44918   6.502  12.961  14.468  0.1654  0.0650  0.1234
28845W        W44919   1.477   7.273  12.785  0.1065 -0.2495 -0.2018
28846W        W44920  15.882   3.604  12.751  0.4094  0.0841 -0.0268
28847W        W44921   1.158   0.430   4.129  0.0818 -0.1696  0.1644
28848W        W44922   8.295   1.307  12.037 -0.4275 -0.1438 -0.0188
28849W        W44923   4.829   8.044  13.242  0.0252 -0.0223 -0.2062
28850W        W44924   7.066   4.373  14.922  0.1782 -0.0807 -0.1939
28851W        W44925  17.711   0.667   4.323  0.0209  0.3496 -0.2631
28852W        W44926   4.559  11.346  11.686 -0.0923  0.0902 -0.0629
28853W        W44927  10.626  17.693   4.775  0.0215  0.1862 -0.0932
28854W        W44928   8.873  12.031  11.076 -0.2535 -0.0743 -0.0974
28855W        W44929   8.282   0.125  12.655  0.1886  0.4990  0.4302
28856W        W44930  13.321  14.387  14.827 -0.0526  0.0114 -0.3704
28857W        W44931   4.149  13.164   0.803 -0.4464  0.2991 -0.3277
28858W        W44932   7.387  18.818   3.642  0.1292 -0.2361 -0.1429
28859W        W44933  17.230   8.393  11.099  0.1407 -0.1824 -0.1077
28860W        W44934  14.420   7.055   0.516 -0.0940  0.0981  0.1598
28861W        W44935   1.615  12.974   4.185 -0.1606 -0.4358  0.1140
28862W        W44936   4.055  11.002  11.540  0.3272  0.4742  0.1716
28863W        W44937   8.364   3.557  10.669 -0.2856 -0.2211  0.0503
28864W        W44938   8.310  16.808   0.488  0.0790 -0.3520 -0.0282
28865W        W44939  15.133  12.110  14.590  0.0420  0.1289 -0.1354
28866W        W44940  18.408  18.651   4.289  0.1114 -0.3124 -0.3297
28867W        W44941   6.776   1.449   5.313 -0.1237  0.2829 -0.1148
28868W        W44942   7.193   7.518   3.680 -0.3037  0.3085  0.0309
28869W        W44943   1.867   4.528  10.960 -0.1699 -0.0893 -0.1302
28870W        W44944  16.296  13.818  12.500 -0.0393 -0.1095  0.0439
28871W        W44945   0.622  17.917  14.692 -0.1080  0.0387  0.2393
28872W        W44946  12.003   4.250   0.026 -0.1487 -0.0625  0.1050
28873W        W44947  10.223   0.883  13.417 -0.1581  0.0989  0.3443
28874W        W44948   9.793  17.856   2.829  0.0862 -0.2685 -0.1017
28875W        W44949  17.888  17.262   2.602 -0.3059  0.0684 -0.0340
28876W        W44950   6.215  16.495  12.103 -0.1564 -0.0808  0.0259
28877W        W44951   1.594   3.611   4.848  0.1485 -0.0554 -0.5673
28878W        W44952  12.251  11.059   0.845  0.0204 -0.0423  0.0696
28879W        W44953  12.283  10.749  10.554  0.1564 -0.0460  0.0782
28880W        W44954  10.370  15.684   2.360 -0.1005 -0.5813  0.1266
28881W        W44955   1.411  15.560   4.180  0.0518  0.1144 -0.0111
28882W        W44956   2.197   3.464   4.138  0.1298 -0.2305  0.0075
28883W        W44957  17.482   6.562   2.037  0.3797  0.1153 -0.0012
28884W        W44958   2.938   5.092  11.680  0.2014  0.2507 -0.0089
28885W        W44959   8.398  10.436   4.966 -0.1463  0.0274 -0.0240
28886W        W44960  12.070  16.553   2.254  0.0633  0.0466 -0.2492
28887W        W44961  18.695  13.790   3.027  0.1520  0.2079  0.1481
28888W        W44962  15.571  14.438  12.508  0.2781 -0.0387 -0.1509
28889W        W44963   3.969   8.794   4.906  0.1121  0.0047 -0.0618
28890W        W44964  16.741   6.484  10.728  0.1584 -0.0006 -0.1661
28891W        W44965  14.141   2.444   3.788 -0.1081 -0.0067 -0.1597
28892W        W44966   6.587  14.931  12.150  0.2504  0.2385  0.1151
28893W        W44967  15.976  16.294   3.344  0.0843 -0.0115 -0.0417
28894W        W44968   5.779  11.764  13.908  0.4144 -0.2053 -0.4090
28895W        W44969   9.409   6.363   6.113 -0.1747 -0.2042  0.5896
28896W        W44970  11.119   2.602  10.861 -0.0625  0.1511 -0.1913
28897W        W44971   2.819   5.035   4.473 -0.2538  0.0857 -0.0307
28898W        W44972  18.703  10.913  13.466 -0.0868 -0.2535  0.1949
28899W        W44973  11.728   0.086   1.276  0.0829  0.3487  0.1652
28900W        W44974  14.038   6.988   2.918  0.0790  0.2157 -0.0725
28901W        W44975   0.111  18.658  14.016 -0.0004 -0.0867  0.1274
28902W        W44976  17.592   4.857   4.245 -0.0702 -0.0094  0.2635
28903W        W44977   9.944  15.790   2.667 -0.0499  0.0437  0.0995
28904W        W44978  13.887   0.258   0.499  0.0492  0.3370 -0.0652
28905W        W44979   9.867   0.688   4.208 -0.3810 -0.0558  0.1567
28906W        W44980   7.895  11.261   0.441  0.0554 -0.4723  0.1762
28907W        W44981  18.087   6.112   2.661 -0.4346 -0.3560  0.2169
28908W        W44982  14.450  10.799  12.555  0.1289 -0.1011 -0.1667
28909W        W44983   4.780   9.158   3.868  0.0130  0.0264  0.0522
28910W        W44984   5.273  10.295   3.860  0.0288  0.1096 -0.1039
28911W        W44985  10.072  14.168  12.212 -0.2864  0.1278  0.3344
28912W        W44986   6.781  11.640   5.226 -0.1786  0.1913 -0.2205
28913W        W44987  15.245   9.633   2.320 -0.2639 -0.1441 -0.1883
28914W        W44988   7.755   5.537  14.758 -0.1819  0.0205 -0.2246
28915W        W44989  11.239   8.733  13.450 -0.0785 -0.3333 -0.4274
28916W        W44990   0.520  18.913  14.950  0.2397 -0.1538  0.1241
28917W        W44991   1.838  17.682   4.353  0.0017  0.0231 -0.2791
28918W        W44992  12.932  11.338  10.823 -0.1333 -0.2370  0.1849
28919W        W44993  14.867  18.459   3.226 -0.3712 -0.0440  0.1070
28920W        W44994  15.720  11.410   2.404 -0.2151  0.1121  0.1573
28921W        W44995   9.092   7.800   0.461  0.1718 -0.0309  0.0408
28922W        W44996  10.218  17.613   5.080 -0.3638  0.4996 -0.1520
28923W        W44997  18.935   3.905   3.297  0.0163  0.1584  0.0918
28924W        W44998  17.296   4.064   3.839 -0.1149  0.1213  0.3116
28925W        W44999  15.830  10.931  12.494  0.1470  0.0783 -0.0430
28926W        W45000   2.399  12.115   0.170  0.1416  0.2909  0.0906
28927W        W45001   1.849   1.922   1.459 -0.4098  0.5298 -0.2137
28928W        W45002  17.932  17.399  14.218  0.1481 -0.0108 -0.1891
28929W        W45003   0.181   0.563  10.654  0.2314  0.2363  0.0904
28930W        W45004  13.657  14.427   0.207  0.0632 -0.3706  0.2832
28931W        W45005   6.507   0.343   0.169  0.1291  0.0664 -0.1369
28932W        W45006  14.107  16.293  13.353 -0.2192 -0.1875  0.0658
28933W        W45007   9.368  13.411   2.508  0.0663  0.2060 -0.1452
28934W        W45008  13.297   3.305   3.204  0.3284  0.0678 -0.1185
28935W        W45009   4.460  12.825  11.894  0.1414 -0.2673  0.2053
28936W        W45010   8.447  13.346   2.556 -0.0547  0.1350  0.1228
28937W        W45011   4.955  19.194  12.076  0.1137  0.0201 -0.1502
28938W        W45012   1.350  14.439   0.134 -0.0415 -0.0270  0.1798
28939W        W45013   6.459  11.865   2.445  0.0060 -0.1930  0.1252
28940W        W45014  12.937   3.405   5.910  0.2149  0.1507  0.0509
28941W        W45015  14.803   9.672  12.155 -0.1670  0.0080 -0.0576
28942W        W45016   6.301   7.159  11.139 -0.0369  0.0223 -0.0293
28943W        W45017  11.980  15.853  10.660  0.2963 -0.1280 -0.3073
28944W        W45018   1.348  17.317  12.301  0.1216 -0.1642  0.0981
28945W        W45019   2.594  16.608   0.522 -0.0217 -0.2138 -0.3636
28946W        W45020   5.485  18.089   2.170 -0.1745 -0.1781 -0.2043
28947W        W45021   3.489   4.874   0.718  0.2308  0.3591  0.2092
28948W        W45022   8.353  10.458  14.510  0.2009 -0.0095 -0.2971
28949W        W45023  16.345  15.333   0.610  0.0366 -0.3125  0.0754
28950W        W45024   6.143   8.759   2.273 -0.3614  0.2280 -0.4488
28951W        W45025   3.449  10.601  10.426  0.1496 -0.0513 -0.0861
28952W        W45026   3.976  17.303   1.174  0.0225  0.0116  0.0236
28953W        W45027  16.707  14.342   9.641 -0.3416 -0.1588 -0.1113
28954W        W45028  16.058   4.498   2.574  0.2469 -0.0853  0.0408
28955W        W45029  11.022   4.052  14.527  0.1436 -0.2856  0.1514
28956W        W45030  14.287  11.759  12.532  0.0725  0.2556  0.0821
28957W        W45031   9.046  10.137   4.412  0.2284 -0.1255 -0.0713
28958W        W45032   2.428   4.047   0.246 -0.1076  0.2653  0.2458
28959W        W45033   0.168   1.317   3.473 -0.1992 -0.3945 -0.0952
28960W        W45034  13.557   6.818   5.318  0.0986 -0.0238  0.3000
28961W        W45035   6.184   7.917   4.661  0.0605  0.3274 -0.0347
28962W        W45036   4.998   9.380  13.544 -0.0303  0.1180 -0.3030
28963W        W45037   0.808   3.061  13.112 -0.2335  0.1442 -0.0158
28964W        W45038   0.194  19.015  10.410 -0.0201  0.0943 -0.0592
28965W        W45039  10.797  18.494   3.588 -0.0852 -0.2495  0.0145
28966W        W45040  10.385  17.712   5.602 -0.1032  0.0069 -0.0655
28967W        W45041  11.839   1.735   0.077 -0.2145 -0.0952 -0.0137
28968W        W45042  13.470   6.154   4.854  0.1750 -0.2210 -0.0012
28969W        W45043   7.607   5.834   3.143 -0.2077 -0.3928 -0.1748
28970W        W45044  16.674  17.825   9.667  0.1266 -0.0524  0.0951
28971W        W45045  16.578   9.326  13.331  0.1005  0.0374 -0.0310
28972W        W45046  13.766  13.074  10.330  0.0136 -0.1660  0.2362
28973W        W45047  12.643   4.133  12.660 -0.5152 -0.3152 -0.1926
28974W        W45048   9.670   7.570  14.929  0.0169 -0.0145 -0.2394
28975W        W45049   2.643   1.467   2.430 -0.0872 -0.1255  0.2620
28976W        W45050   1.161   8.689   0.937  0.1810 -0.0247  0.3097
28977W        W45051  12.793   9.323   1.164 -0.0756  0.3799  0.1609
28978W        W45052   5.648   7.387   1.390  0.0618 -0.2295  0.0466
28979W        W45053  12.478   1.804   4.761 -0.1092 -0.1475 -0.0623
28980W        W45054  12.050  13.042  12.012  0.1228  0.1598  0.0388
28981W        W45055  13.742  10.095  12.360 -0.0502 -0.0396 -0.4998
28982W        W45056  19.048   6.277   1.238  0.1870 -0.0446  0.0674
28983W        W45057  16.145  14.949   3.960  0.1348 -0.2369  0.2402
28984W        W45058  14.396  13.516  13.243  0.1074  0.1275 -0.0278
28985W        W45059  12.528  15.366   3.949  0.2632  0.2345  0.0059
28986W        W45060  16.859   2.751   1.379  0.0347  0.1195  0.0728
28987W        W45061  12.097   3.857   5.174 -0.0554  0.3285 -0.0782
28988W        W45062   0.865  12.269   4.905  0.2389 -0.1295 -0.2742
28989W        W45063  18.641   7.928  14.879 -0.3679  0.1729  0.2076
28990W        W45064  18.688   9.375   0.466  0.3790 -0.1391  0.4459
28991W        W45065   9.355   2.163  15.053 -0.0813  0.1428  0.2304
28992W        W45066   5.548  14.923   1.408 -0.0671 -0.1096  0.0071
28993W        W45067   3.035   2.002  14.306 -0.1806 -0.2660  0.3726
28994W        W45068   2.994   2.640  11.430  0.1624  0.0565  0.1753
28995W        W45069  10.447   5.697  11.769  0.0174 -0.2561 -0.3677
28996W        W45070  10.119   1.751  13.981  0.4224 -0.0033  0.6323
28997W        W45071  10.865   5.651  12.569  0.3636 -0.2232 -0.2224
28998W        W45072   1.238   5.642   3.228 -0.0175 -0.0145  0.1323
28999W        W45073   4.110   3.302   5.416  0.1399  0.1268  0.3704
29000W        W45074   7.983  13.304  10.748 -0.1971 -0.0157  0.1124
29001W        W45075  14.429   5.921  13.213 -0.1580  0.1828 -0.2105
29002W        W45076  11.861  13.066  13.367  0.1413 -0.4060 -0.0117
29003W        W45077  11.678  14.006  14.795  0.3076 -0.1711 -0.3489
29004W        W45078   7.399  11.832  13.462  0.0182 -0.1678 -0.0162
29005W        W45079  10.714  14.199  10.026  0.0559  0.1825  0.2286
29006W        W45080  17.804   8.938   1.857  0.0540  0.0414  0.0624
29007W        W45081   4.238   4.729   4.567  0.2509 -0.2996  0.2639
29008W        W45082   7.897  15.274   0.457 -0.0326  0.2099 -0.2751
29009W        W45083  12.517  11.634   3.020 -0.2140  0.0377 -0.1673
29010W        W45084   0.183  16.865  11.180  0.1988 -0.2014  0.0998
29011W        W45085  10.359   9.000   3.739 -0.1843 -0.0537  0.2746
29012W        W45086   9.737  10.711   0.723  0.0363  0.0104 -0.1746
29013W        W45087   3.491  16.489   3.301  0.2131 -0.1745 -0.3675
29014W        W45088   5.109  17.939  12.104 -0.2826  0.0733  0.3841
29015W        W45089   0.993   4.428  14.730  0.1525  0.3755 -0.2470
29016W        W45090  14.777   9.088  13.360  0.0501  0.2297  0.0206
29017W        W45091   5.772  13.214  13.194  0.1024  0.1094  0.0603
29018W        W45092  13.196  11.638   3.297  0.0843 -0.1373 -0.0934
29019W        W45093   7.620  10.361  11.430  0.1500  0.0888  0.0379
29020W        W45094  18.688  18.496   3.875 -0.1737 -0.0262 -0.1607
29021W        W45095   9.938  10.276  12.209  0.0167 -0.1186 -0.0405
29022W        W45096   3.541   8.702  11.615 -0.1369  0.1339  0.1405
29023W        W45097   6.885   5.894   0.437  0.4552  0.2563  0.0380
29024W        W45098   3.846  19.208   9.717 -0.0860 -0.0745  0.0941
29025W        W45099   0.179  14.019   1.642  0.1806  0.2327  0.4198
29026W        W45100   2.739  18.677  14.892 -0.2221  0.1970 -0.1686
29027W        W45101   8.682  14.363   4.709  0.0266 -0.2453 -0.0230
29028W        W45102  12.400  12.890  12.588  0.0624  0.0739 -0.1224
29029W        W45103  13.956  11.828  11.581 -0.1339  0.2346  0.0707
29030W        W45104   9.734   8.013  14.683  0.1898  0.0193  0.2377
29031W        W45105   4.766  14.264  14.576  0.0025  0.1695 -0.0002
29032W        W45106   2.524  12.255  14.087  0.5000  0.0495 -0.1818
29033W        W45107  18.626   6.602  11.052  0.0041  0.4000  0.4104
29034W        W45108   8.062  17.581   1.634  0.0450 -0.1234  0.0286
29035W        W45109  17.262  15.360   0.634  0.1745  0.0347 -0.0303
29036W        W45110  12.166  12.394   4.427  0.2444 -0.2457 -0.0545
29037W        W45111   7.355  12.510  11.810 -0.2077 -0.0870 -0.1137
29038W        W45112  14.346   5.622   4.388 -0.0192 -0.1030 -0.0629
29039W        W45113   8.346  17.656  11.805  0.0608 -0.1086 -0.6642
29040W        W45114   4.329  16.973  12.200  0.0081 -0.0290 -0.0645
29041W        W45115   5.263   3.544   4.453 -0.0682  0.0041 -0.1574
29042W        W45116  10.270   5.083   1.727 -0.0819 -0.0338  0.3988
29043W        W45117  11.146   1.293  11.653 -0.0221  0.3857 -0.0717
29044W        W45118  15.956  17.973  14.428 -0.2276 -0.0624  0.0676
29045W        W45119   8.895  15.785  12.604 -0.2104  0.2724 -0.0814
29046W        W45120   4.878  10.198   2.621  0.0384 -0.4090  0.2142
29047W        W45121  14.642   3.766  13.863  0.0438  0.1719 -0.0423
29048W        W45122  18.821   2.974  11.510 -0.0052 -0.1321  0.0645
29049W        W45123  19.113   7.335  14.663  0.0364  0.2644  0.0520
29050W        W45124  14.916   1.885  14.545 -0.1313  0.0217 -0.0227
29051W        W45125   6.224   9.639  13.091  0.2144 -0.3676  0.3529
29052W        W45126  12.276   3.226  13.122 -0.0980  0.0333  0.2711
29053W        W45127   8.445  18.047  12.154  0.0218  0.1216  0.4189
29054W        W45128   5.591   6.001   3.586  0.2706 -0.3654  0.0894
29055W        W45129  10.123   8.997  10.745  0.0720 -0.2722 -0.0077
29056W        W45130  13.041   7.321  12.786  0.0028 -0.2957  0.1653
29057W        W45131  14.867  17.773   1.456  0.3700 -0.0488  0.3982
29058W        W45132   6.164  11.350   2.555  0.2427  0.0156  0.3599
29059W        W45133   7.918   6.367  11.080  0.2256  0.5006  0.2719
29060W        W45134   3.248  10.664  14.586  0.2120 -0.0355 -0.1940
29061W        W45135   3.482   2.805   3.821  0.4521  0.1381 -0.0734
29062W        W45136  10.293   4.436  14.247  0.1024 -0.0625 -0.1595
29063W        W45137  19.213  10.033   1.297  0.1169  0.0229 -0.0342
29064W        W45138  18.592   2.282   2.105 -0.1677  0.0378 -0.1490
29065W        W45139   3.158  15.848   1.108  0.1768 -0.2613  0.0769
29066W        W45140   9.035   8.742   0.684  0.3550 -0.1355  0.3172
29067W        W45141   2.519  10.151  13.223 -0.3574 -0.0650  0.0816
29068W        W45142  15.771  13.107  13.759 -0.0827 -0.0717 -0.0259
29069W        W45143   1.012   0.117  11.335  0.3389  0.4016  0.0975
29070W        W45144   2.331  10.135  12.696  0.1002 -0.0848  0.1261
29071W        W45145  13.428  14.767  14.465 -0.0612 -0.1062  0.4015
29072W        W45146   3.122  15.585   0.650  0.0830 -0.1213 -0.1298
29073W        W45147  14.094  16.011   4.866  0.3727 -0.1622 -0.1283
29074W        W45148   9.749   9.537   5.859  0.1294 -0.2410 -0.6605
29075W        W45149   8.122   5.125   3.718 -0.1576 -0.0599 -0.4110
29076W        W45150   9.082   7.306   0.653  0.4902  0.2344  0.1689
29077W        W45151  11.142  17.158   1.521  0.0814 -0.0298 -0.1983
29078W        W45152   3.632   4.488   4.100 -0.2593  0.2607  0.1351
29079W        W45153   4.779   0.494   3.345 -0.5826  0.2018 -0.0498
29080W        W45154   0.936   8.521  14.055  0.0852  0.0246  0.1521
29081W        W45155   9.843  10.415  13.143 -0.1893 -0.1815  0.0666
29082W        W45156   1.025   1.720   1.911 -0.2467 -0.1903  0.0073
29083W        W45157  10.217  10.905   1.998 -0.2811  0.2839 -0.1100
29084W        W45158   3.174  11.244   1.262  0.0210 -0.3401  0.1607
29085W        W45159   0.031  17.525  11.682 -0.0343 -0.0044 -0.0096
29086W        W45160  13.727   6.331   5.246 -0.0413 -0.1751  0.0463
29087W        W45161  11.453  11.059  14.255  0.3702  0.2372  0.0973
29088W        W45162   0.880   2.454   0.247 -0.0454 -0.0582 -0.1709
29089W        W45163   4.299  17.795   5.652  0.1466 -0.2628  0.0677
29090W        W45164   1.722  18.007  14.224 -0.4163  0.0797  0.1221
29091W        W45165  11.000  14.909   2.629 -0.2793 -0.1158 -0.2994
29092W        W45166   2.825  16.007  10.707  0.1435 -0.0322 -0.0161
29093W        W45167  11.963  19.255  12.256  0.0445  0.2639  0.0530
29094W        W45168  17.668  14.488   1.059  0.0611  0.2706 -0.3701
29095W        W45169   0.369   9.255   4.343 -0.0261  0.0033 -0.6182
29096W        W45170   4.881   2.059   1.285 -0.0753  0.1045 -0.2773
29097W        W45171  17.470   9.722  10.311  0.0136 -0.0622  0.1336
29098W        W45172  12.512   6.288   1.526  0.1293  0.0879 -0.1001
29099W        W45173  16.140  12.565   2.484 -0.2994  0.0718  0.1056
29100W        W45174   1.728  16.382   1.224  0.1252 -0.2915  0.2109
29101W        W45175  15.718   2.735   5.449  0.0816  0.1680 -0.0320
29102W        W45176  16.994  19.038   3.971  0.2263 -0.1084 -0.3074
29103W        W45177   1.453   8.816   1.459  0.0995  0.1026  0.1105
29104W        W45178  13.757  13.657   3.920 -0.3191  0.1340  0.2091
29105W        W45179  11.879   3.592  14.986  0.0215 -0.2371  0.1470
29106W        W45180   9.121  14.757   3.246  0.0772  0.2391  0.0839
29107W        W45181   6.586  13.925  13.823 -0.1480 -0.0373  0.0009
29108W        W45182   1.564   6.628   1.815 -0.0306  0.2537 -0.1144
29109W        W45183  10.333  12.158   4.362 -0.1200 -0.1165 -0.0114
29110W        W45184  17.405  11.955  10.943  0.1574  0.0340 -0.2695
29111W        W45185  13.304   1.388  13.746  0.1550  0.0772  0.1796
29112W        W45186  11.798   9.738   3.566 -0.1652  0.4266  0.1226
29113W        W45187  14.555  12.213   0.885  0.0567 -0.1095  0.3921
29114W        W45188   0.835  18.169  10.428 -0.1823 -0.3126  0.1024
29115W        W45189   9.305  13.154   4.483  0.1362 -0.2277  0.1287
29116W        W45190  13.452  10.381  13.645  0.2176 -0.0080 -0.1682
29117W        W45191   0.713   3.485   1.263 -0.0800  0.1823 -0.3107
29118W        W45192   7.947  12.729  13.591 -0.1916  0.2142  0.0092
29119W        W45193  14.242   3.114  13.358  0.0139  0.0096 -0.1970
29120W        W45194   8.559   1.215  13.524 -0.0568  0.1288 -0.0406
29121W        W45195  18.648   9.750   4.527 -0.0785  0.0279 -0.0542
29122W        W45196  15.311   3.444  10.961  0.0441 -0.1054  0.1605
29123W        W45197   9.060   3.949  10.824  0.0356 -0.5088 -0.0649
29124W        W45198  15.309  14.745  11.849 -0.0471  0.1016 -0.1617
29125W        W45199   7.621  11.476   5.456 -0.1624  0.2112  0.4047
29126W        W45200   0.988  14.924  14.877 -0.1003 -0.2142  0.1585
29127W        W45201  12.741  13.815   0.808 -0.0940  0.2735 -0.1179
29128W        W45202   8.081   1.894  12.918  0.2037  0.3013 -0.1652
29129W        W45203  15.461  17.598   3.230  0.2722 -0.1203  0.2756
29130W        W45204  16.371  15.374  10.338 -0.0408  0.2129 -0.3845
29131W        W45205  13.318  15.210   4.059  0.1402 -0.1254 -0.3111
29132W        W45206   0.313   4.902  14.166 -0.0625  0.0204  0.2542
29133W        W45207  15.077  17.120   1.820 -0.2756 -0.1654 -0.0195
29134W        W45208  14.030  18.028  10.269 -0.1479 -0.2344 -0.0152
29135W        W45209   4.876  11.752  11.076  0.2951  0.1051  0.1396
29136W        W45210  17.940   6.847   1.845 -0.0102  0.2937  0.1007
29137W        W45211   9.907  18.859  13.392 -0.1264  0.2878 -0.0980
29138W        W45212  12.704  12.065   3.312  0.0166  0.0958  0.0268
29139W        W45213   7.001  13.358  12.626 -0.1941 -0.0256  0.0123
29140W        W45214  10.265  10.327   3.659 -0.0667  0.1890 -0.1400
29141W        W45215   3.533   0.333   5.198 -0.3045  0.2369 -0.3505
29142W        W45216  14.129  18.505   1.332  0.1250 -0.0052 -0.2589
29143W        W45217  14.807  16.921  14.619 -0.2352 -0.0086 -0.1125
29144W        W45218  15.615   7.565   3.028 -0.0087 -0.0019 -0.1823
29145W        W45219   6.990   7.167  11.357  0.1356  0.0185  0.3304
29146W        W45220  16.538   9.672   3.458 -0.0420  0.2369 -0.1047
29147W        W45221   9.879   1.119   1.481  0.2865 -0.1340  0.1624
29148W        W45222  12.938  13.211  11.043 -0.1153 -0.3557  0.1402
29149W        W45223  13.683   1.681  15.013 -0.1252  0.0122 -0.0320
29150W        W45224  15.152   1.672  13.529 -0.0071  0.1177  0.2006
29151W        W45225   3.625  16.155  14.908  0.2800  0.1199  0.4389
29152W        W45226  16.533  12.209   9.952  0.3475 -0.0731  0.0669
29153W        W45227  14.641  18.399   3.683  0.2219 -0.4147 -0.1525
29154W        W45228  11.676  14.947   4.265  0.2233 -0.0691 -0.1951
29155W        W45229   4.828   9.535   1.975  0.0210  0.1222  0.0307
29156W        W45230   4.514   4.044   3.908  0.1259  0.0440  0.0658
29157W        W45231   0.800  10.593   0.987  0.3589  0.2103 -0.2739
29158W        W45232   4.419   4.041  12.703  0.1676  0.2184  0.1187
29159W        W45233   2.765  10.218   3.411  0.0064 -0.1765 -0.2572
29160W        W45234  18.520   4.244   0.426 -0.2975 -0.1057  0.0408
29161W        W45235  14.103  16.813   4.158 -0.0372 -0.1587 -0.2611
29162W        W45236   0.951   6.860   1.763 -0.1167  0.4905 -0.3722
29163W        W45237  17.887  10.582   5.133  0.0721 -0.1621  0.0739
29164W        W45238   3.729   2.914   3.179  0.0579 -0.0115  0.0664
29165W        W45239   0.716   8.801   0.266  0.1573  0.1686  0.2187
29166W        W45240   8.966   4.154   0.793  0.0754  0.2971 -0.0530
29167W        W45241   4.964   5.073   6.016  0.0499 -0.0010 -0.0132
29168W        W45242  11.522  11.851   3.256 -0.1759 -0.1009 -0.1138
29169W        W45243  17.390   0.412  14.683 -0.0499  0.4031  0.2572
29170W        W45244   0.216  18.682  10.754 -0.2647  0.3458 -0.0829
29171W        W45245  19.256  16.689   0.612 -0.2438 -0.0384  0.0473
29172W        W45246   1.294   3.822  13.213 -0.2456 -0.1156  0.2142
29173W        W45247   9.852   7.482  11.056  0.0065  0.1229  0.0008
29174W        W45248   0.519   7.176   4.643  0.1664  0.0989 -0.1925
29175W        W45249  13.540   3.703  12.018 -0.0146  0.0830  0.1065
29176W        W45250  17.187   7.592   2.317 -0.0267  0.1100  0.1912
29177W        W45251   6.402   8.478   5.807 -0.2472  0.1414 -0.0963
29178W        W45252  17.714   0.054  12.235 -0.2865  0.0673  0.1256
29179W        W45253   4.615  13.017   0.240  0.1073 -0.1385 -0.1051
29180W        W45254   5.144  12.514  11.628  0.0767 -0.2041 -0.0371
29181W        W45255  12.944   1.599   4.632 -0.0737 -0.0556  0.3781
29182W        W45256  16.956   1.431   1.136 -0.0544  0.2219  0.2693
29183W        W45257  14.027   4.833   2.376 -0.2559  0.3020  0.4226
29184W        W45258  13.265  18.981  14.320 -0.3739  0.0017 -0.1047
29185W        W45259   1.944  17.381  11.177  0.2043  0.1200  0.2234
29186W        W45260   3.245  13.863   5.212 -0.0656  0.1177  0.0603
29187W        W45261  10.709   5.380  15.053  0.3382 -0.1731 -0.0522
29188W        W45262   1.537   4.572  13.524 -0.0659  0.2821  0.0321
29189W        W45263  17.744  13.664  11.579 -0.2179 -0.0847 -0.1592
29190W        W45264  12.550  10.532   0.507 -0.0426 -0.2930 -0.2756
29191W        W45265  13.902  15.329  12.395  0.1932  0.0746  0.0871
29192W        W45266  10.837   6.125   1.038  0.0954 -0.1194 -0.3674
29193W        W45267  18.529   0.601  11.842 -0.4183  0.1300 -0.3616
29194W        W45268   4.248  18.931  13.386 -0.2617 -0.1115  0.1006
29195W        W45269  17.656  11.600   2.744  0.1983  0.2551  0.2894
29196W        W45270   5.856   3.992   2.740 -0.2128 -0.1639  0.0163
29197W        W45271  14.838  13.925   0.055 -0.3271 -0.1209  0.4937
29198W        W45272   5.562  10.835   0.447 -0.0954  0.0931 -0.1507
29199W        W45273   0.234  14.195  12.494 -0.3032  0.1068  0.1468
29200W        W45274  14.558   0.404   1.597  0.0082  0.1135  0.3641
29201W        W45275  16.827   9.818  10.678 -0.1896  0.2080 -0.1863
29202W        W45276  10.678  14.620   2.793 -0.1425  0.1135 -0.0993
29203W        W45277  15.180   4.610  13.341 -0.1470  0.1137 -0.0307
29204W        W45278   0.824   2.046   1.468  0.3929 -0.1319  0.0700
29205W        W45279  17.368  14.179  12.177  0.1520  0.2553 -0.0387
29206W        W45280  10.876   4.174  13.553 -0.2786 -0.1098 -0.6003
29207W        W45281   8.960  11.424  11.788  0.1331  0.2172 -0.0431
29208W        W45282  12.276   5.135   3.119 -0.1914  0.0263  0.1021
29209W        W45283   0.348   2.394  13.620 -0.2195 -0.3610  0.3994
29210W        W45284  12.227   9.428  14.054 -0.1866 -0.2474  0.6302
29211W        W45285  18.387  10.819  12.970  0.0895 -0.0098 -0.0473
29212W        W45286  14.272   3.238   4.236 -0.0821 -0.2199  0.2510
29213W        W45287  12.231   6.934   3.054  0.3982 -0.1783  0.1353
29214W        W45288  15.345  11.019  10.328 -0.1469 -0.1322  0.1596
29215W        W45289  11.850   9.778   2.735 -0.0894  0.0973 -0.0418
29216W        W45290   4.515   4.879   1.930 -0.1391  0.1117 -0.1506
29217W        W45291   3.870   8.298  13.038  0.2638  0.1708 -0.0719
29218W        W45292  19.102  11.645   1.448  0.2065 -0.5365 -0.1469
29219W        W45293  17.389  13.716   1.692 -0.0619  0.1333 -0.2034
29220W        W45294  14.326  13.177  11.812  0.0895  0.1577  0.2448
29221W        W45295  15.336  18.914  11.969 -0.2088  0.3752 -0.0183
29222W        W45296   3.532  15.692   3.434  0.3157  0.1162 -0.0008
29223W        W45297  11.752   9.204  11.740  0.0204  0.4451 -0.0116
29224W        W45298  14.949  15.468  12.551  0.1929  0.1248  0.0084
29225W        W45299  13.438   7.006  12.858  0.1953  0.1079  0.1933
29226W        W45300  13.036   7.503   1.970 -0.0294  0.1640 -0.1095
29227W        W45301   9.066   1.337   2.559 -0.0337  0.4102  0.0052
29228W        W45302  14.240   8.038  12.471 -0.3179 -0.1046 -0.0801
29229W        W45303   6.650   0.328   3.613 -0.2781 -0.0679  0.0703
29230W        W45304   4.540   0.643   2.874  0.2098  0.2368 -0.2216
29231W        W45305  13.719   4.568  12.103  0.1679 -0.1338 -0.0095
29232W        W45306  17.703  16.850  13.668 -0.2995  0.1368  0.1778
29233W        W45307  11.856   8.962   0.901  0.2271  0.0520 -0.1121
29234W        W45308  11.800   4.831  11.516  0.2002 -0.1718 -0.1813
29235W        W45309  14.430  15.889  14.171  0.3531  0.3027  0.0810
29236W        W45310   4.819   6.543   4.203  0.1202  0.2418  0.3502
29237W        W45311   5.348  12.108  13.800  0.0599 -0.0011  0.2049
29238W        W45312   0.846  10.541  14.724  0.3032  0.0550 -0.0742
29239W        W45313  18.722   4.917   3.074  0.0787 -0.2625 -0.1781
29240W        W45314  13.828   2.028  14.208 -0.1132 -0.0811  0.0429
29241W        W45315  17.001  13.813   0.223 -0.1715  0.1939 -0.1009
29242W        W45316   8.739   9.923  14.679 -0.0911  0.1914  0.2717
29243W        W45317   5.072   3.866   0.718 -0.0318  0.0446  0.3427
29244W        W45318   4.087   0.379   2.778 -0.4431 -0.0157 -0.4112
29245W        W45319   6.423  13.878  13.325 -0.0588  0.2210  0.2692
29246W        W45320   1.784  18.398   3.698  0.0028  0.0361 -0.2570
29247W        W45321   8.281  17.091   4.460 -0.1869 -0.0567 -0.3476
29248W        W45322   7.332   9.082   1.244 -0.0682  0.1300  0.1206
29249W        W45323   5.795  15.310   0.531 -0.2248 -0.1230 -0.0891
29250W        W45324  14.770  13.004   2.261 -0.0203  0.2969  0.0809
29251W        W45325   8.887  18.882   3.291 -0.1176  0.0876  0.0820
29252W        W45326   8.610   0.491   5.004 -0.0681  0.0866  0.2353
29253W        W45327  12.663  14.776   0.843  0.0453  0.0658  0.1068
29254W        W45328  12.026  12.570  12.566  0.0526 -0.1689  0.0152
29255W        W45329  13.934   3.290   4.618 -0.2992  0.0351 -0.1538
29256W        W45330   3.992   7.708  11.228 -0.0074  0.0987 -0.2173
29257W        W45331  13.701  12.254  11.737 -0.0158  0.2019  0.0447
29258W        W45332  15.629  18.524  11.697  0.2473  0.1585 -0.2479
29259W        W45333  14.092   5.485   4.770 -0.0241 -0.1716  0.0662
29260W        W45334  12.753   2.023  13.415 -0.0242 -0.3126  0.0795
29261W        W45335   5.721  19.122   3.005 -0.1590  0.2420 -0.1192
29262W        W45336  14.287   7.395   3.251  0.0103  0.0358 -0.3145
29263W        W45337   5.944   8.122  12.440 -0.0660 -0.2103  0.0227
29264W        W45338  11.159  13.751  10.868 -0.0061  0.2422  0.0515
29265W        W45339  12.224   3.223   3.925  0.0511  0.1773 -0.2950
29266W        W45340   1.061   1.930   2.729 -0.1695  0.0655  0.3300
29267W        W45341  13.543   0.778   1.869 -0.2475 -0.1845 -0.1934
29268W        W45342   0.188   4.264   4.934  0.0315  0.0204 -0.2911
29269W        W45343   0.097   7.900   1.242 -0.0478  0.0087  0.0835
29270W        W45344   2.153  11.436   2.289  0.1645  0.2064  0.2096
29271W        W45345   5.461   6.626   3.099 -0.3062 -0.0684 -0.2106
29272W        W45346   1.386  13.664   0.661  0.0320  0.4047  0.2414
29273W        W45347  16.221  14.693   2.758 -0.0011  0.0477 -0.0891
29274W        W45348   7.782  14.024   4.616  0.2196 -0.2009  0.0348
29275W        W45349   4.759  10.446   0.158 -0.2492 -0.3143 -0.3035
29276W        W45350  13.452  10.865   2.402 -0.2010 -0.0409  0.1569
29277W        W45351  18.931   0.345   2.890  0.2258  0.0404  0.2044
29278W        W45352  18.135  15.881  14.659  0.0340 -0.4667 -0.1307
29279W        W45353  18.259   2.510   3.376 -0.1495 -0.0361 -0.3563
29280W        W45354   3.205  19.047   0.612  0.2151  0.0760  0.0745
29281W        W45355   4.102   6.028  14.375 -0.2262 -0.0558 -0.1856
29282W        W45356   7.938   5.018  13.962 -0.1579  0.1485 -0.1339
29283W        W45357   9.034   4.029   5.813 -0.3827 -0.1173  0.2250
29284W        W45358   4.065   5.668  12.941  0.3580 -0.1295  0.0714
29285W        W45359   7.620   3.706  15.041  0.3818  0.3023  0.2388
29286W        W45360   3.000  16.632   3.604  0.6211 -0.2212 -0.0981
29287W        W45361  17.181   7.376  10.538 -0.2512  0.0558 -0.0783
29288W        W45362   8.507   3.094   3.167 -0.1538 -0.1890  0.1095
29289W        W45363   7.670  11.327   1.325  0.2072 -0.0686 -0.0086
29290W        W45364  15.549   8.322   0.758  0.2337 -0.2000  0.1365
29291W        W45365  14.291  18.825  13.402  0.4087 -0.0105  0.4544
29292W        W45366  10.029   6.068  10.463 -0.0035  0.0108 -0.0376
29293W        W45367   3.315   8.119  14.916 -0.3784 -0.0348  0.1015
29294W        W45368  14.367   6.251  12.838 -0.0417 -0.0691  0.1650
29295W        W45369   5.947   7.341  10.810  0.0413  0.2567 -0.0933
29296W        W45370  16.113  11.632   1.512  0.0729  0.2766  0.1599
29297W        W45371   8.240   5.968  13.369  0.1116  0.0703 -0.1139
29298W        W45372   0.484  14.652   9.319 -0.0461 -0.0329 -0.2494
29299W        W45373  19.110  18.222   9.500 -0.0630  0.2973  0.0424
29300W        W45374   2.565   6.127   4.630 -0.0810  0.3313 -0.0554
29301W        W45375  13.820   0.362  11.291 -0.0119 -0.1878 -0.0577
29302W        W45376  12.816  14.446  12.203  0.1228 -0.1803  0.2611
29303W        W45377   6.739  13.529   2.819  0.0978 -0.2200  0.1006
29304W        W45378  15.701  19.288  14.566 -0.0082 -0.1596  0.1234
29305W        W45379   9.280   4.962  14.808 -0.0092 -0.2300  0.0699
29306W        W45380  13.795   0.601  12.679 -0.1593 -0.0868 -0.2253
29307W        W45381  15.701  13.199   4.771  0.2000  0.0915 -0.2489
29308W        W45382   2.414   6.666  12.522 -0.0599 -0.2147 -0.2888
29309W        W45383  14.174   2.951   3.756 -0.0420 -0.2592 -0.1871
29310W        W45384  17.791   3.906   1.599 -0.1441  0.0830  0.1111
29311W        W45385   8.927   2.593   5.874  0.4860  0.3789 -0.2888
29312W        W45386   3.622   6.654   2.392 -0.7516 -0.0780 -0.1336
29313W        W45387   5.921  14.723  12.293  0.1323 -0.1362 -0.0573
29314W        W45388  15.509   0.767  13.793  0.2119  0.0508  0.3999
29315W        W45389   6.900  14.032  10.633  0.1162  0.1238  0.2364
29316W        W45390  14.416   1.826   1.030  0.1343 -0.1490 -0.0350
29317W        W45391   4.835  11.113   1.017 -0.2936 -0.0887 -0.1085
29318W        W45392  14.133  19.079  11.295  0.1206  0.1073 -0.2124
29319W        W45393  18.332   5.032   0.641 -0.3828 -0.0641 -0.1486
29320W        W45394  16.242   6.701   1.152  0.2661  0.2867  0.2082
29321W        W45395  18.085  18.562  14.530 -0.0138 -0.0518  0.1748
29322W        W45396  17.788  13.653   9.380  0.4163 -0.0480 -0.0233
29323W        W45397  14.599   3.668   1.124  0.0031 -0.2451  0.3090
29324W        W45398  18.152  10.247  12.065  0.1623 -0.3675  0.0952
29325W        W45399   8.678  15.391   4.437 -0.0387 -0.0928 -0.1147
29326W        W45400   9.195  17.316   2.219 -0.0069 -0.1798  0.0505
29327W        W45401   6.310   1.074   2.890  0.3753  0.1977 -0.2124
29328W        W45402   1.796  13.235   2.691  0.0804  0.0681  0.4320
29329W        W45403  16.167   0.921   3.944  0.2409  0.4741 -0.0952
29330W        W45404   5.862   6.045   0.526  0.3013 -0.0192 -0.1597
29331W        W45405   4.052  15.611   0.489  0.4846 -0.0517  0.1939
29332W        W45406   8.683  16.480   5.087 -0.0276 -0.0158 -0.3096
29333W        W45407  10.782   7.627  13.932  0.0777 -0.1625 -0.6123
29334W        W45408   3.773   7.778   2.411  0.2524 -0.0479 -0.1354
29335W        W45409   3.044   4.811   0.311 -0.0480 -0.0575  0.2518
29336W        W45410   4.246  17.852   2.002 -0.2474  0.1142 -0.0951
29337W        W45411   5.931  12.294   1.096 -0.0651 -0.1115  0.0587
29338W        W45412  17.110   8.289  13.409  0.0816 -0.2511  0.0258
29339W        W45413  13.244   9.226  14.791  0.1744  0.0175  0.2288
29340W        W45414   2.291  17.334   1.659  0.0626 -0.2587 -0.1342
29341W        W45415  12.772  15.017   4.726 -0.3316  0.0464  0.0383
29342W        W45416  15.628  14.105   1.509  0.2218 -0.2816 -0.0507
29343W        W45417  10.865  10.704   2.957 -0.3156 -0.0359  0.0594
29344W        W45418  17.095  11.299  13.710  0.2382  0.2333  0.1102
29345W        W45419  10.636   2.579  10.897 -0.0566  0.3676  0.2779
29346W        W45420   1.119   4.388  13.208 -0.3146 -0.1963  0.0513
29347W        W45421   7.600   7.622   4.797  0.1599  0.0915  0.2739
29348W        W45422  10.812  17.998   3.367  0.0553  0.0931 -0.0115
29349W        W45423  14.889  17.436   4.403  0.1418 -0.2957 -0.0336
29350W        W45424   8.587  14.611  15.008  0.2728 -0.0153 -0.0299
29351W        W45425  12.944  15.026   3.224 -0.0169 -0.1250  0.0701
29352W        W45426   9.369  19.011   1.084  0.3289  0.2692 -0.0869
29353W        W45427   4.165   6.013   0.365  0.1020 -0.1502 -0.3126
29354W        W45428   2.889  18.073  11.417 -0.2439  0.2326  0.0683
29355W        W45429   1.971  14.729  11.140  0.0441  0.0366  0.0272
29356W        W45430  18.756  18.589   0.172  0.0372  0.1769 -0.0164
29357W        W45431   5.403   3.918  11.088 -0.3846 -0.4117  0.0084
29358W        W45432   6.966  12.363  15.038  0.1173 -0.4537  0.1290
29359W        W45433   5.580   1.768   2.957 -0.0152  0.3131  0.3500
29360W        W45434   4.897  17.299  10.286  0.0735  0.0100  0.3756
29361W        W45435  17.641  18.124   0.941  0.1793  0.0613 -0.0755
29362W        W45436  16.780  14.291   1.915 -0.0703  0.0209 -0.0897
29363W        W45437  10.868   4.003   5.034  0.1590  0.0611  0.0550
29364W        W45438  17.210   8.790  12.467  0.0611  0.1801  0.1103
29365W        W45439  10.267   0.009  12.135  0.1703  0.3975  0.1455
29366W        W45440  18.095  11.702   3.842  0.3222  0.3503  0.3060
29367W        W45441  10.660   3.824   2.710  0.4517  0.0217  0.2995
29368W        W45442   7.428   5.918  14.551 -0.0057 -0.1788  0.0426
29369W        W45443  16.255  12.574  12.578  0.0101  0.1036  0.0866
29370W        W45444   8.017  17.612   0.129 -0.3110  0.1872  0.1121
29371W        W45445   5.917   0.980   5.350 -0.0444  0.0496 -0.3292
29372W        W45446   3.001  13.856   1.557  0.0690 -0.1303  0.0270
29373W        W45447   4.289   4.572   5.316  0.0616 -0.2307  0.2026
29374W        W45448   8.153  15.299  11.665  0.0054  0.0576  0.0992
29375W        W45449  12.128   4.864   3.560  0.0876 -0.0500  0.1001
29376W        W45450   8.747   3.240  12.945 -0.0754  0.0941 -0.1753
29377W        W45451   4.415   7.386   1.673 -0.0473  0.1847 -0.0593
29378W        W45452  17.001  10.593  12.825  0.0868 -0.0851 -0.0467
29379W        W45453  10.916  14.905   1.474 -0.0906  0.0736  0.4183
29380W        W45454  14.392  11.824   3.648 -0.0173  0.0353  0.2683
29381W        W45455   6.650   5.460   4.300 -0.1349  0.1092 -0.3173
29382W        W45456   4.903  14.600  10.337 -0.4138  0.6172  0.1843
29383W        W45457   5.732  12.433   0.169  0.1665 -0.0199  0.3880
29384W        W45458   9.532   3.055  14.739 -0.1610  0.3024 -0.2094
29385W        W45459  15.159   2.412  11.950  0.3006  0.0690  0.0527
29386W        W45460   9.057   8.715   4.982  0.5361  0.1478 -0.1619
29387W        W45461   3.593  14.825   3.851  0.1218 -0.2269 -0.0542
29388W        W45462   4.692  12.441  12.457  0.2116  0.0982  0.1385
29389W        W45463   0.624  18.471   3.947  0.1090 -0.3919 -0.0133
29390W        W45464  16.020  10.368   0.051 -0.0822 -0.2927 -0.5007
29391W        W45465  17.797   7.869  14.976  0.1353  0.0588  0.4481
29392W        W45466   6.915   8.160   3.701 -0.0667  0.1500  0.3709
29393W        W45467   6.783   9.322   4.430 -0.2606 -0.0780 -0.1504
29394W        W45468  12.152   3.131  14.498  0.1564  0.1686  0.1293
29395W        W45469   4.516  16.453   1.972  0.2439 -0.1556 -0.2399
29396W        W45470  15.972  14.143  13.670 -0.1204  0.0645 -0.0228
29397W        W45471  10.128   7.083   4.840 -0.1215  0.2069 -0.1451
29398W        W45472   9.992   7.572  13.525 -0.1813 -0.4853  0.2817
29399W        W45473   1.197  12.844   0.183 -0.2495  0.1106  0.0194
29400W        W45474   8.437   6.910   3.097  0.0021  0.3675 -0.0207
29401W        W45475   9.429   6.447  14.131  0.0522 -0.0967  0.2803
29402W        W45476  13.312   0.846   5.279  0.0911  0.0729 -0.2432
29403W        W45477   3.724   0.680   0.661  0.0039  0.1823 -0.0475
29404W        W45478  10.168  10.505   0.524 -0.0201  0.1002 -0.3416
29405W        W45479   7.983  19.262   3.066  0.1869 -0.2809  0.2913
29406W        W45480  13.740  15.976   3.946 -0.0156 -0.1301 -0.0225
29407W        W45481  16.210  14.580  10.862 -0.2073  0.1342 -0.2378
29408W        W45482  12.107  10.016   3.911 -0.0746  0.2474  0.1733
29409W        W45483   9.786   6.909   3.343 -0.1603 -0.2454  0.1624
29410W        W45484  18.432   7.459   3.473 -0.0990  0.1323 -0.3760
29411W        W45485   2.800   8.922   3.609  0.0270  0.1568  0.1394
29412W        W45486  10.269  11.633   4.451  0.1721  0.1715 -0.0191
29413W        W45487  11.817  10.469  12.076  0.4832 -0.2057 -0.0142
29414W        W45488  15.047   3.013   3.452  0.1085  0.2645  0.3163
29415W        W45489  10.758  16.304  13.592 -0.1716 -0.1545  0.1056
29416W        W45490   2.298   8.418   1.655 -0.2379 -0.2085  0.2675
29417W        W45491   2.632  10.234   1.886 -0.1085 -0.1415  0.3646
29418W        W45492  11.061  10.465   2.569 -0.3406 -0.3457 -0.0832
29419W        W45493   2.361  16.758   1.883 -0.2270  0.0513 -0.1987
29420W        W45494  13.317   4.792   3.518 -0.2610  0.1267 -0.0864
29421W        W45495  15.182   4.012  13.975  0.0697 -0.1791 -0.0726
29422W        W45496   9.371  10.687  14.205  0.2433  0.0817 -0.0897
29423W        W45497  18.848   6.180   3.607 -0.1926  0.0616 -0.1969
29424W        W45498  17.390  18.062   3.784 -0.1437 -0.0958  0.0780
29425W        W45499  12.018   1.545  10.668  0.0434  0.1250 -0.0107
29426W        W45500  13.352   4.138   0.944 -0.1269  0.1689 -0.0242
29427W        W45501   3.878  17.284   2.857  0.1030  0.2720  0.1642
29428W        W45502  16.106  13.028  11.273  0.1844  0.1620 -0.0613
29429W        W45503  15.072   4.290  14.908 -0.2399 -0.0269 -0.0435
29430W        W45504  17.181  17.460  12.149  0.0233 -0.3519 -0.0259
29431W        W45505  14.951   8.846   2.891  0.1742 -0.0384 -0.3061
29432W        W45506  12.137   1.116   5.152  0.5807  0.2301 -0.1603
29433W        W45507  13.331   0.290  11.409 -0.0873 -0.0384  0.3700
29434W        W45508   3.240   5.977  11.831 -0.2853 -0.0313  0.1328
29435W        W45509   5.543   3.401   5.800  0.0774  0.1640  0.2160
29436W        W45510  15.592   9.280  12.345  0.0512  0.0119 -0.1923
29437W        W45511   4.367   7.111  12.162  0.1250 -0.2692 -0.1518
29438W        W45512   9.009  17.018  11.558  0.1842 -0.1724  0.3419
29439W        W45513   6.523  12.518  11.052  0.2344  0.1821 -0.2543
29440W        W45514  15.852  11.136  12.042  0.1511 -0.1595  0.3090
29441W        W45515   5.320  11.196   0.180  0.0222 -0.1177  0.0109
29442W        W45516   8.084   7.112  15.006  0.2110 -0.2297 -0.2651
29443W        W45517  14.811   0.202   2.593 -0.0381  0.0195  0.1581
29444W        W45518  11.302   3.534  11.947  0.1163 -0.0145 -0.1836
29445W        W45519  11.061   4.738   1.324  0.0632  0.0369 -0.1170
29446W        W45520  11.221   5.956   3.774 -0.3263  0.3670  0.2221
29447W        W45521  16.189  18.649  14.983 -0.2278  0.2134  0.0797
29448W        W45522   0.886  15.245  14.434  0.1020  0.0555  0.3204
29449W        W45523   7.770   0.351   2.646  0.0818 -0.1072 -0.1640
29450W        W45524  12.801   3.830  11.232  0.0287 -0.1527  0.1417
29451W        W45525  18.513  19.022   0.304  0.0413 -0.1378 -0.0245
29452W        W45526  14.864  10.669  14.214  0.1925 -0.0414 -0.3680
29453W        W45527  12.220   8.470   5.046  0.0913  0.1931 -0.2219
29454W        W45528  17.980  16.355   5.133  0.3503  0.0168  0.0934
29455W        W45529   7.998   3.475  11.404 -0.0398  0.0377 -0.0684
29456W        W45530  10.888   7.625  14.969 -0.1380 -0.0780  0.0838
29457W        W45531  16.464  12.272  12.172  0.4663  0.1144  0.1516
29458W        W45532  13.137  17.043  12.611  0.1619 -0.0050  0.0070
29459W        W45533  16.642   7.641   3.650  0.0202  0.1259  0.0116
29460W        W45534   7.619   1.547   1.131  0.2638  0.3177 -0.2024
29461W        W45535  18.600   2.931   3.391 -0.3315  0.2917 -0.5188
29462W        W45536   1.258   3.201  11.727  0.1830  0.1860 -0.0895
29463W        W45537  11.655   4.722   1.960  0.0674  0.1956 -0.2146
29464W        W45538   4.004  15.986  12.037  0.0547 -0.0364 -0.1948
29465W        W45539   0.451  18.068   9.965  0.5084  0.4252  0.1445
29466W        W45540  14.833   3.939   2.025 -0.2037 -0.2336  0.1299
29467W        W45541   0.829  17.222  10.100  0.2439  0.0518 -0.0910
29468W        W45542  16.332   1.727  12.666 -0.1296  0.1332 -0.0338
29469W        W45543   9.371   6.555  12.335  0.1367  0.2329 -0.1098
29470W        W45544   3.168  17.873  12.027  0.1113  0.1243  0.1930
29471W        W45545   8.043   2.086  13.873 -0.1063 -0.1808  0.0385
29472W        W45546  18.262  17.763   3.483  0.0676 -0.0731  0.0989
29473W        W45547  13.996   9.853   3.356 -0.1532  0.0365  0.1974
29474W        W45548   5.419   9.017  12.290  0.3075 -0.0547  0.2209
29475W        W45549   8.267  12.203  10.862  0.2898 -0.0844 -0.4498
29476W        W45550  13.224  17.712   3.248  0.0242  0.1156  0.2226
29477W        W45551   1.378  10.210  14.369  0.0035  0.1494  0.0035
29478W        W45552   4.674   7.373   0.115  0.1902  0.1082  0.0711
29479W        W45553  18.494   3.362  10.703  0.2413  0.0939  0.0736
29480W        W45554   0.593  16.758   3.108  0.0182  0.1670 -0.0396
29481W        W45555  12.278  15.494  14.429  0.0037 -0.0048 -0.2650
29482W        W45556   8.806   3.253  11.962  0.1290 -0.0199 -0.0735
29483W        W45557  18.139   5.796  13.429  0.0257 -0.0609  0.0817
29484W        W45558  18.188   7.389  14.391 -0.2255 -0.0127  0.0117
29485W        W45559   7.350  15.948   2.425 -0.3272 -0.0609 -0.4114
29486W        W45560   7.782   5.714  14.256 -0.1430  0.1052 -0.1603
29487W        W45561  11.369   6.015   0.873 -0.2653  0.1616 -0.4411
29488W        W45562  13.182   2.031   0.243 -0.2892 -0.2903  0.2325
29489W        W45563   9.335  17.927  13.263 -0.0256 -0.0075  0.2805
29490W        W45564  13.253  17.021  11.732  0.1685  0.2510  0.1185
29491W        W45565  14.440   1.713  10.855 -0.5884  0.0571 -0.3251
29492W        W45566  13.748  10.084  13.982 -0.2324 -0.1320 -0.0334
29493W        W45567  14.606  15.875  14.974 -0.0086  0.0629 -0.0105
29494W        W45568  11.269  10.222   1.253 -0.3221  0.0715  0.0608
29495W        W45569   8.153   2.736   4.061  0.2576 -0.2445 -0.3280
29496W        W45570   0.784   9.109   9.971  0.0096  0.2698  0.0805
29497W        W45571   4.893   3.117  12.356  0.4713  0.0479  0.1086
29498W        W45572   0.439   9.926   1.626 -0.1256 -0.0476  0.1066
29499W        W45573   1.374   1.037  11.178 -0.2820 -0.0763  0.0345
29500W        W45574   1.350  13.783   0.152 -0.0341  0.1001  0.2640
29501W        W45575  17.784  12.101   4.129  0.1106 -0.1469  0.0062
29502W        W45576  18.992  15.412   3.466 -0.0125  0.2973  0.1157
29503W        W45577   3.053  18.096  12.503 -0.0153 -0.2291  0.1789
29504W        W45578   5.700  12.637  10.437  0.2250 -0.0596  0.4215
29505W        W45579   1.487  19.167   4.615 -0.0031  0.2206  0.3010
29506W        W45580  16.562   0.879  10.481 -0.2796  0.2033 -0.1080
29507W        W45581   0.489  16.693  15.002 -0.0264 -0.3385  0.3883
29508W        W45582   8.062  18.742  10.510  0.2123  0.1821  0.3406
29509W        W45583  17.303   9.103  14.674  0.0885  0.0571  0.1716
29510W        W45584  17.008  10.733   1.752  0.0089  0.0560 -0.1088
29511W        W45585   4.009   7.209  11.173 -0.2374  0.1096 -0.1859
29512W        W45586   5.974  17.955  10.489 -0.0776  0.0770  0.0466
29513W        W45587  17.336   0.911  14.621  0.1058 -0.0966  0.1979
29514W        W45588   5.681   0.972   4.092  0.0789 -0.1413  0.0806
29515W        W45589   8.810   5.915  14.170  0.1508 -0.1497 -0.1436
29516W        W45590   6.626   5.970   4.367 -0.0307 -0.0848  0.2006
29517W        W45591   7.600  14.039   0.811 -0.3146  0.0001 -0.1924
29518W        W45592  13.324   5.187  13.333 -0.0380 -0.0240 -0.0958
29519W        W45593   2.325   2.836   2.938 -0.3113 -0.2178 -0.1777
29520W        W45594   9.464   1.253  10.854 -0.0305  0.1517 -0.0662
29521W        W45595   5.592  14.520   4.633 -0.0379 -0.1319  0.0152
29522W        W45596   9.109  10.634  10.975  0.1435  0.0501 -0.0694
29523W        W45597   1.389  18.313   4.600 -0.2126 -0.5678 -0.1415
29524W        W45598   8.338   6.851  11.767 -0.1731  0.1545  0.0528
29525W        W45599   6.625   2.300   3.584 -0.2049 -0.0536  0.1682
29526W        W45600  12.284   9.851   2.292  0.0481 -0.0013  0.4035
29527W        W45601   4.598   7.628   3.786  0.0616  0.0322  0.0873
29528W        W45602   5.745  18.706   0.158 -0.1297  0.1504  0.2779
29529W        W45603   7.265   0.068   1.958  0.0268 -0.0942  0.0837
29530W        W45604   1.912   7.146  12.617 -0.1456  0.0840 -0.2921
29531W        W45605  13.486  10.008  14.425  0.0765  0.1483 -0.0140
29532W        W45606   3.863   4.159  14.458  0.0694 -0.0539 -0.1996
29533W        W45607   9.778   3.225   0.099  0.1372 -0.3266  0.1932
29534W        W45608  16.479   5.525  13.736  0.0816 -0.1284  0.0227
29535W        W45609  16.066   1.059  14.449  0.0330  0.3003 -0.3659
29536W        W45610   5.202   0.494  10.908 -0.3246 -0.0260  0.0444
29537W        W45611  12.358  18.923  13.345  0.2518  0.1457 -0.0393
29538W        W45612   3.952  13.106   1.281 -0.3677 -0.2302 -0.1080
29539W        W45613   5.571  17.619   1.573 -0.0758 -0.4819  0.0428
29540W        W45614   9.332   9.704   4.208  0.1370  0.3478 -0.0859
29541W        W45615  13.127  15.747  10.942 -0.4347 -0.0349 -0.3142
29542W        W45616  15.663   3.359  14.399 -0.0168 -0.0082  0.2122
29543W        W45617   7.872   0.175  11.153 -0.1470  0.2072 -0.4580
29544W        W45618  15.596   0.229   3.626  0.1779 -0.0258 -0.2520
29545W        W45619  10.114   1.731  13.205 -0.2307 -0.2810 -0.1829
29546W        W45620   1.443  17.982   0.319 -0.1125  0.1002  0.1356
29547W        W45621   7.431   8.639   4.893  0.3179  0.0164 -0.0692
29548W        W45622   7.209  12.432  12.282 -0.0322 -0.3287 -0.2623
29549W        W45623   6.631  17.510  14.558  0.2048 -0.3342  0.0182
29550W        W45624   5.855  10.750  11.231  0.0476 -0.1537 -0.1121
29551W        W45625   4.276  10.892   3.512  0.3864 -0.0192  0.0328
29552W        W45626   7.235  15.945   0.651 -0.0413  0.5497  0.1346
29553W        W45627   9.025  16.374   4.594  0.2367 -0.0226 -0.0480
29554W        W45628   4.663   2.005   0.001 -0.1487 -0.1360 -0.0694
29555W        W45629  16.495   3.019  11.530 -0.3049  0.2157  0.2318
29556W        W45630   5.175  16.646   0.769 -0.0059 -0.0701 -0.3957
29557W        W45631   5.499   4.016   0.336 -0.3828  0.0750  0.1318
29558W        W45632  12.981  17.991   0.328 -0.0411 -0.0837  0.1638
29559W        W45633   9.569   7.047   1.427 -0.1811  0.1808  0.1598
29560W        W45634  15.058  13.078  13.758 -0.1263 -0.0639  0.0307
29561W        W45635  17.055   0.344  10.419 -0.0475  0.0508  0.0721
29562W        W45636   6.251  17.595   0.351 -0.0901 -0.0732 -0.0743
29563W        W45637  10.921  14.443   2.365 -0.1864 -0.2328 -0.0587
29564W        W45638   9.061   1.133  13.393 -0.0455 -0.0996  0.1725
29565W        W45639  14.015   7.997  13.614 -0.0849 -0.0642  0.1976
29566W        W45640  11.922  12.803   3.417 -0.2279  0.0779  0.0490
29567W        W45641   4.392  11.600  11.193  0.0287 -0.3907 -0.2815
29568W        W45642   6.381   3.578  12.358 -0.0261  0.3065 -0.0960
29569W        W45643   6.537   5.825   1.252  0.2530  0.0275 -0.1909
29570W        W45644  12.519  10.250   3.058  0.1787 -0.0411  0.1601
29571W        W45645   1.820  12.538   3.849  0.0698 -0.0055 -0.3150
29572W        W45646  17.127   0.561   3.339  0.0129  0.1595  0.0778
29573W        W45647   8.711   3.884   5.004 -0.0913 -0.0504  0.3774
29574W        W45648  12.913  17.101   3.889  0.0102  0.1812 -0.1765
29575W        W45649   9.822   9.207   4.982  0.0863 -0.1623  0.4312
29576W        W45650   0.543  15.414  11.592  0.2870  0.1694  0.2243
29577W        W45651   0.655  17.479  13.229  0.1279  0.0057  0.1640
29578W        W45652   2.207  18.604   3.455  0.0219 -0.1005  0.1499
29579W        W45653  10.891   3.740  12.969 -0.3764  0.3606  0.2856
29580W        W45654  19.302  18.710   1.387  0.2845 -0.3795 -0.2039
29581W        W45655   6.786   1.940   1.973  0.1809  0.1436 -0.1437
29582W        W45656  13.383   3.760  11.002  0.3344  0.0669 -0.1409
29583W        W45657  16.570   2.304  11.681  0.1589  0.3254  0.3006
29584W        W45658  16.810   9.116   2.513 -0.0769 -0.0534 -0.1952
29585W        W45659  16.049   6.904   4.000  0.0021 -0.2645 -0.4502
29586W        W45660  10.202  14.698  11.304 -0.0365  0.2182  0.5176
29587W        W45661   1.699  19.247  12.440  0.1351  0.2126 -0.0040
29588W        W45662  11.565  15.130   0.695 -0.4500 -0.2623  0.2857
29589W        W45663   7.213  18.125  13.628  0.0201  0.0353 -0.0744
29590W        W45664  18.215   9.185  12.379  0.0898 -0.3725 -0.1710
29591W        W45665   9.513  18.076   3.340 -0.1865  0.0200  0.0804
29592W        W45666  10.404  11.635   5.675  0.1633 -0.0054 -0.1289
29593W        W45667   4.784   0.219  11.683 -0.2447  0.0616  0.0680
29594W        W45668   1.383  11.278  10.549  0.2479  0.1038 -0.1945
29595W        W45669  11.342  18.085   3.457 -0.1681 -0.4178 -0.2201
29596W        W45670  12.352   5.545   2.341  0.0471  0.2911  0.2490
29597W        W45671  19.266  10.471  15.022  0.3062  0.0164  0.0171
29598W        W45672   0.989   6.074  10.770  0.2354 -0.1872 -0.0161
29599W        W45673  15.664  17.259  11.444 -0.2961 -0.0723 -0.1392
29600W        W45674   1.998  14.685  12.791  0.2997  0.0115 -0.1356
29601W        W45675   9.406   0.231   4.854 -0.2624  0.0392  0.0643
29602W        W45676  12.868  12.620   0.300 -0.0566  0.1869 -0.0067
29603W        W45677  11.444   8.571   3.576  0.1573 -0.5541 -0.3632
29604W        W45678   7.396  15.130   3.197  0.1636  0.1123 -0.0704
29605W        W45679   9.472  12.890  11.508 -0.0941 -0.2401  0.0049
29606W        W45680  18.077   3.944   2.349  0.2813 -0.3322  0.0822
29607W        W45681   8.181  15.703   2.230 -0.1701  0.0857 -0.0320
29608W        W45682  12.236  13.943  10.813  0.0564  0.0427 -0.1177
29609W        W45683   0.097   4.520  11.548 -0.3859  0.1937 -0.0904
29610W        W45684   8.304   3.825   3.713 -0.0981 -0.0805 -0.1847
29611W        W45685   1.762   8.974   0.990  0.0085  0.4483  0.1084
29612W        W45686   1.171   6.407   5.257 -0.0452 -0.3025 -0.1298
29613W        W45687  11.747   8.672  13.400 -0.1229 -0.4309 -0.1023
29614W        W45688   5.313  12.513   2.881 -0.1070  0.0488 -0.1261
29615W        W45689  11.533  10.415   5.265  0.1815 -0.0760  0.0792
29616W        W45690   4.693   5.757   1.078  0.6708  0.1354 -0.1104
29617W        W45691  15.599  12.296   0.821  0.1226 -0.2038 -0.1284
29618W        W45692   3.110  10.523   4.200 -0.0629  0.1768 -0.0179
29619W        W45693  10.923  12.078   3.590  0.0227  0.0047  0.1842
29620W        W45694  11.965   2.789   3.667  0.1244 -0.2658 -0.1752
29621W        W45695   6.336   9.283   4.118  0.0409 -0.2636 -0.1071
29622W        W45696   4.653   0.346   0.236  0.1064 -0.1143 -0.0241
29623W        W45697  16.750   0.869   0.523 -0.1324 -0.2328  0.0810
29624W        W45698   7.421   0.691  14.891 -0.2468 -0.2033  0.0607
29625W        W45699  16.785   9.679   5.158 -0.0424 -0.2695 -0.2683
29626W        W45700  15.045   0.445   1.679  0.0824 -0.0767  0.0848
29627W        W45701  17.334  19.276  12.911 -0.0294  0.1801  0.0792
29628W        W45702  10.141  11.971   3.839  0.0189 -0.1124  0.1574
29629W        W45703  18.948  19.018   3.009 -0.0792 -0.0594  0.0774
29630W        W45704  15.673   4.958  11.120 -0.2881 -0.1741 -0.1129
29631W        W45705   3.491   0.276   1.759  0.0639 -0.2353  0.0084
29632W        W45706  11.145  10.199   4.280 -0.1897 -0.2405  0.3232
29633W        W45707   2.129   2.875   5.723 -0.0925 -0.0469  0.4681
29634W        W45708  15.197   0.780  11.245  0.2809  0.2012 -0.2267
29635W        W45709  15.789   7.366   3.927  0.0065 -0.1394 -0.1790
29636W        W45710   5.986  12.152  11.549  0.0034 -0.0072 -0.0472
29637W        W45711   4.278  16.181   3.344 -0.2807  0.0639  0.2207
29638W        W45712   2.681  15.921   3.113 -0.0053 -0.2014 -0.1134
29639W        W45713   2.291  17.991  12.767 -0.2192  0.0700 -0.1605
29640W        W45714   1.120  15.125  12.427  0.2056 -0.0989 -0.2859
29641W        W45715  13.059   4.611   4.614  0.0338  0.0621 -0.2953
29642W        W45716  15.591  12.924  14.815  0.2997 -0.0345  0.0574
29643W        W45717  13.631   8.671   0.357 -0.0459  0.0289 -0.0536
29644W        W45718  12.749  11.082  11.148  0.1901  0.1206  0.0466
29645W        W45719  18.154  16.704  12.481  0.1072 -0.0931 -0.4184
29646W        W45720   0.480   1.616  11.421 -0.1133 -0.1220  0.2517
29647W        W45721   3.261   7.254   0.036  0.0527 -0.0898 -0.0371
29648W        W45722  14.931   1.752   1.818  0.0806 -0.1370  0.1023
29649W        W45723   9.288   2.337   5.567 -0.2908 -0.0923 -0.0560
29650W        W45724  18.367  11.427  13.035  0.0415  0.1385 -0.1629
29651W        W45725   6.483   3.845   0.740 -0.0660  0.3425 -0.1239
29652W        W45726   9.152  16.583   0.340 -0.0976 -0.0004  0.1306
29653W        W45727  14.024  10.636  14.763 -0.0323 -0.2715  0.1968
29654W        W45728  10.535  10.993  12.351  0.1876 -0.0270 -0.1414
29655W        W45729   7.723   7.202   3.020  0.1765 -0.3145  0.2139
29656W        W45730   5.454  18.626   2.308 -0.3609  0.1654  0.0257
29657W        W45731   9.493   0.654   2.717 -0.0836 -0.0631  0.2367
29658W        W45732   1.008   7.014   9.685 -0.1867 -0.0832 -0.2585
29659W        W45733   7.880   3.833   2.442  0.3552  0.0849  0.2217
29660W        W45734  18.141  15.260  10.287  0.0509 -0.2633 -0.0100
29661W        W45735  10.555  11.758   2.254 -0.4513 -0.0769 -0.4248
29662W        W45736   4.594  11.143   1.467  0.4781 -0.1698 -0.1300
29663W        W45737   2.712   0.024  13.589  0.0129 -0.0341 -0.0105
29664W        W45738  14.060  16.021   1.286  0.2016  0.0205  0.2613
29665W        W45739  12.836  11.198   4.284  0.1424  0.2260 -0.0199
29666W        W45740   2.099   7.048   2.695  0.0026 -0.0316  0.1291
29667W        W45741  12.131   4.088  12.777 -0.1627 -0.0721 -0.1366
29668W        W45742   9.608   2.818   0.956  0.1756 -0.0116  0.0224
29669W        W45743   2.639   1.628  14.971  0.1320  0.1806  0.4948
29670W        W45744  10.877   7.684   4.741 -0.1684 -0.1759 -0.2107
29671W        W45745   2.706  18.935  12.806 -0.1819  0.2362 -0.3429
29672W        W45746  14.537  10.575  13.011  0.0905 -0.2717 -0.1948
29673W        W45747  11.955  13.850   3.234 -0.2898  0.4231  0.1986
29674W        W45748   8.091   6.423  10.529 -0.3550 -0.0342  0.4647
29675W        W45749  15.827  14.399   3.342 -0.0201  0.1197 -0.1556
29676W        W45750  18.957   4.902   4.646 -0.1293  0.1333 -0.1392
29677W        W45751   7.417   4.670  11.149 -0.0028  0.1043  0.2686
29678W        W45752   7.570  14.513  11.215  0.2930 -0.0436  0.3924
29679W        W45753   0.335   8.925  11.772 -0.0724  0.1523  0.1497
29680W        W45754   9.889  15.396   3.453  0.0862  0.1466  0.3514
29681W        W45755  15.636   0.928  11.003  0.0429  0.2674 -0.0296
29682W        W45756  16.015  13.015   4.439 -0.3070  0.3676 -0.1300
29683W        W45757  10.597   4.976  14.301  0.0179  0.1625  0.0200
29684W        W45758   4.846   1.667  14.747  0.0939  0.2316  0.0732
29685W        W45759  10.126  18.860   2.313  0.0722 -0.0042 -0.2093
29686W        W45760  12.740   8.541  10.144 -0.0376  0.2090 -0.3090
29687W        W45761   0.401   2.101  14.055 -0.1725 -0.0124 -0.1233
29688W        W45762   4.442   7.556   2.950  0.0607  0.4475  0.2256
29689W        W45763   2.029   8.941   0.530  0.5005 -0.0842  0.0410
29690W        W45764   2.219   5.342   3.696 -0.0295 -0.3013 -0.4041
29691W        W45765  14.552  18.206  11.186 -0.0488 -0.2526 -0.4032
29692W        W45766   1.369   5.082   4.396 -0.0870  0.0278 -0.2085
29693W        W45767   5.440   4.323   3.808 -0.1833  0.1193 -0.2952
29694W        W45768  16.847  11.508  11.110 -0.0512  0.2997 -0.1566
29695W        W45769  18.423   5.013   4.880 -0.1228  0.1357  0.0235
29696W        W45770   5.602   8.883  10.875  0.3950  0.1953  0.0918
29697W        W45771  14.048  17.427   1.843 -0.2295 -0.2519 -0.2200
29698W        W45772   9.261  11.558   2.383  0.0460 -0.1800  0.0527
29699W        W45773   3.257   6.001  12.752  0.0228 -0.4184 -0.2471
29700W        W45774  18.158  11.398   0.175  0.4293 -0.0984 -0.3234
29701W        W45775   6.511   2.600  12.172 -0.1100 -0.2319 -0.0634
29702W        W45776   7.877   1.002   4.611  0.0929 -0.2693 -0.2335
29703W        W45777   3.248  17.826  10.984  0.2391  0.2230  0.5026
29704W        W45778  12.405  11.220  10.709  0.2418  0.0868 -0.1452
29705W        W45779   6.014  19.103   0.358  0.0027  0.0087  0.1142
29706W        W45780  15.509  10.883   0.702  0.1299 -0.1136  0.1977
29707W        W45781   3.477  15.560  13.955  0.2269  0.2772  0.3295
29708W        W45782   1.608  10.249   0.712 -0.2234 -0.0600 -0.1485
29709W        W45783   5.591   4.532  14.677  0.2479  0.2165  0.0530
29710W        W45784  16.684   2.852  12.926 -0.3774 -0.2189  0.2872
29711W        W45785   8.538  18.522  14.016  0.0968  0.1338 -0.1581
29712W        W45786  18.713   0.050  10.944 -0.1901  0.4553  0.4087
29713W        W45787  14.423   4.457   1.203  0.0649 -0.1806  0.1566
29714W        W45788   2.504  15.532  11.892 -0.1086 -0.2604  0.1254
29715W        W45789   6.108   9.416  12.061  0.2540  0.1431  0.0904
29716W        W45790  13.423   9.504   1.259 -0.0534 -0.0085 -0.1066
29717W        W45791  14.053  16.368  11.757  0.0126  0.3614 -0.4716
29718W        W45792   3.576  14.353   5.446 -0.2908 -0.1646  0.0621
29719W        W45793   5.724   1.424  13.172  0.0721  0.0392  0.0073
29720W        W45794  15.973   8.682  14.659  0.0897  0.3175  0.1416
29721W        W45795   7.227  16.423   2.590  0.0681  0.2119  0.3541
29722W        W45796  15.780  18.013   1.665 -0.1532  0.0457  0.0242
29723W        W45797   4.703  10.409  10.530  0.0102  0.1884 -0.3711
29724W        W45798  12.656   2.880  12.054  0.1612  0.3817  0.1248
29725W        W45799   6.683  13.029  13.956  0.0644 -0.0149  0.3855
29726W        W45800  12.916  11.597   2.646  0.2441  0.0056 -0.1241
29727W        W45801   8.639  12.998   2.268 -0.0148  0.3078 -0.0713
29728W        W45802  11.257   0.095   0.861 -0.2950 -0.0630 -0.0124
29729W        W45803   4.940  11.563   1.392  0.3002  0.0889 -0.1072
29730W        W45804  18.602   1.762  14.398  0.0638  0.0703 -0.1994
29731W        W45805  15.458  14.101  13.513 -0.1562  0.4170  0.1157
29732W        W45806  11.096  18.964  10.393  0.0341 -0.1404 -0.0660
29733W        W45807  12.342  12.556  10.956 -0.0079  0.2280 -0.3103
29734W        W45808  10.481   5.080  13.384 -0.0442 -0.0435  0.1739
29735W        W45809   8.958  15.998   4.898 -0.2497 -0.0661  0.3096
29736W        W45810   0.099   0.838   0.452  0.2205  0.0545 -0.2153
29737W        W45811  15.212   6.860   0.010 -0.1816 -0.2468  0.3101
29738W        W45812  11.147  18.582   1.116 -0.1266  0.2737 -0.1976
29739W        W45813  12.298   8.679   2.089  0.2913  0.0607 -0.0823
29740W        W45814  13.331   2.488   0.178 -0.1489  0.1622  0.1571
29741W        W45815   9.135   3.934  13.117 -0.3157 -0.3257  0.1182
29742W        W45816   9.298   8.815   1.699  0.0164 -0.0576 -0.3978
29743W        W45817   8.755   3.930   2.051  0.2185  0.1633  0.0813
29744W        W45818  12.576  13.575   3.957  0.1953  0.1786  0.0431
29745W        W45819   3.156   2.196   2.873 -0.1836  0.1115 -0.0406
29746W        W45820   8.144  13.543  11.469  0.4852 -0.0287  0.1107
29747W        W45821   0.258   5.405   2.739 -0.2166 -0.2332  0.1432
29748W        W45822   8.372   3.575  14.708 -0.0577 -0.0217  0.0862
29749W        W45823   4.787  12.877   3.055 -0.1909 -0.1045 -0.1609
29750W        W45824   0.502  13.353   0.775  0.0685  0.1068 -0.0382
29751W        W45825   5.472  13.269  12.774 -0.0903  0.1224 -0.1871
29752W        W45826  17.812   3.607  12.192 -0.5036 -0.3865 -0.1768
29753W        W45827  18.953  14.310   0.882 -0.3418  0.1259  0.3674
29754W        W45828  16.613   3.048   9.086  0.0345  0.0402 -0.3344
29755W        W45829  11.797  10.460  14.550  0.0816  0.2984  0.1225
29756W        W45830  15.488  17.985   5.013  0.1019 -0.1059  0.1127
29757W        W45831  10.644  17.531   2.618  0.0870  0.3410 -0.1747
29758W        W45832   0.504   8.468  12.282 -0.0240 -0.1726  0.0720
29759W        W45833   0.391   5.978  14.740 -0.2324  0.0804 -0.0449
29760W        W45834   9.869   3.735   0.048  0.0055 -0.1267 -0.1976
29761W        W45835   6.423   2.664   2.313  0.2555  0.2437 -0.0468
29762W        W45836   5.822   1.038   5.847 -0.2166  0.0880  0.3024
29763W        W45837   6.949   3.397   5.367 -0.1255  0.1431 -0.4583
29764W        W45838  11.425  16.595   3.091 -0.0033  0.1793 -0.0249
29765W        W45839   6.379  11.833   1.868  0.2867  0.2274  0.2563
29766W        W45840  19.277  14.793   4.097 -0.1330 -0.0544 -0.1192
29767W        W45841  13.286   2.013  11.695 -0.4309  0.4412  0.2521
29768W        W45842  11.758  16.068   2.079 -0.5969  0.2355  0.0839
29769W        W45843  12.845   1.860  11.965 -0.2357 -0.0932 -0.0705
29770W        W45844  13.371   6.554  14.568 -0.3259 -0.1414  0.1600
29771W        W45845  17.421   4.705   0.252 -0.1051  0.1487 -0.2626
29772W        W45846  13.811  18.442   2.519  0.1855 -0.0555 -0.2121
29773W        W45847  13.359  16.087  10.205 -0.2062  0.1009  0.2853
29774W        W45848  18.925   2.653   1.936 -0.2001 -0.0198  0.2699
29775W        W45849   7.537   8.058   6.241  0.1930 -0.1124  0.0632
29776W        W45850  10.909   3.022   4.758 -0.5316 -0.2299 -0.4155
29777W        W45851   0.895   0.831   3.677 -0.2413 -0.0325 -0.1667
29778W        W45852  18.128   2.043   4.663 -0.0625  0.2715  0.0899
29779W        W45853  13.553  16.186   3.486 -0.3073  0.1112  0.0404
29780W        W45854   1.953   1.592   4.122 -0.0052 -0.0670 -0.1224
29781W        W45855   4.895  12.618   0.427  0.0525 -0.1947 -0.2179
29782W        W45856   7.973   5.187   4.309  0.3124 -0.0456 -0.0002
29783W        W45857   3.545   0.896  11.439  0.1211 -0.1139  0.0750
29784W        W45858   3.619  19.302  12.614 -0.3134 -0.2324  0.0042
29785W        W45859   7.567   1.602   0.230 -0.1381  0.1588  0.0689
29786W        W45860  13.970   5.739   2.792  0.0347  0.0753  0.1558
29787W        W45861   5.187  12.533   4.631 -0.0097 -0.2385 -0.2312
29788W        W45862   2.146  14.378   0.778 -0.1378 -0.1991  0.1652
29789W        W45863  16.161  15.734  13.972 -0.3437  0.0756 -0.1531
29790W        W45864   1.269   7.100   4.558  0.4556  0.1074  0.0964
29791W        W45865   1.941  12.730  12.389  0.2550 -0.0339  0.4094
29792W        W45866  17.247  11.341  11.728 -0.3067 -0.3759  0.0073
29793W        W45867   6.629   7.434   1.149  0.1399  0.3119 -0.2732
29794W        W45868   2.333   3.623   5.560 -0.0364 -0.4880 -0.1113
29795W        W45869  13.856   7.038  13.949  0.2674 -0.0811 -0.3095
29796W        W45870   9.421   4.995   0.737  0.0248 -0.0210  0.1698
29797W        W45871   5.451  13.097   2.193  0.1408  0.1961  0.1705
29798W        W45872  14.837  12.120   1.246  0.1103 -0.1345  0.0316
29799W        W45873  15.672   4.739  10.497  0.0323 -0.1250  0.0356
29800W        W45874   3.555   2.232  12.123 -0.0787 -0.1752  0.0308
29801W        W45875   3.654   5.682  12.619  0.3533  0.1970  0.0400
29802W        W45876   0.160  13.868  13.619 -0.0147 -0.0769  0.2002
29803W        W45877   4.992  16.843   5.225 -0.0694 -0.1108  0.0462
29804W        W45878  14.805  11.216   2.255 -0.0159 -0.0882  0.1348
29805W        W45879  11.435  18.273  11.806 -0.2411  0.1832 -0.0540
29806W        W45880   4.686  18.583  14.523  0.0912  0.3975  0.3009
29807W        W45881   9.227   4.791  10.600  0.2132  0.1942  0.0362
29808W        W45882   9.427   4.774   4.099  0.4468  0.0829 -0.0503
29809W        W45883  10.129  11.490   3.966  0.1189 -0.0040  0.0514
29810W        W45884  14.562  12.781  13.479 -0.4024  0.4921  0.0693
29811W        W45885   6.438  14.999   3.911 -0.1246 -0.0842  0.2455
29812W        W45886   6.638  12.481  14.705  0.1449 -0.3871  0.0452
29813W        W45887  10.898   8.702  13.090 -0.1296  0.0914 -0.0361
29814W        W45888  14.363  18.576  11.470 -0.2376  0.0642 -0.0672
29815W        W45889   6.235   9.177   2.023 -0.4546 -0.1619 -0.1601
29816W        W45890  13.003   6.913  14.174 -0.3159  0.2407 -0.0970
29817W        W45891  19.050   1.271   4.417 -0.1064 -0.1986  0.0728
29818W        W45892   7.965  12.592   1.700  0.1359 -0.2775  0.0268
29819W        W45893  10.151  12.738   0.198  0.0732  0.1186 -0.2027
29820W        W45894   6.050  17.936  14.539 -0.2789 -0.0876 -0.0453
29821W        W45895   9.894   3.712   3.675  0.0249 -0.0989  0.3563
29822W        W45896   1.927  18.063  11.670 -0.3644  0.1966 -0.2909
29823W        W45897  14.925  10.782  10.270  0.0430  0.1707  0.0230
29824W        W45898  13.942   3.502   0.785 -0.1471  0.4318  0.1163
29825W        W45899   4.629   4.369   1.054 -0.0452 -0.1231  0.0960
29826W        W45900  13.248  11.928  11.712  0.0788  0.1994 -0.0023
29827W        W45901   6.240   1.717  11.122 -0.1461  0.0827  0.1854
29828W        W45902   5.734   2.460   1.652 -0.0998 -0.1144  0.0829
29829W        W45903   7.231   7.853  12.220  0.0250  0.1255 -0.0597
29830W        W45904  18.866   9.763  10.986 -0.1230  0.0616  0.1097
29831W        W45905  17.182   4.098  14.166  0.2802  0.0351  0.0965
29832W        W45906   9.763   4.884   1.807  0.0393 -0.1413  0.1245
29833W        W45907   9.418   9.001   0.767  0.2758 -0.2235 -0.2049
29834W        W45908  12.264  12.169  14.827 -0.1042 -0.1839 -0.0803
29835W        W45909   2.957   1.164  12.869 -0.1599 -0.0361  0.0015
29836W        W45910   6.530   6.787  11.510  0.1538 -0.2444  0.1133
29837W        W45911  12.486  12.109   2.865 -0.0876  0.1566 -0.1587
29838W        W45912   1.617  10.257  13.438 -0.0436  0.0665  0.1787
29839W        W45913  16.325   4.177   0.072  0.0198 -0.0989 -0.2295
29840W        W45914  17.271  13.462   3.372  0.0283 -0.1940  0.1398
29841W        W45915  17.583   1.531   3.557  0.0703  0.2765 -0.0297
29842W        W45916  13.853  13.925   2.474 -0.1341 -0.1755 -0.1957
29843W        W45917  13.006   4.351  11.025 -0.1778  0.2272  0.2533
29844W        W45918  18.878   6.765   2.005  0.1569  0.0427  0.1611
29845W        W45919   0.623   8.565   3.478  0.4184  0.1838  0.2727
29846W        W45920   3.871   8.392   5.282  0.0692  0.1958 -0.0824
29847W        W45921   6.498  16.083   5.666  0.1085 -0.1489  0.1610
29848W        W45922   4.159   8.557   2.731 -0.2104 -0.2822  0.2642
29849W        W45923  12.524   8.199   3.355 -0.2231  0.2287  0.0441
29850W        W45924  17.499  11.094   3.105 -0.4533 -0.2096 -0.0510
29851W        W45925   4.829  18.950   3.091 -0.0532 -0.2067 -0.2238
29852W        W45926  13.751   1.973   1.344  0.2672  0.2473  0.4975
29853W        W45927   7.131   2.642   0.116  0.2781 -0.0282 -0.1564
29854W        W45928   6.835  16.314  10.801 -0.3051  0.1678 -0.2977
29855W        W45929  11.577  14.683   5.159 -0.0554  0.1336  0.1203
29856W        W45930   0.545   2.875   4.672 -0.1407 -0.2081  0.0572
29857W        W45931  13.490   4.138  13.968  0.0771  0.3227  0.2750
29858W        W45932  18.790  15.620  14.950  0.0821 -0.3014 -0.1540
29859W        W45933  12.523   5.239   3.599 -0.4628  0.1116 -0.0427
29860W        W45934  15.499   0.547  10.772 -0.0598 -0.0846  0.4449
29861W        W45935   5.146  11.183   4.910  0.1385  0.0917  0.2105
29862W        W45936   9.561  18.559   3.052 -0.1343 -0.1325 -0.1181
29863W        W45937  11.787  15.783  13.002 -0.2362 -0.1602 -0.1438
29864W        W45938  13.426  12.815   4.126 -0.2768 -0.2943 -0.0642
29865W        W45939   0.461  10.429  10.890  0.1631 -0.0112  0.0053
29866W        W45940   6.399   8.908  11.641  0.1861  0.2830  0.2701
29867W        W45941   2.991  17.240   3.012 -0.0807 -0.1073  0.2668
29868W        W45942  10.948  10.689  13.466 -0.0779  0.0855 -0.1661
29869W        W45943  12.192  18.330   0.975 -0.0791 -0.0748  0.2560
29870W        W45944  15.975  17.667  13.006  0.0497  0.0708 -0.1264
29871W        W45945  10.471   6.283   2.302  0.1706 -0.0846  0.3463
29872W        W45946  11.937   1.925   0.573  0.0270  0.0444  0.0899
29873W        W45947   8.581  12.800  11.788  0.0416  0.0297 -0.3798
29874W        W45948   5.131  12.526  12.900 -0.0186 -0.0895 -0.1743
29875W        W45949   5.322   2.020   9.997  0.1590 -0.0447  0.2747
29876W        W45950   0.254   0.518   3.222  0.0524 -0.2652  0.2033
29877W        W45951   9.078  17.380   3.600  0.2812 -0.2853  0.2217
29878W        W45952  14.330  10.816  13.446  0.0661 -0.1780  0.2879
29879W        W45953   6.868  18.941   0.680  0.0636  0.1545 -0.2008
29880W        W45954   9.450   9.972   4.725 -0.1366 -0.1783 -0.3161
29881W        W45955   0.313  10.566   3.507  0.4370  0.0985 -0.2227
29882W        W45956  13.079  15.983   3.399  0.0800 -0.2957 -0.1479
29883W        W45957   0.809  17.826   0.943 -0.2336  0.1151  0.1466
29884W        W45958  14.800   8.579   4.274  0.1163  0.2184  0.1624
29885W        W45959   7.117   9.342  14.342  0.1484  0.0070  0.4868
29886W        W45960   6.567  13.294   1.939 -0.3441  0.0305 -0.0474
29887W        W45961   1.880  11.003   1.351  0.3588  0.0772  0.2369
29888W        W45962  10.387  16.150  14.480 -0.1869  0.0773 -0.1749
29889W        W45963   8.423   7.125   5.702 -0.4904  0.1847  0.0083
29890W        W45964  10.779   5.217  11.727  0.2136 -0.0283 -0.1486
29891W        W45965  15.317  10.417  10.541 -0.0372 -0.0758 -0.0340
29892W        W45966  10.133  13.607  12.911  0.2845  0.0309  0.0465
29893W        W45967  11.472   5.220   3.259 -0.1124  0.1357  0.1989
29894W        W45968   0.908  16.420  13.180  0.0779 -0.2284 -0.0007
29895W        W45969  16.956   0.267  14.773  0.0478  0.1220  0.0495
29896W        W45970   5.105   4.319   0.891 -0.1393 -0.0171  0.1659
29897W        W45971  12.077   3.554   0.636 -0.0285 -0.2281  0.1050
29898W        W45972  16.073   7.631  13.787  0.0694 -0.0576 -0.2884
29899W        W45973   1.916  14.955   0.771 -0.0091 -0.1725 -0.0687
29900W        W45974   8.481   7.591  13.988  0.0098  0.2480  0.1808
29901W        W45975   1.652   4.487  10.511 -0.2856  0.0809  0.0014
29902W        W45976   1.394  15.460  13.693  0.3026 -0.0544 -0.1332
29903W        W45977   8.548  11.926   9.619  0.1778 -0.1241  0.1869
29904W        W45978  10.973   6.432   2.321 -0.2397  0.3888 -0.1624
29905W        W45979   7.131   1.266   1.118 -0.0891  0.2437  0.0467
29906W        W45980  18.012  12.531   2.008 -0.1539 -0.3008  0.0727
29907W        W45981   7.496  18.937  10.627  0.1688  0.0539  0.0544
29908W        W45982   5.357   5.393  12.093  0.0432 -0.2359 -0.0310
29909W        W45983  18.380  13.076   0.717 -0.1591  0.0950 -0.0640
29910W        W45984   3.399  11.444  10.898  0.0549  0.0542 -0.3245
29911W        W45985  13.065  16.006   1.454  0.0241  0.1588 -0.2062
29912W        W45986   7.915  12.954   1.365 -0.1182  0.1299  0.3020
29913W        W45987   0.790  15.251   1.064  0.3475  0.3569  0.2299
29914W        W45988  10.984  16.544  11.480  0.0830  0.0655  0.0609
29915W        W45989  15.940   0.559  14.454 -0.2241 -0.0065 -0.1189
29916W        W45990  16.730   3.002   0.960 -0.4262 -0.1165 -0.0717
29917W        W45991  15.069   8.415   1.527  0.1881 -0.0749  0.0274
29918W        W45992   4.436   2.575   2.437  0.3422  0.0960  0.1453
29919W        W45993  17.138   4.268  14.589  0.0204 -0.0461 -0.2957
29920W        W45994   5.814  15.546  14.798  0.0936 -0.1036  0.0095
29921W        W45995  15.023  18.338   4.935  0.2411 -0.0405  0.4035
29922W        W45996  15.820  12.347   0.368  0.2239  0.2330  0.1776
29923W        W45997  15.815  13.618   8.768  0.1524  0.3224 -0.3798
29924W        W45998   7.168  14.959  12.853  0.1446 -0.0607  0.0938
29925W        W45999  19.102  13.849   1.133  0.2884  0.0101  0.3842
29926W        W46000  16.731  17.849  12.276  0.2121  0.0049 -0.2488
29927W        W46001   2.275   7.306   4.430 -0.3130 -0.3534  0.0877
29928W        W46002  12.535   5.502   4.815 -0.0392 -0.0805  0.2358
29929W        W46003  11.032   2.723   1.545  0.0330  0.3061  0.0261
29930W        W46004   1.444  10.668   4.273 -0.1150  0.1998 -0.0907
29931W        W46005  11.144  18.416  14.803  0.0202 -0.3065 -0.2013
29932W        W46006  10.665  14.350   4.879  0.2799  0.1440 -0.0015
29933W        W46007   4.062  13.236  11.023  0.2713 -0.2271 -0.0992
29934W        W46008  14.549  11.275   5.350  0.0671  0.2544 -0.0446
29935W        W46009   0.847   9.833   0.622 -0.0122  0.1420 -0.2354
29936W        W46010  11.109  14.818  14.386  0.1410  0.3447 -0.1707
29937W        W46011  13.022   4.946  12.047  0.2054  0.0397  0.2260
29938W        W46012   3.758  11.751   1.770 -0.2150 -0.0909  0.0766
29939W        W46013   1.065   0.646  12.084  0.0257 -0.0858 -0.1143
29940W        W46014   2.292   2.972  13.300  0.0257 -0.1779  0.2613
29941W        W46015  10.091  15.019  13.841  0.2353  0.0828 -0.1753
29942W        W46016  17.096   6.487  13.475 -0.6136  0.2192  0.0875
29943W        W46017  12.121   4.489   0.697 -0.0875  0.5015  0.1820
29944W        W46018  18.292  19.304  10.434  0.0213 -0.0649 -0.4308
29945W        W46019  17.911   1.072   1.830 -0.1216  0.0219 -0.3338
29946W        W46020   2.141  14.341   4.223  0.3087  0.2438 -0.1518
29947W        W46021  17.126  11.502   5.214  0.2383  0.3274  0.0239
29948W        W46022  14.642  18.141  14.409  0.0105  0.3249 -0.1515
29949W        W46023  11.388   6.469   3.219 -0.1779 -0.0553  0.1266
29950W        W46024  18.383   3.878   5.379 -0.0831 -0.0243  0.0632
29951W        W46025   2.971  17.773   0.707 -0.2315 -0.0198 -0.1183
29952W        W46026  16.838  16.613  13.496  0.0956 -0.3631 -0.0283
29953W        W46027  18.881   3.730   0.653  0.0731 -0.0901 -0.3766
29954W        W46028  17.959  10.334  13.413  0.1146 -0.0846 -0.0502
29955W        W46029   2.126   1.512   1.005  0.2648 -0.1791  0.0121
29956W        W46030   0.742   6.519   0.087  0.1249  0.4640 -0.2114
29957W        W46031  11.684  11.387  13.232  0.0969  0.3600 -0.0857
29958W        W46032   0.471  11.047   2.790  0.3314 -0.2195  0.1669
29959W        W46033  13.569  15.691   1.534  0.0696 -0.0658 -0.0810
29960W        W46034  19.023  17.361  13.493  0.2006  0.0730 -0.3012
29961W        W46035   4.758  12.857  12.839  0.0887  0.1079  0.1610
29962W        W46036   7.414  13.462  14.352  0.3206  0.0083 -0.1797
29963W        W46037   7.102  13.853  12.474  0.0806 -0.2665 -0.1739
29964W        W46038  11.499   4.781  13.084  0.0739 -0.0323 -0.2718
29965W        W46039   6.773   3.635  13.881  0.0739  0.0942 -0.2441
29966W        W46040   3.145   5.134   5.784  0.0933  0.0063 -0.0180
29967W        W46041  11.870  16.674  12.976  0.5141 -0.0082  0.1418
29968W        W46042  10.224  12.441  14.086 -0.0944 -0.0506  0.0686
29969W        W46043  10.979  18.195  11.144 -0.1875  0.0570  0.2358
29970W        W46044  13.478  12.439   0.724  0.0109  0.1860 -0.2138
29971W        W46045  10.655  14.219  14.936  0.0427  0.0457  0.4840
29972W        W46046   6.453   0.246   1.545  0.0533 -0.2164 -0.1123
29973W        W46047  14.936   3.285  13.827  0.0356  0.0513  0.1092
29974W        W46048   0.253  18.892   3.712 -0.3256 -0.0633 -0.1897
29975W        W46049   8.523   1.737  12.957  0.0353 -0.1117  0.4672
29976W        W46050   0.924   7.169   2.895  0.0051  0.2012 -0.0396
29977W        W46051  11.930   6.183   5.796  0.2722  0.0846 -0.0542
29978W        W46052  15.073   6.487   2.480 -0.1020 -0.2640  0.0546
29979W        W46053  13.064   1.146  10.053 -0.1339  0.1893  0.1765
29980W        W46054   3.748   1.344   3.082  0.3118  0.1633 -0.1143
29981W        W46055  14.900  15.238   1.493  0.0843  0.2686 -0.2505
29982W        W46056   8.976  13.193   0.996  0.0560 -0.0221 -0.3103
29983W        W46057  14.581   8.683   2.466 -0.4051  0.0517  0.0783
29984W        W46058   4.034   2.881  14.027 -0.1382  0.0851 -0.1734
29985W        W46059  18.921  14.093   4.709  0.1905  0.0026 -0.2174
29986W        W46060   8.512   4.234  12.343  0.0379  0.1375 -0.0319
29987W        W46061   8.879  11.286   3.623  0.0204 -0.1145  0.0084
29988W        W46062   3.925  11.762  11.158 -0.1710 -0.3388  0.3563
29989W        W46063   8.302  15.601  12.692  0.0336  0.0445  0.1732
29990W        W46064   4.422   7.620  12.021 -0.0767 -0.2266 -0.2575
29991W        W46065  19.180  12.957   3.245 -0.0273 -0.1920  0.4680
29992W        W46066   5.041  15.823   2.429  0.1252  0.0461  0.0595
29993W        W46067  16.641  15.484  14.277  0.1429 -0.2142  0.0407
29994W        W46068   9.145   3.935  13.686  0.1664 -0.1488 -0.0020
29995W        W46069  10.826   6.094  11.626  0.2982 -0.0486 -0.1061
29996W        W46070  14.335   9.926   5.200 -0.1023 -0.1686  0.4934
29997W        W46071  13.213   3.762  14.145  0.0527  0.0475 -0.1807
29998W        W46072  14.378  13.349  14.738 -0.1171  0.0344  0.3655
29999W        W46073   7.133  12.200  13.834 -0.2439  0.0577  0.1643
30000W        W46074  11.174   2.651   2.003 -0.1526  0.0694  0.2498
30001W        W46075  10.121  10.362  14.813  0.0645  0.0877 -0.2634
30002W        W46076   2.010  15.491   4.935  0.0441  0.1955 -0.2483
30003W        W46077   5.905  10.346   1.689 -0.0999 -0.0745 -0.2730
30004W        W46078   4.413   0.749   0.317 -0.3720  0.0371  0.1163
30005W        W46079   1.805  14.484  14.905 -0.0874 -0.1397  0.1082
30006W        W46080   5.439  14.964  13.329  0.4084 -0.3802  0.0433
30007W        W46081  16.191  14.844   0.829  0.0592  0.1460  0.0859
30008W        W46082   0.545  13.696  14.212  0.3577 -0.0171 -0.1407
30009W        W46083   9.637  11.300   1.279  0.1158 -0.2512  0.2827
30010W        W46084  13.119  17.075   0.684  0.1782 -0.1431 -0.0950
30011W        W46085  12.872   5.574   5.315  0.3584  0.2494  0.4310
30012W        W46086  11.481  14.272   2.449 -0.3259  0.1201 -0.3203
30013W        W46087   3.540   2.484  13.547  0.0882  0.2449 -0.1660
30014W        W46088  17.919  19.159   0.400  0.0364 -0.1060  0.2962
30015W        W46089   8.447  11.202  15.028 -0.0582  0.0977  0.3188
30016W        W46090   9.118  15.523   2.079 -0.2499  0.0717  0.0540
30017W        W46091  18.263  10.015   2.842 -0.2087  0.1989  0.0811
30018W        W46092  16.859   7.950  14.061 -0.0842  0.0857  0.0259
30019W        W46093  17.954  13.839   1.583 -0.0859 -0.0034  0.2289
30020W        W46094  16.822  12.162   3.797 -0.2889 -0.0530 -0.0234
30021W        W46095  12.711  16.911   2.755  0.1418 -0.1307 -0.0413
30022W        W46096   5.232  16.964   3.497 -0.1383  0.2482  0.1582
30023W        W46097  13.332   2.894   3.480  0.4040  0.2301  0.2891
30024W        W46098  17.208  10.271  11.460  0.2547  0.3099  0.3331
30025W        W46099  12.976   5.087  13.037 -0.3643  0.2123  0.1582
30026W        W46100   1.995   2.807   3.421 -0.1832  0.0053 -0.1643
30027W        W46101   1.065  17.205   4.145  0.2149 -0.1138 -0.1066
30028W        W46102   3.233   2.216   1.053 -0.1200  0.0569  0.0035
30029W        W46103  18.538  14.490   3.844 -0.0029  0.3440  0.1318
30030W        W46104  17.729  14.643  12.250 -0.0351  0.4413 -0.3459
30031W        W46105  11.562  12.837  12.106 -0.2540 -0.2373  0.0369
30032W        W46106  16.388  12.292   3.394  0.0976 -0.0030  0.0088
30033W        W46107   8.889   2.218  14.509 -0.1099  0.0113  0.2472
30034W        W46108  19.097   2.829  14.433 -0.1662  0.2714 -0.1399
30035W        W46109  18.391   8.602   3.591  0.1016 -0.0607 -0.0633
30036W        W46110   4.977   2.563   2.385 -0.1310  0.0807  0.3508
30037W        W46111  17.541  16.310  10.531  0.2827 -0.0420  0.1546
30038W        W46112   7.420  17.669  14.193  0.0663 -0.1450  0.0176
30039W        W46113   6.183  11.536  11.324  0.3512 -0.2775  0.0334
30040W        W46114   1.439   1.721   3.830 -0.1782  0.0568  0.0442
30041W        W46115   6.473  16.013  14.406  0.2162  0.0309 -0.1291
30042W        W46116  15.948   4.924  14.020  0.0878  0.1170 -0.1981
30043W        W46117  18.589   8.225  10.130  0.0493  0.0336  0.2046
30044W        W46118   1.102  16.587  11.323 -0.0453  0.2056  0.2167
30045W        W46119  18.358   2.951  11.013 -0.0739  0.1898 -0.2952
30046W        W46120   0.512   9.439   1.358 -0.0579  0.2257  0.1289
30047W        W46121  18.984  14.118  13.218 -0.1248  0.4417  0.0154
30048W        W46122  13.123  15.171  11.567 -0.0918 -0.0746  0.0894
30049W        W46123  17.995  12.124  10.175 -0.0857 -0.3091 -0.5187
30050W        W46124   8.090   2.619   1.012 -0.2512  0.0628 -0.1731
30051W        W46125   8.490  16.671   2.513  0.2565  0.1465  0.0961
30052W        W46126   0.680  14.102   4.769 -0.4072 -0.2720  0.2071
30053W        W46127  10.439  13.101   1.612  0.2267  0.1332  0.4534
30054W        W46128   2.308   2.098   0.050  0.0445  0.3393 -0.0746
30055W        W46129   0.632  16.528  11.041  0.2311  0.0909 -0.0526
30056W        W46130  17.694  14.593   4.485  0.1867  0.2016 -0.0717
30057W        W46131  13.077   9.707  10.857  0.0102 -0.0011  0.0226
30058W        W46132   5.817  12.690   3.101 -0.0349 -0.1138  0.0423
30059W        W46133  13.884  10.056  11.174  0.0551 -0.0248 -0.1998
30060W        W46134   9.018   8.891  14.025  0.0433  0.1322 -0.1869
30061W        W46135   2.597  18.359  14.145 -0.0228 -0.2455 -0.3788
30062W        W46136  17.427   2.988  14.226  0.1244 -0.3492 -0.0830
30063W        W46137   7.654  12.782   2.840  0.0336 -0.0505 -0.2805
30064W        W46138   4.430  18.176  12.755 -0.1825 -0.0172  0.2024
30065W        W46139  14.087   3.307   2.560 -0.1116  0.1586  0.1387
30066W        W46140  12.702  15.189   2.015 -0.1506 -0.0217 -0.0163
30067W        W46141  17.357  17.963   0.574 -0.1213 -0.0389  0.1887
30068W        W46142   8.787  18.382  10.933 -0.0080 -0.0145  0.0782
30069W        W46143   2.581   0.023   5.285  0.0863 -0.3843  0.0345
30070W        W46144  10.572  15.549   1.909 -0.0732  0.1588  0.0233
30071W        W46145   8.191   6.794  14.016  0.0250 -0.1398 -0.0835
30072W        W46146  11.146  11.851   5.004 -0.0805 -0.0394 -0.0619
30073W        W46147   6.892  18.192  13.213 -0.1265 -0.0674  0.1283
30074W        W46148  11.305  12.722  14.749 -0.0113 -0.3804  0.0129
30075W        W46149  16.941   8.021   2.356  0.1615 -0.0403 -0.2446
30076W        W46150   6.560   5.475   5.508  0.0527 -0.0187 -0.0554
30077W        W46151  14.486  17.652   3.673 -0.0655  0.1744  0.0228
30078W        W46152   5.894  14.169   3.888 -0.2092  0.4409 -0.0560
30079W        W46153   6.247   9.522   3.435 -0.1582 -0.1268  0.0092
30080W        W46154  12.690  16.931  12.861  0.1344 -0.1331 -0.2836
30081W        W46155   0.387   9.109  13.234 -0.1183  0.0719 -0.1829
30082W        W46156  15.146   1.986   1.261 -0.1658  0.0576 -0.0018
30083W        W46157  13.938  18.938   1.216 -0.0523 -0.0871  0.0156
30084W        W46158   0.648   3.142  12.363  0.1881 -0.0031  0.2587
30085W        W46159   5.236   5.467   3.147  0.4415 -0.0692 -0.0787
30086W        W46160   0.742   7.974   0.490 -0.1880 -0.0337 -0.3528
30087W        W46161   0.943  17.758   2.109  0.0420  0.1090  0.0692
30088W        W46162   5.450  19.093   0.535  0.3006 -0.1646  0.0158
30089W        W46163   6.427  19.156   2.842  0.0229 -0.1105 -0.3475
30090W        W46164   3.867  17.069   0.092 -0.3041  0.0427 -0.0032
30091W        W46165   3.323   5.278   5.307  0.0794 -0.2009 -0.0284
30092W        W46166   5.097   0.995  13.971  0.1857  0.0989 -0.0609
30093W        W46167  15.096  14.238   3.769 -0.0512 -0.0372 -0.3483
30094W        W46168   3.949   1.708  12.920  0.2914  0.3435 -0.2817
30095W        W46169   5.071  17.346  11.863  0.0955  0.1975 -0.2249
30096W        W46170  16.673  17.046   1.332 -0.1417 -0.0490  0.4561
30097W        W46171   0.118  10.351   1.755  0.2776 -0.0016 -0.1005
30098W        W46172  15.409   9.228  10.694 -0.2126  0.1488 -0.2487
30099W        W46173   1.766   4.565  12.015 -0.2786 -0.1423  0.2360
30100W        W46174  13.553  16.659   3.374 -0.1062 -0.2930 -0.0611
30101W        W46175  10.155  16.963   0.598  0.2508  0.2355 -0.1977
30102W        W46176  10.219   5.046  12.410  0.0130 -0.1673 -0.0384
30103W        W46177   7.568   8.117   3.006  0.1240 -0.0924 -0.4273
30104W        W46178   1.440  15.933  14.516  0.0273  0.0292  0.0768
30105W        W46179  19.053  16.776  13.568  0.2175  0.0084 -0.1011
30106W        W46180   4.368  16.896   1.732 -0.2554  0.4210  0.2068
30107W        W46181   8.824  13.657   0.994  0.1355 -0.0746  0.0806
30108W        W46182   9.143  13.699  10.520 -0.2500 -0.2335 -0.0183
30109W        W46183   2.336  12.337  14.803  0.0037 -0.0879 -0.0001
30110W        W46184  13.068  13.843  13.878 -0.4389 -0.2562 -0.1103
30111W        W46185  15.039   4.279   1.676  0.0696  0.2666  0.2948
30112W        W46186   7.110   7.951   3.279  0.2936  0.0270  0.1990
30113W        W46187   3.293   2.930   1.659  0.0856 -0.2298 -0.0759
30114W        W46188  17.417  17.268  11.120 -0.1006  0.1291 -0.3277
30115W        W46189  10.830   0.619  14.086 -0.2109 -0.1852 -0.1032
30116W        W46190  17.465   2.545  13.226  0.0306 -0.1034  0.1620
30117W        W46191  14.203  15.596   9.915 -0.2350 -0.1256  0.3654
30118W        W46192  13.149   6.400  11.137  0.0679  0.2371 -0.0477
30119W        W46193  18.866   9.065   0.786  0.1095 -0.2105  0.0197
30120W        W46194   3.567  14.936   4.431  0.0942 -0.0699  0.1461
30121W        W46195   1.090   2.032  11.606  0.1093 -0.0741  0.0025
30122W        W46196   7.550   9.813   4.396  0.0569 -0.1993 -0.0105
30123W        W46197  15.403  10.551   2.191 -0.1732 -0.0379  0.4157
30124W        W46198  15.220   2.983  12.589  0.1112  0.1961 -0.1898
30125W        W46199   8.699  12.729   4.719 -0.1837  0.1629  0.3652
30126W        W46200   5.216   0.171   1.798  0.0407  0.0663 -0.0143
30127W        W46201   5.123   2.021   0.523 -0.0486 -0.1457 -0.2335
30128W        W46202   1.744   7.684  12.512  0.1950  0.2966  0.2452
30129W        W46203   9.805  11.051  11.668  0.2694  0.0354  0.0615
30130W        W46204  17.848   5.447  11.204 -0.3518 -0.1983 -0.3319
30131W        W46205   0.660   8.325  11.780  0.1046  0.1771  0.2400
30132W        W46206  11.034   4.185   1.576  0.0900 -0.2413  0.0991
30133W        W46207  11.724   0.940   2.916  0.0818  0.1435  0.0582
30134W        W46208  16.266   5.552   4.300 -0.0450 -0.1342 -0.0388
30135W        W46209  14.066  16.799   0.190  0.0502 -0.0392 -0.0661
30136W        W46210  18.460   6.195  13.556  0.1225  0.0769 -0.1906
30137W        W46211   5.398  11.075   2.894  0.3389 -0.1014  0.0251
30138W        W46212   4.651   7.460   4.313 -0.0085 -0.0685  0.1879
30139W        W46213  11.595  13.343  11.307 -0.1877  0.2824  0.0500
30140W        W46214   7.215  11.432   0.165 -0.2734 -0.2817  0.1207
30141W        W46215  18.173   1.355   0.571 -0.3438  0.0634 -0.0815
30142W        W46216   8.560   3.327   0.775  0.0709 -0.1268  0.2815
30143W        W46217  19.063   9.649  14.091  0.1964 -0.1714  0.0317
30144W        W46218   1.695   9.554   3.953 -0.1435  0.1226 -0.4405
30145W        W46219  10.093  13.010   2.958  0.2395 -0.0092  0.5207
30146W        W46220  12.635  13.194  14.346 -0.0736  0.0220  0.0649
30147W        W46221  18.869   7.646   3.936 -0.1363  0.1666 -0.0114
30148W        W46222   9.555   8.491   4.508  0.0540  0.1232 -0.2215
30149W        W46223  16.936   4.706  13.333  0.0242 -0.2837  0.1436
30150W        W46224  15.841  15.807   9.865  0.1491  0.0108  0.1462
30151W        W46225   4.106   9.359   0.461 -0.2462 -0.1874  0.2671
30152W        W46226   3.706   7.976  12.225 -0.1370  0.4375 -0.3964
30153W        W46227  12.716   4.699  13.991  0.1010  0.0901 -0.0368
30154W        W46228   2.939   4.699   3.217  0.0525 -0.0510  0.0895
30155W        W46229   1.918  11.022   0.809 -0.3503 -0.0784 -0.2168
30156W        W46230   6.664  18.454   5.040  0.0909  0.0823 -0.0945
30157W        W46231  18.044  19.070   1.024 -0.3552 -0.4511 -0.4138
30158W        W46232   8.458   2.499   2.981 -0.0728  0.1590  0.0947
30159W        W46233  16.130   7.636   4.137 -0.2977  0.3261 -0.1215
30160W        W46234  14.459   9.902  14.743  0.1371 -0.1908 -0.0559
30161W        W46235   8.421   2.022   0.179  0.0452  0.1733  0.3794
30162W        W46236  13.691   3.698   3.443 -0.0308 -0.1398 -0.3207
30163W        W46237   6.693  18.998  12.842  0.0973 -0.1255  0.1359
30164W        W46238  18.737  13.743   2.112 -0.0981  0.0493 -0.2670
30165W        W46239   3.502  16.614  14.258 -0.2283 -0.2247  0.3354
30166W        W46240   0.101   8.514   2.660  0.0160 -0.4251 -0.2382
30167W        W46241   2.374   5.837  12.094 -0.0359 -0.0322  0.1387
30168W        W46242  15.902  11.980  11.645 -0.0016 -0.0749  0.3396
30169W        W46243  11.776   5.538   0.500  0.1093 -0.0634  0.1030
30170W        W46244   8.231  15.196   3.121 -0.0064 -0.0867  0.2061
30171W        W46245  17.967   4.531   9.340 -0.2487 -0.2731  0.1565
30172W        W46246  18.293  17.194  14.653 -0.1531 -0.2974  0.1681
30173W        W46247   2.861  13.772  14.120  0.1845 -0.1333  0.0237
30174W        W46248  13.691   4.167   3.679 -0.1384 -0.1760 -0.0319
30175W        W46249   4.368   3.159  11.402  0.2967  0.2694 -0.0822
30176W        W46250   6.390  14.932   2.972 -0.0743  0.0220  0.1968
30177W        W46251   1.563  16.560  11.129  0.5055  0.0782 -0.2895
30178W        W46252  15.556  17.025  14.330 -0.0413 -0.0303 -0.1726
30179W        W46253   8.173  13.571   0.448  0.2179  0.0130  0.2425
30180W        W46254  17.516  10.198  11.063 -0.1008  0.3557 -0.0214
30181W        W46255   7.120   2.843  11.495  0.2965  0.0799  0.2408
30182W        W46256  15.730  18.740   0.096 -0.0221  0.2347  0.1724
30183W        W46257   3.462   0.361  11.279 -0.0652 -0.0491 -0.1537
30184W        W46258  15.572   3.792  13.577 -0.0853 -0.0532  0.3328
30185W        W46259   1.417   4.246   1.044 -0.0186 -0.0014 -0.1293
30186W        W46260  10.948  12.221  13.596  0.2215 -0.2058 -0.2719
30187W        W46261   8.274  17.949  13.450  0.2114  0.0655  0.2891
30188W        W46262  16.949  11.271   2.376 -0.4473  0.1357 -0.0420
30189W        W46263   9.367   8.482  14.767  0.2272  0.3909  0.1699
30190W        W46264  16.874   1.867  11.601  0.0307  0.1200  0.1092
30191W        W46265  16.792  18.336   1.579 -0.2435 -0.1466 -0.3312
30192W        W46266  14.114   2.595  11.113  0.0005 -0.0044  0.0801
30193W        W46267  13.295  15.973   0.633  0.1640 -0.0398 -0.1169
30194W        W46268  10.063  12.711   2.277 -0.1594  0.0283 -0.2965
30195W        W46269  10.047  16.938   2.999 -0.1584  0.0714  0.3009
30196W        W46270  12.299  13.348   4.633 -0.0782 -0.0067  0.0370
30197W        W46271   4.903  17.767  11.611  0.0660  0.0331  0.2912
30198W        W46272  15.631   9.293  11.261 -0.1221 -0.1997 -0.0348
30199W        W46273  10.741  17.965   2.818 -0.0425  0.0028 -0.2268
30200W        W46274  18.377   2.514  12.092  0.0257 -0.0464 -0.0245
30201W        W46275   8.919  12.474  12.773 -0.1667 -0.0162  0.3210
30202W        W46276  14.925   3.308  11.769 -0.2700 -0.0366  0.1789
30203W        W46277  17.404  10.159  11.927 -0.1702 -0.0157  0.1865
30204W        W46278  12.927   2.269  14.506  0.0768 -0.0613  0.1921
30205W        W46279  15.157  15.687   3.243  0.1258  0.2404 -0.0390
30206W        W46280   5.744   4.827   2.194  0.1584 -0.1647 -0.0590
30207W        W46281  11.135   0.217  14.090  0.1797 -0.0383 -0.0461
30208W        W46282  12.471   4.197  14.875 -0.1020  0.3086 -0.2277
30209W        W46283  15.691   9.639  10.710 -0.0933 -0.2253  0.1300
30210W        W46284   4.530  14.061  13.680 -0.1823  0.0530  0.0635
30211W        W46285   3.234   9.890   1.230  0.1713 -0.2673 -0.1384
30212W        W46286   3.680   0.373  12.216 -0.0387 -0.2641 -0.3143
30213W        W46287  11.729  14.178  14.291  0.1384  0.0563  0.1394
30214W        W46288  11.404  18.810   0.772 -0.1820  0.1613  0.1671
30215W        W46289   7.390  13.397   3.948 -0.1738  0.0727  0.0345
30216W        W46290  14.711  14.785  13.668 -0.3013 -0.2003 -0.3523
30217W        W46291  16.359  17.888  10.009  0.0360 -0.2042  0.1424
30218W        W46292  17.534   4.009   5.147  0.0605  0.0703 -0.2401
30219W        W46293   6.744   0.588  14.140  0.0770 -0.1739  0.3729
30220W        W46294  13.807  10.103   2.898  0.0148 -0.0956  0.1899
30221W        W46295  18.292   3.243   4.046 -0.0297 -0.2656  0.1928
30222W        W46296  12.169   7.170  12.632  0.1203  0.0429 -0.0338
30223W        W46297   9.088   3.146   3.916 -0.5947 -0.1318 -0.1237
30224W        W46298   7.198  15.389  14.808  0.0785 -0.0059  0.1788
30225W        W46299  15.149   8.675   2.481  0.0981  0.0044  0.2933
30226W        W46300   1.856  14.812   9.998 -0.1603  0.3034  0.0080
30227W        W46301  17.780   8.161  11.614 -0.0978  0.1797 -0.2021
30228W        W46302  17.811   4.241   2.052 -0.0476  0.2221 -0.2681
30229W        W46303  10.099  17.467   0.429 -0.1315  0.1975  0.3877
30230W        W46304  18.628  16.398  10.322  0.0393  0.3943 -0.2713
30231W        W46305  11.127   1.369   3.699  0.3063 -0.1376  0.2604
30232W        W46306  14.326  17.772  12.657 -0.2387 -0.0517 -0.0086
30233W        W46307   4.740  12.201   4.807  0.1727  0.0429  0.0186
30234W        W46308   6.901  17.051  13.211  0.0324 -0.0586 -0.0910
30235W        W46309   0.503  13.847   2.012  0.0812 -0.2086 -0.0445
30236W        W46310  17.342  15.865   2.381 -0.1331 -0.2031  0.0116
30237W        W46311  12.920   2.254  12.984  0.3310  0.0625  0.2759
30238W        W46312  11.657   2.207  13.440  0.2099  0.1477  0.0406
30239W        W46313   2.289   0.509   4.045  0.1173 -0.1482 -0.0996
30240W        W46314   6.227  15.784   1.656  0.0412 -0.1971  0.2652
30241W        W46315   7.192   1.622  13.505  0.2694 -0.1454  0.1310
30242W        W46316   7.633   4.227   4.107  0.1879  0.0602  0.0773
30243W        W46317   5.919   3.761  14.192 -0.1531 -0.3669 -0.1400
30244W        W46318   3.457  12.444  10.952  0.3657  0.0803 -0.0543
30245W        W46319  10.349  18.396   3.440  0.5095 -0.1917 -0.2678
30246W        W46320  10.526  11.919  13.901 -0.0843 -0.0682  0.2719
30247W        W46321   9.762  18.919   2.683 -0.2459 -0.0585 -0.2130
30248W        W46322  12.440   1.107  12.219  0.0409  0.0395  0.2482
30249W        W46323   4.366  18.029   0.839 -0.0224  0.2932 -0.0620
30250W        W46324  15.217  18.494  10.494  0.1855 -0.0182  0.2310
30251W        W46325   9.908  15.316   2.494 -0.0023  0.3611 -0.2295
30252W        W46326   1.414   1.138   0.528 -0.0765  0.2907 -0.0794
30253W        W46327  17.952  12.596   1.067  0.4950  0.1621 -0.2720
30254W        W46328  16.655  12.949  12.489 -0.0349  0.1680  0.2899
30255W        W46329   5.570  18.391  13.321 -0.1114 -0.0266  0.1234
30256W        W46330  11.685  12.179   4.105 -0.0154  0.0582 -0.1718
30257W        W46331   6.430   7.272  11.589  0.0372  0.1531  0.1977
30258W        W46332  17.121  15.967  11.810 -0.3234  0.1557  0.0886
30259W        W46333  10.722  18.880  11.625  0.1493 -0.0119  0.0131
30260W        W46334   9.156  13.304   0.038 -0.1613 -0.2603 -0.0125
30261W        W46335  12.832   8.599   3.315  0.0874 -0.2509  0.3111
30262W        W46336  12.200   8.843   4.769  0.3528  0.0106 -0.1787
30263W        W46337   4.380  18.205   2.855  0.4261 -0.2760 -0.2447
30264W        W46338   6.703  16.631  11.940  0.1011  0.3477  0.3323
30265W        W46339  11.504   4.075  14.295 -0.1671 -0.0491  0.1197
30266W        W46340   9.460   7.056   0.793 -0.2018  0.1515 -0.1817
30267W        W46341  16.162  17.102   2.375 -0.1811 -0.2184 -0.1091
30268W        W46342  14.444  17.605   0.701 -0.0348 -0.0128 -0.1259
30269W        W46343   8.906   2.929   1.487  0.0255  0.1678  0.0873
30270W        W46344   6.435  14.783  13.020  0.3133  0.0025 -0.1098
30271W        W46345   3.594   5.463   5.738 -0.2330  0.1380  0.3272
30272W        W46346   6.149  18.715  12.727  0.0073  0.3043 -0.3702
30273W        W46347  15.961   4.024  13.145 -0.4060 -0.3095  0.2975
30274W        W46348   4.226  15.049   2.394 -0.2169  0.2221 -0.1006
30275W        W46349   1.435  16.095   5.218  0.2421 -0.1838 -0.5116
30276W        W46350  16.649   1.040   1.040 -0.2168 -0.2068 -0.2005
30277W        W46351  10.475   3.253   3.479 -0.2817  0.0295 -0.0651
30278W        W46352   1.059  17.320  13.640  0.1283  0.1780  0.2282
30279W        W46353   5.400   8.996   4.604  0.3390 -0.0429  0.0671
30280W        W46354  12.312  14.978  12.657 -0.2822 -0.0422 -0.0775
30281W        W46355  15.359   1.180   4.198 -0.0894  0.4689 -0.0435
30282W        W46356  18.988   3.083  14.870  0.1673  0.0824  0.1192
30283W        W46357  13.082   6.987   3.569  0.1105 -0.0855 -0.0219
30284W        W46358   1.919  17.891   2.585  0.1146  0.0102  0.1158
30285W        W46359   5.569  16.167  11.450 -0.0689 -0.1629 -0.2067
30286W        W46360   8.685   0.018   3.141  0.1192 -0.1035 -0.0829
30287W        W46361  19.080   0.918  11.277 -0.1054  0.0320  0.1109
30288W        W46362   5.435  13.632   4.363 -0.0888 -0.1090  0.0323
30289W        W46363   4.622  14.753  11.795 -0.3300 -0.2328  0.1761
30290W        W46364   1.166   0.786  14.118 -0.3063  0.5746 -0.3309
30291W        W46365  13.862   6.361   3.430  0.0156  0.0417 -0.0937
30292W        W46366   2.197  16.469   3.679  0.0476  0.0549 -0.1959
30293W        W46367  10.819  16.732   1.434  0.1116 -0.1450  0.0597
30294W        W46368   1.181   9.742  11.133 -0.2063 -0.0066  0.0195
30295W        W46369   7.514  16.281  11.679 -0.0731  0.0277  0.1821
30296W        W46370   1.851   1.712  11.962 -0.1513  0.1066  0.2408
30297W        W46371  13.850  15.354   2.949 -0.0152  0.0314 -0.2080
30298W        W46372   9.349   9.174   4.199 -0.1070 -0.1872 -0.0694
30299W        W46373  18.295   0.160  12.364 -0.0391 -0.0004  0.2661
30300W        W46374   4.165  13.545  12.393  0.0104  0.0798  0.2226
30301W        W46375  12.388  12.552  12.192  0.0323 -0.0065  0.3535
30302W        W46376  13.083   9.001   3.733  0.0593 -0.2227  0.0656
30303W        W46377   5.177  16.331  13.790  0.0694 -0.0005 -0.1056
30304W        W46378  16.120   5.369   2.465 -0.3855  0.1039  0.0215
30305W        W46379  14.498   6.569  13.515  0.2238  0.0138  0.2825
30306W        W46380   8.508   9.321  10.978 -0.0423 -0.1272  0.0306
30307W        W46381  18.095  17.550  15.030  0.0937  0.1953  0.0824
30308W        W46382   3.846   7.611   1.149  0.0627  0.1742  0.2636
30309W        W46383  13.133  17.979  10.514 -0.0881 -0.1128  0.4024
30310W        W46384  10.691   6.596  11.632 -0.1499  0.2817 -0.1930
30311W        W46385  13.552  14.002  11.145 -0.0403  0.1063  0.4048
30312W        W46386  11.721   5.439  15.025 -0.0154  0.1098  0.3602
30313W        W46387  13.761   0.130  10.121 -0.2630  0.0839  0.3277
30314W        W46388   6.507   8.145   9.790  0.1922 -0.1554  0.1544
30315W        W46389   7.438  12.297   4.901 -0.0902 -0.0761  0.5259
30316W        W46390  19.121   4.493   4.193  0.1851  0.2217  0.1352
30317W        W46391  13.730  11.643   1.081 -0.0369 -0.1457  0.0969
30318W        W46392  14.042   6.095  13.581 -0.0594  0.3312  0.0113
30319W        W46393   0.098   4.722   4.755 -0.0057  0.1872 -0.0732
30320W        W46394  16.316   4.149   1.125 -0.4157 -0.3388 -0.2360
30321W        W46395  17.900   4.743   1.896  0.0106 -0.2810 -0.2491
30322W        W46396  13.832   7.947   4.580 -0.1221  0.0310 -0.1675
30323W        W46397   0.187   1.849  13.131  0.1008 -0.0032  0.0175
30324W        W46398  17.442  16.763   2.593 -0.1289  0.1426 -0.3457
30325W        W46399  14.688   5.062   0.387 -0.3239  0.2646  0.0324
30326W        W46400   4.405   6.165   1.170  0.3403 -0.1467  0.5247
30327W        W46401  12.836  18.928   2.001 -0.2657  0.1387 -0.1053
30328W        W46402   2.007   3.658  12.349  0.2005  0.2633 -0.0545
30329W        W46403   9.448   8.058   0.128 -0.2573 -0.0054 -0.0881
30330W        W46404   2.599  11.638   2.862  0.2846  0.2606  0.0029
30331W        W46405  12.438   9.275   0.804 -0.3644  0.2756  0.2216
30332W        W46406  15.432  17.804  12.838  0.4145 -0.2085 -0.2788
30333W        W46407   7.092  17.173  10.623  0.2332 -0.0749 -0.1111
30334W        W46408  17.640   7.035  13.787 -0.3326  0.1689 -0.1067
30335W        W46409  12.610  13.327  10.392  0.1324 -0.2799 -0.1376
30336W        W46410   6.127  13.524   1.936  0.1508  0.2572  0.1928
30337W        W46411  13.500  16.711  14.486  0.0793  0.0747 -0.0113
30338W        W46412  13.994  13.343   0.799 -0.1868  0.1740  0.1070
30339W        W46413   1.927   9.784  14.962 -0.1080 -0.2534 -0.0300
30340W        W46414   8.618  18.395  11.433 -0.2198  0.0780  0.2431
30341W        W46415   3.477   5.320   1.024 -0.1501 -0.0652 -0.0394
30342W        W46416   8.473  17.381  10.860 -0.0657  0.1880 -0.2841
30343W        W46417   2.353   7.086  12.296  0.0324 -0.1761 -0.1003
30344W        W46418   0.341   9.666   0.444  0.1357 -0.0494 -0.0172
30345W        W46419   8.458   1.066  10.302  0.3835 -0.5506 -0.1034
30346W        W46420  10.126  19.117  14.975  0.2505  0.0871 -0.3196
30347W        W46421  16.319  10.546   3.585 -0.1048  0.3669 -0.0498
30348W        W46422  15.790   6.327  10.866  0.3635 -0.1962 -0.3005
30349W        W46423   7.070   9.463   2.503 -0.0707  0.0255  0.3238
30350W        W46424   4.887  13.003  13.414 -0.1751 -0.2544 -0.0673
30351W        W46425   4.135   5.657  11.727 -0.0428 -0.2853 -0.0936
30352W        W46426   1.620   8.433  12.999 -0.1993  0.0355  0.0192
30353W        W46427  16.319   2.025  14.301  0.2510 -0.1742  0.0719
30354W        W46428  11.185  13.891   1.529  0.0381  0.0005 -0.0158
30355W        W46429  10.641  18.065  13.784  0.0600 -0.3200 -0.1534
30356W        W46430   3.720  13.786  11.335 -0.1547  0.0029  0.1896
30357W        W46431  13.802  17.654   4.501 -0.1624  0.3787  0.2696
30358W        W46432   0.427   4.163  13.060  0.2298 -0.0086 -0.1453
30359W        W46433  14.343   2.044  12.514 -0.0993 -0.3238  0.2986
30360W        W46434   2.042   2.194  14.655  0.2059 -0.1133 -0.1448
30361W        W46435   0.062  19.126   1.130  0.0477  0.0340 -0.1473
30362W        W46436  14.108   6.974   1.076  0.1740  0.1473 -0.0129
30363W        W46437  10.919  11.312   2.704  0.2113  0.2553 -0.1999
30364W        W46438   6.158   7.369  13.185 -0.1864 -0.0040 -0.0233
30365W        W46439  13.939   0.601   2.095 -0.2487 -0.0388  0.1958
30366W        W46440   0.739   6.284   1.815  0.0796 -0.2788 -0.0468
30367W        W46441  15.534   6.650   1.796 -0.0763  0.0325  0.1651
30368W        W46442  13.340  14.037   0.901  0.2396 -0.2636 -0.0426
30369W        W46443  14.450  13.526   4.196 -0.2166 -0.0984 -0.2795
30370W        W46444  17.864   2.359   1.516  0.1479  0.0252 -0.2285
30371W        W46445  14.322   5.502   3.055 -0.0731  0.0948  0.2700
30372W        W46446  11.490   5.448   4.756  0.0784 -0.1421 -0.0921
30373W        W46447   4.492   5.359   1.869 -0.0868  0.2431 -0.0270
30374W        W46448   9.327   9.553  12.881 -0.3551  0.4543  0.1273
30375W        W46449   9.332  10.548   2.528 -0.1103 -0.0935  0.0043
30376W        W46450   6.818  10.628   2.678  0.2483  0.1720  0.1531
30377W        W46451  17.757  13.301  12.036  0.2628 -0.2519 -0.1333
30378W        W46452   6.276  16.482  12.638 -0.5477 -0.0041  0.1720
30379W        W46453  11.673   6.370   4.691  0.1868  0.0678 -0.0462
30380W        W46454  16.313   7.748  12.055  0.2865 -0.0123  0.1660
30381W        W46455   1.541   2.195  14.663  0.0217  0.2816  0.1247
30382W        W46456   7.059   6.805  12.844  0.0612 -0.3017  0.0064
30383W        W46457   9.147  12.154  12.392  0.0671 -0.0271  0.1311
30384W        W46458  18.518   2.401   4.374  0.3975  0.0145 -0.1125
30385W        W46459  16.461  17.700  12.712  0.2271 -0.2570  0.1257
30386W        W46460  12.691   9.444   2.457 -0.2787 -0.2269 -0.0463
30387W        W46461  11.275   3.702   3.877 -0.0359 -0.0972 -0.0629
30388W        W46462  18.548   7.915   4.288  0.0320  0.2448 -0.0259
30389W        W46463   8.937   0.500   1.932 -0.1163  0.0672 -0.0814
30390W        W46464   7.650   2.913   0.790  0.3334  0.1556  0.0303
30391W        W46465   5.406   8.130  12.310 -0.0431  0.1370 -0.0821
30392W        W46466   4.789  16.370  12.311  0.4496  0.1426 -0.0647
30393W        W46467  16.376  12.871   4.107  0.0804  0.4504 -0.0565
30394W        W46468   4.991  12.553  14.616 -0.2365  0.1325  0.0377
30395W        W46469  14.143   4.966   3.022  0.2687  0.1090  0.2404
30396W        W46470   9.549   6.839  11.811 -0.2508  0.2311  0.0881
30397W        W46471   8.379  12.826   4.303 -0.2216  0.1152  0.0004
30398W        W46472  11.572  11.172   2.603  0.0750 -0.3071  0.1937
30399W        W46473  13.545  15.308   9.817 -0.0621  0.1899  0.0076
30400W        W46474  16.521  16.066   4.530 -0.1137 -0.1982  0.1260
30401W        W46475  18.622   8.935   4.001 -0.0558 -0.3548  0.3039
30402W        W46476   1.736   6.572  12.828  0.0100 -0.0625 -0.0610
30403W        W46477  17.343  12.300  11.459 -0.0445 -0.1138 -0.0079
30404W        W46478  18.112   0.799  11.851  0.1873 -0.0105 -0.1922
30405W        W46479   8.576   1.771  11.962 -0.0726 -0.0780 -0.0142
30406W        W46480   3.888   3.854   5.365  0.0203  0.1434 -0.0259
30407W        W46481  10.187  18.313  12.890 -0.0053  0.1576 -0.1798
30408W        W46482  18.942  16.785  11.947 -0.4944 -0.1354  0.0343
30409W        W46483   6.524   6.835   1.179  0.1494 -0.1928 -0.0647
30410W        W46484   3.655  11.918  12.610  0.0162  0.1527 -0.2597
30411W        W46485  16.599   2.483   4.329 -0.0391 -0.1306 -0.2499
30412W        W46486   6.344   5.119  12.021  0.1664 -0.0367  0.1379
30413W        W46487   5.909   6.760   2.670 -0.0432 -0.0769  0.3529
30414W        W46488  12.077  13.032   4.253  0.2997  0.2406  0.1149
30415W        W46489   7.924   0.266  12.226 -0.2383  0.0364  0.1391
30416W        W46490   4.216   0.248  11.823  0.0597  0.0851  0.1942
30417W        W46491   5.495  12.693   1.292  0.2287 -0.0986 -0.1723
30418W        W46492  14.271   1.582  13.423 -0.1640  0.1740 -0.1265
30419W        W46493   2.604  12.174  12.355 -0.2664  0.2937  0.1945
30420W        W46494   6.623   4.387  13.433 -0.3941  0.1388  0.2895
30421W        W46495  10.537  16.634   3.751 -0.1499 -0.2309 -0.1606
30422W        W46496   2.488  15.620  12.396  0.3214 -0.0755 -0.0453
30423W        W46497  15.987  17.319  10.528 -0.5361 -0.2812 -0.2934
30424W        W46498   8.834  13.686   2.705 -0.3198  0.1546  0.0406
30425W        W46499  16.415  19.205  13.768  0.1127 -0.0895 -0.2301
30426W        W46500  15.951  11.404   0.316  0.1449  0.0711  0.0915
30427W        W46501   7.548   1.690   3.495  0.2081 -0.1314 -0.1472
30428W        W46502  18.465  13.044   9.344  0.1731 -0.3297  0.3872
30429W        W46503   5.649  18.177   0.057 -0.1648 -0.1020  0.2355
30430W        W46504  13.410  18.965  11.324 -0.2452 -0.0914  0.0594
30431W        W46505  13.630   9.778  13.564  0.2379  0.0592 -0.0965
30432W        W46506  19.242   3.055  14.054 -0.1345 -0.2317  0.1473
30433W        W46507  17.022  17.220   3.882  0.3259  0.0971 -0.1805
30434W        W46508  15.895   6.869  10.600  0.1851  0.1652 -0.2215
30435W        W46509  10.130  10.092  11.689 -0.4654  0.1158  0.2840
30436W        W46510   2.014   2.899   9.963  0.0145  0.1179 -0.0129
30437W        W46511   6.833  13.675   1.213 -0.1147  0.0740  0.1263
30438W        W46512  14.613   9.554   3.760  0.4275  0.1792 -0.2152
30439W        W46513  13.659   4.654   3.132 -0.0274  0.1193 -0.2833
30440W        W46514  18.166  13.243   5.775 -0.0322 -0.2578 -0.0797
30441W        W46515  16.394   7.309  11.261 -0.0817  0.0452 -0.0258
30442W        W46516   8.036   7.844   3.150 -0.2904 -0.0424  0.4800
30443W        W46517   7.162   2.885   4.247  0.1772 -0.0607  0.0180
30444W        W46518  19.173   5.987  14.823  0.0933 -0.0570  0.2255
30445W        W46519   1.459   4.183  10.836 -0.0404 -0.2326 -0.0570
30446W        W46520   7.820   2.865  13.921  0.1163 -0.0415 -0.1483
30447W        W46521   9.298  18.756  12.556  0.0604  0.1025  0.0453
30448W        W46522  15.068   0.993  13.929 -0.0244  0.0460  0.0429
30449W        W46523  12.609   6.192  13.431  0.1082  0.0042 -0.2352
30450W        W46524  18.361   7.703   2.299 -0.1187  0.2886 -0.2405
30451W        W46525  10.129  17.461   2.795  0.1335  0.0289  0.2669
30452W        W46526   8.098   4.071  14.990  0.3336 -0.1125  0.0042
30453W        W46527   8.822  15.819  14.380  0.0217 -0.2214 -0.0729
30454W        W46528   0.573   3.288   1.939 -0.4337 -0.0511  0.0331
30455W        W46529  12.813   7.008  13.548 -0.3952 -0.1884  0.0427
30456W        W46530   6.502  10.991   2.454  0.0173 -0.1150  0.2385
30457W        W46531  11.580   1.296   4.422 -0.0605  0.0276  0.0672
30458W        W46532   1.301  13.142   2.490 -0.0832 -0.2235 -0.1934
30459W        W46533   5.816  17.581   2.804 -0.1310  0.0776  0.0576
30460W        W46534  13.539   9.618   0.165 -0.0909  0.0131 -0.4597
30461W        W46535  17.056  16.156   5.449 -0.0161  0.1474  0.3621
30462W        W46536  14.935   1.506  10.070 -0.2455 -0.1565 -0.2033
30463W        W46537   6.672   2.578  13.765 -0.0258  0.2559  0.1013
30464W        W46538   5.380  18.638  13.788  0.1720  0.1769 -0.1822
30465W        W46539   9.124   9.217   0.337  0.1611  0.2572 -0.0088
30466W        W46540   4.482   5.437  12.200 -0.1589  0.1928 -0.0383
30467W        W46541   9.501  17.520   0.050 -0.0771  0.3994 -0.3377
30468W        W46542  10.286  19.177  13.187 -0.1115 -0.0541  0.1993
30469W        W46543   3.023   0.248   0.870  0.0981 -0.0491  0.1890
30470W        W46544  16.666   7.442   2.871 -0.3199 -0.0766 -0.2276
30471W        W46545  19.139  12.671   2.847  0.2184 -0.0959 -0.1729
30472W        W46546   8.880  10.509   2.371 -0.0768  0.0029  0.2427
30473W        W46547  17.337   3.536   3.919 -0.0732  0.0912  0.4707
30474W        W46548   5.842  11.170   1.488 -0.1683  0.0806 -0.0381
30475W        W46549  14.376   4.502  11.046  0.1143  0.3339  0.0728
30476W        W46550  18.149   9.905   8.817  0.0904  0.2835 -0.0828
30477W        W46551   3.065  12.193   4.697  0.0613  0.1393  0.0278
30478W        W46552   3.162  11.237  11.631  0.0750 -0.2005  0.1587
30479W        W46553  14.047   9.332  11.816 -0.0498 -0.1690  0.5029
30480W        W46554  17.846  13.938  13.184 -0.0244  0.3229 -0.3263
30481W        W46555  10.431   9.411  12.421  0.6076 -0.3876 -0.1109
30482W        W46556   8.580  15.960  13.933 -0.1401 -0.0976  0.1378
30483W        W46557  19.124  11.227  13.652 -0.0210 -0.0864  0.2405
30484W        W46558   4.113   5.277  10.837 -0.1453  0.0340 -0.1613
30485W        W46559  10.565  16.073  11.102  0.1715 -0.0955 -0.2474
30486W        W46560   7.383   4.240  12.936  0.0507 -0.2088  0.0577
30487W        W46561  15.209  13.142  10.011  0.1293  0.0329 -0.0824
30488W        W46562  15.369  18.570   1.044  0.1385  0.4283 -0.0594
30489W        W46563  12.490  14.773   5.150  0.5665  0.2763  0.1578
30490W        W46564   3.098   6.129   4.452 -0.2733 -0.1545  0.0354
30491W        W46565  10.395   8.774  13.095 -0.3825  0.0658 -0.1222
30492W        W46566  18.281   3.138   1.345 -0.0060  0.1779 -0.0702
30493W        W46567   7.452   7.083   3.696  0.1455 -0.0060 -0.0493
30494W        W46568   3.851   7.203   9.858  0.4692 -0.0480  0.0644
30495W        W46569  17.127   6.627   1.268 -0.0843 -0.0972  0.1423
30496W        W46570   3.068   0.440   5.213  0.1574 -0.3508  0.1465
30497W        W46571  17.161   1.051   0.879  0.1584  0.0131 -0.3326
30498W        W46572  14.896   2.062   2.241 -0.0584  0.1820 -0.1561
30499W        W46573  16.005  18.315   0.396  0.2328 -0.0650  0.1416
30500W        W46574   2.800   7.623   3.997 -0.0509 -0.2004  0.2020
30501W        W46575  15.554  17.848   2.188  0.0808 -0.0130  0.2495
30502W        W46576   0.601  11.306  10.651 -0.0263 -0.2365  0.4551
30503W        W46577   9.357   1.234  13.909 -0.1446  0.3105  0.0733
30504W        W46578   2.291   4.485  12.726 -0.2722 -0.2417  0.1353
30505W        W46579  17.475  11.088   3.886  0.1470 -0.0994  0.0946
30506W        W46580  10.665   5.454   6.029 -0.1604 -0.1054  0.2980
30507W        W46581  11.788  17.336  15.050  0.0232 -0.1440  0.0960
30508W        W46582   0.139  18.037   3.040  0.1069  0.1170  0.0622
30509W        W46583   2.002   3.565  14.031 -0.3115  0.1214 -0.3411
30510W        W46584   0.373  18.291  10.390 -0.1693  0.2485 -0.0869
30511W        W46585   7.388   5.959  11.415 -0.2411 -0.0711  0.0633
30512W        W46586  13.622  10.195  11.578  0.2446 -0.0932  0.0279
30513W        W46587   1.466  15.164   0.593 -0.2633 -0.1267  0.3573
30514W        W46588   2.004  16.584   1.617 -0.0123  0.0648 -0.1394
30515W        W46589  11.185  13.792   0.665  0.0813 -0.0314 -0.2930
30516W        W46590   8.476   9.528  11.990  0.1886 -0.3514 -0.0368
30517W        W46591  15.261   0.047   1.845 -0.0458  0.0117  0.1137
30518W        W46592   9.009  19.244  11.308  0.2614 -0.3619 -0.1778
30519W        W46593   2.899   7.945   1.041  0.2488  0.1387  0.1790
30520W        W46594   9.359  15.803   5.162  0.0822 -0.2744 -0.0979
30521W        W46595   4.225  12.728  11.141 -0.0969 -0.0976  0.1062
30522W        W46596  10.031   9.133   1.365 -0.0797 -0.0314 -0.1938
30523W        W46597  17.005   2.634  14.137  0.1939  0.0769  0.1465
30524W        W46598   7.163   8.648   0.457 -0.1391  0.2859 -0.2066
30525W        W46599  18.722   8.373   3.950 -0.1559  0.0751  0.1188
30526W        W46600   3.455  17.290   1.147  0.1408  0.1173  0.1239
30527W        W46601  16.251  14.024   4.444  0.1329  0.0634  0.1851
30528W        W46602  11.153  16.213  11.786  0.1881  0.1687 -0.0611
30529W        W46603   1.649  17.991   4.053 -0.0787 -0.2866  0.0017
30530W        W46604  14.261   7.991   1.824 -0.3597 -0.2445  0.4364
30531W        W46605   4.643  16.697   5.598  0.3567 -0.0755 -0.1000
30532W        W46606   4.569  16.306  14.000 -0.2897  0.0996 -0.0402
30533W        W46607  13.052  16.681   2.308 -0.1491  0.4288 -0.0905
30534W        W46608  18.151  13.398   3.777  0.3304  0.0326 -0.0960
30535W        W46609   5.640   3.304   0.865 -0.0011 -0.2717 -0.2064
30536W        W46610  14.427  19.033  14.989  0.2358  0.0235  0.2671
30537W        W46611  10.807  15.265  14.386  0.0089  0.2290 -0.0812
30538W        W46612   6.355   1.660   4.958  0.0616  0.0628 -0.0679
30539W        W46613   3.458   1.420  13.693  0.2068 -0.0714 -0.0606
30540W        W46614  18.917  15.039  14.616 -0.1345  0.2023  0.0152
30541W        W46615   6.288  16.181   3.889  0.1656  0.0864 -0.2354
30542W        W46616   9.317  14.304  11.043 -0.4034 -0.0046  0.0535
30543W        W46617  16.801   2.939   2.949 -0.0355 -0.0436 -0.1403
30544W        W46618  13.483  16.780  12.129 -0.1625 -0.2098  0.3019
30545W        W46619   5.734   2.881  13.742 -0.0820  0.1050 -0.0247
30546W        W46620  12.410   5.960  11.545  0.3864 -0.3259  0.2924
30547W        W46621  16.903  13.148  11.388 -0.1561  0.0243 -0.2343
30548W        W46622  16.912  14.434  12.123  0.0003 -0.0462  0.0248
30549W        W46623  12.095   9.747  11.021 -0.1749 -0.0758 -0.3032
30550W        W46624  17.844   2.588   2.633  0.0243 -0.4283 -0.1522
30551W        W46625   5.552  13.900   4.744 -0.0327 -0.3086 -0.0453
30552W        W46626  17.239   8.954   1.149 -0.0632 -0.1502  0.2766
30553W        W46627  13.692   9.444  14.767 -0.0320  0.1627 -0.1742
30554W        W46628   0.436  17.162   2.141  0.2458 -0.1610 -0.3810
30555W        W46629  17.178   2.748   2.649  0.2220  0.0955  0.0867
30556W        W46630  10.170  15.909   3.591 -0.2832 -0.4563 -0.1098
30557W        W46631  14.585   5.547   0.321 -0.0164  0.1052  0.0596
30558W        W46632   1.304   1.327  15.014  0.2347  0.3712  0.0943
30559W        W46633   9.637  19.220  14.693  0.0166 -0.0386 -0.1959
30560W        W46634   5.109  17.863   4.969  0.2373  0.1885 -0.0976
30561W        W46635   5.126  15.337   2.605  0.0070  0.1599  0.2215
30562W        W46636  11.327   1.448  10.166  0.1223 -0.0291  0.1648
30563W        W46637  12.888   2.486  13.595  0.0336  0.2675  0.0139
30564W        W46638  12.159   2.059  14.779 -0.1119  0.1303  0.1492
30565W        W46639   0.794  15.682   4.471 -0.0057 -0.0172 -0.2146
30566W        W46640   7.576   5.492  11.484 -0.0465  0.0046 -0.1111
30567W        W46641   8.079   9.462   5.077  0.0493  0.0911  0.0834
30568W        W46642   1.717   6.619   3.570  0.4587  0.3507  0.2034
30569W        W46643   3.009  17.157  11.565  0.2260  0.0159 -0.1045
30570W        W46644  12.568  13.221  11.408 -0.2277 -0.0143  0.0102
30571W        W46645  18.607  17.415   9.859 -0.0329 -0.1519  0.0438
30572W        W46646  12.114  16.723   3.612  0.0812 -0.2174 -0.1073
30573W        W46647   2.717  15.446  14.685  0.1329 -0.4429 -0.0843
30574W        W46648  18.632  17.214   0.047 -0.0121 -0.1044 -0.2801
30575W        W46649   6.407  19.266   0.670  0.3950 -0.0509  0.0595
30576W        W46650  13.680  17.858   0.925  0.0726  0.0228 -0.2269
30577W        W46651   3.514  16.458   2.077 -0.0378 -0.1694 -0.1542
30578W        W46652   5.551   3.359   4.815  0.1010  0.2299 -0.1000
30579W        W46653  18.877   8.069  10.542 -0.1867 -0.0690 -0.0757
30580W        W46654   3.138   6.652   0.304 -0.0729 -0.3412  0.0170
30581W        W46655   2.752  13.409  13.161 -0.3328 -0.0928  0.2900
30582W        W46656  10.807  17.508  13.660  0.0737 -0.1726  0.0277
30583W        W46657   2.476  15.635  14.157 -0.0279  0.4096  0.2008
30584W        W46658  14.860  18.762  12.300 -0.0033 -0.0151  0.0477
30585W        W46659  10.927  11.696   9.859 -0.2648  0.5097 -0.1437
30586W        W46660  12.064  15.759   4.197  0.1024 -0.2505  0.0958
30587W        W46661   1.681   4.764   4.654  0.2906  0.0693 -0.2841
30588W        W46662   7.202   1.937   2.792  0.2139  0.1199  0.0773
30589W        W46663  12.827   5.530   2.183  0.0234 -0.0152  0.0670
30590W        W46664   3.428   1.879  14.686 -0.2394  0.1515  0.0740
30591W        W46665   1.851  19.041  11.404 -0.0595 -0.2828 -0.1269
30592W        W46666  15.280  18.625   0.020  0.4310 -0.0676 -0.3570
30593W        W46667   9.216  16.743  12.729 -0.1458  0.2085 -0.2152
30594W        W46668   1.449   8.417   2.579 -0.2153  0.0658  0.0681
30595W        W46669  18.909  11.794   0.417  0.0266  0.2278  0.4915
30596W        W46670   5.166  15.918   1.541  0.2301  0.0051  0.2681
30597W        W46671  14.757  13.553  11.867 -0.1264  0.0269 -0.0048
30598W        W46672   3.191  10.235   3.129 -0.1248  0.2401  0.0017
30599W        W46673   2.513  18.826  13.940  0.1334  0.0021  0.0532
30600W        W46674   1.471   9.306  13.364  0.1711 -0.4765 -0.1779
30601W        W46675  12.029   5.870  11.880 -0.1712  0.1158 -0.0211
30602W        W46676  15.086  18.210   1.310 -0.1549  0.1895 -0.0814
30603W        W46677  11.477   1.324   2.872  0.0229  0.0317  0.4047
30604W        W46678   6.688  14.435   3.507 -0.1465  0.1568 -0.0386
30605W        W46679  10.969   8.980  14.719  0.3749 -0.5359 -0.1534
30606W        W46680  18.420  10.930   9.869  0.1826 -0.1281  0.2209
30607W        W46681   2.486  12.325  10.723 -0.3596 -0.3682  0.1480
30608W        W46682   2.246   9.591  11.478 -0.2091 -0.3697 -0.2157
30609W        W46683  13.946  11.930  12.862  0.1774 -0.0613  0.0980
30610W        W46684   2.714   6.865   3.536  0.2639  0.2052 -0.1389
30611W        W46685   2.530   9.304  12.339 -0.0512  0.3848 -0.2687
30612W        W46686  17.192  16.746   9.024 -0.2168 -0.4781 -0.5536
30613W        W46687  18.322  12.643  13.516 -0.1783  0.2277 -0.0320
30614W        W46688  17.727   6.561   0.642  0.1250  0.0276  0.0442
30615W        W46689   2.874   0.216   2.486  0.0076  0.2359  0.0857
30616W        W46690   7.227  15.940   3.006 -0.0234 -0.3328 -0.3125
30617W        W46691   4.374   6.186   4.968 -0.0092  0.1728  0.1115
30618W        W46692   5.435   8.756  12.947  0.2202  0.2002 -0.0776
30619W        W46693   6.950  10.729  14.965  0.1958 -0.1419  0.0529
30620W        W46694  14.271  13.015   1.394  0.3576 -0.3197  0.0410
30621W        W46695  14.239  17.078   0.926  0.2965  0.0910 -0.3796
30622W        W46696  18.109  11.310   9.954  0.0406  0.3638 -0.0876
30623W        W46697  13.537   7.148   4.805  0.4700  0.0058  0.0631
30624W        W46698  14.410  11.416   1.834 -0.1872 -0.1772  0.4486
30625W        W46699  14.827   9.089   4.397  0.1339  0.0801 -0.3128
30626W        W46700  16.739  10.419  12.429  0.1718  0.0168 -0.0763
30627W        W46701   4.598   0.685  10.107  0.1816 -0.1400  0.0276
30628W        W46702   8.259   0.253   2.797 -0.0378  0.1538 -0.0147
30629W        W46703   7.404  12.806   3.841  0.0007 -0.0968 -0.0743
30630W        W46704  18.815   6.093  12.784 -0.0846  0.0542 -0.0705
30631W        W46705  17.773  12.443  14.269  0.0455  0.0175  0.0341
30632W        W46706  16.295  14.189   3.439 -0.1051 -0.2422  0.0174
30633W        W46707  11.598   6.843   9.737  0.0308  0.1218  0.3436
30634W        W46708   4.315  15.813  11.594 -0.2892 -0.2701 -0.0695
30635W        W46709  10.916  12.329  11.597 -0.0491 -0.0473 -0.1315
30636W        W46710  10.510   2.487  10.138  0.1730 -0.1198 -0.2083
30637W        W46711   1.806   6.173   4.216  0.0513  0.1025 -0.3661
30638W        W46712  11.537   1.582  14.108  0.0557  0.1123  0.0281
30639W        W46713   5.044  14.353   1.853  0.5000 -0.0225  0.0104
30640W        W46714   3.802  18.468   0.240  0.0960 -0.1898 -0.2726
30641W        W46715   5.221  12.934  14.696 -0.0397  0.0619 -0.3537
30642W        W46716  11.528  13.898   3.427  0.2075 -0.0993 -0.0472
30643W        W46717  12.521  13.753  12.582 -0.1603 -0.2277  0.0824
30644W        W46718   3.912   9.139  10.922  0.2654 -0.0203 -0.0636
30645W        W46719  17.258   0.068   2.600  0.0939  0.2754 -0.0426
30646W        W46720  13.560  17.468  10.166 -0.3523 -0.2087 -0.0651
30647W        W46721  13.430   0.390   2.991 -0.0660 -0.2028 -0.1468
30648W        W46722  12.780   4.680  12.581 -0.2630  0.3351  0.0456
30649W        W46723  15.872  19.206   4.082 -0.0473  0.0138  0.1896
30650W        W46724   3.584   9.896  14.234 -0.0710  0.0529  0.1240
30651W        W46725   6.996   4.974  11.147  0.0115 -0.0962 -0.3475
30652W        W46726  12.648  11.764  14.821 -0.3215 -0.0975  0.2065
30653W        W46727  13.783  16.297   2.986 -0.0443  0.0559  0.1784
30654W        W46728   6.233   5.058   3.919  0.0914  0.1640 -0.2470
30655W        W46729  14.876   7.289   0.146 -0.0034  0.1656 -0.0216
30656W        W46730   8.155   0.530   1.375 -0.2445 -0.1430 -0.1070
30657W        W46731   8.239  19.189  12.020  0.0841  0.2423  0.3216
30658W        W46732  11.793   6.349   4.149 -0.0282  0.2643  0.0703
30659W        W46733   7.979   6.639  13.062  0.2463 -0.3481  0.2245
30660W        W46734   4.819   5.534   4.308 -0.1423  0.0382 -0.1217
30661W        W46735   5.171   4.670  12.368 -0.1021 -0.1379 -0.1536
30662W        W46736  10.302  16.063  13.525  0.0020 -0.0782  0.2793
30663W        W46737  18.558   3.535   1.650  0.2233  0.0112  0.0221
30664W        W46738  11.841   2.482   3.234  0.1048 -0.0339 -0.1317
30665W        W46739   6.867  15.654  13.373 -0.0004  0.2377 -0.4257
30666W        W46740   6.119   5.835   3.491  0.1319  0.1109 -0.0499
30667W        W46741  17.537  11.490  11.264 -0.1622 -0.2024  0.0752
30668W        W46742   3.820   4.617  14.767  0.1448  0.2749  0.1343
30669W        W46743  11.863   6.817   4.581  0.0836  0.0219  0.1567
30670W        W46744   3.107  18.419  14.124  0.3577 -0.1973  0.0366
30671W        W46745  12.833  17.059  13.804 -0.0871 -0.3221  0.3162
30672W        W46746   2.912  15.627   9.478  0.0960  0.1323  0.0493
30673W        W46747   6.611  14.376   0.279  0.2810 -0.1794 -0.4481
30674W        W46748   3.976   0.605   1.328  0.0054  0.2025  0.0583
30675W        W46749  10.131  15.167   0.862  0.0807  0.2593 -0.1219
30676W        W46750   6.251   1.088  14.654 -0.2533 -0.1027  0.2982
30677W        W46751  16.208  13.532   1.274 -0.0156 -0.0310 -0.2028
30678W        W46752  13.696   1.798  10.462  0.1412 -0.1896  0.4690
30679W        W46753   5.296   1.149  11.777 -0.1728  0.0291 -0.0554
30680W        W46754   7.456  12.758  14.994 -0.1011  0.2210 -0.1218
30681W        W46755  17.102   6.686   3.231  0.0983  0.3190 -0.1590
30682W        W46756   2.026  15.098   5.382  0.1359  0.0201 -0.2183
30683W        W46757   5.579  17.333   3.651 -0.0953  0.2725  0.0090
30684W        W46758   2.680   9.185   4.264  0.2410 -0.0873  0.5047
30685W        W46759  16.434  19.130   4.113 -0.0253  0.2523  0.1210
30686W        W46760  17.968   7.306   3.770 -0.1458 -0.2458  0.3749
30687W        W46761  12.085  17.810   2.036 -0.1883 -0.0075  0.1373
30688W        W46762  18.701  10.151  11.910  0.0049  0.3453  0.0081
30689W        W46763  16.867   3.737  14.039 -0.0915  0.0060 -0.0359
30690W        W46764  12.951  18.760   3.958  0.0821  0.2048  0.1159
30691W        W46765   4.827  11.628  11.984 -0.1092  0.1348 -0.0321
30692W        W46766   7.010  15.753   3.937  0.0142  0.0587 -0.0068
30693W        W46767  19.297  15.854   2.111  0.0391  0.0697  0.1135
30694W        W46768   9.995   5.995  12.714  0.1656  0.0199 -0.1533
30695W        W46769   4.708   1.142  10.125  0.1089  0.0570  0.3296
30696W        W46770   5.929  15.479   4.655 -0.0442  0.0557  0.0765
30697W        W46771   2.599  15.212  10.741  0.1939 -0.0686 -0.1589
30698W        W46772  10.065  17.671   4.029  0.5976  0.2371 -0.0670
30699W        W46773   4.040  14.926   4.429  0.2011 -0.3233  0.0479
30700W        W46774   2.401   4.500   5.590 -0.1263  0.0913  0.1051
30701W        W46775  17.460  15.841   1.464 -0.0149 -0.1128 -0.3350
30702W        W46776  10.579   0.579  13.683  0.0546  0.1205 -0.4793
30703W        W46777  12.370  17.606   3.642  0.1420  0.3219 -0.0551
30704W        W46778  16.697  12.669  12.955  0.2717  0.1827 -0.0698
30705W        W46779   6.576   8.091   3.280  0.0877  0.1127  0.2036
30706W        W46780   0.640   6.163   0.475  0.2286 -0.1116  0.0642
30707W        W46781  18.300   9.753  11.809 -0.3916 -0.1057  0.0241
30708W        W46782  12.727   1.888   0.275  0.1776 -0.0472 -0.0725
30709W        W46783   7.813  17.270   2.993 -0.0958 -0.0658 -0.4818
30710W        W46784   1.312   6.706  10.020  0.2192  0.0177 -0.1247
30711W        W46785   1.253   0.922   4.103  0.0215  0.1134 -0.0287
30712W        W46786   1.074   7.350  12.190  0.0935 -0.0172  0.2856
30713W        W46787  12.808  11.774  10.594 -0.2504  0.0744 -0.0625
30714W        W46788  17.820  13.411  13.320  0.3254 -0.0795  0.0880
30715W        W46789   7.032   7.972  10.620 -0.2624  0.1338  0.2405
30716W        W46790   5.151  12.986   2.633 -0.0499 -0.0462  0.0009
30717W        W46791  16.359  13.051   2.263 -0.2334 -0.4395  0.0485
30718W        W46792   9.136   0.698  14.285  0.0295 -0.2004  0.0712
30719W        W46793  19.138   6.584   3.992  0.1647  0.1640  0.2556
30720W        W46794   0.740   3.790   5.355  0.0944 -0.0273 -0.2854
30721W        W46795   7.998   7.916   5.331  0.1983 -0.0253  0.1541
30722W        W46796  15.411  16.356  11.769 -0.0800 -0.0506 -0.1993
30723W        W46797   8.868  15.025   1.853  0.0708  0.4357  0.1107
30724W        W46798  13.213   1.625  12.265  0.0244  0.1214 -0.1136
30725W        W46799   4.588  11.020   3.094  0.3343 -0.1345  0.1106
30726W        W46800  15.967  14.233  11.051 -0.0012  0.0737 -0.5447
30727W        W46801  19.147  13.871  12.825  0.0004  0.1333  0.1039
30728W        W46802   0.060   7.158  14.067  0.1572  0.0698  0.3198
30729W        W46803  14.640  12.018  14.772  0.1600  0.1786 -0.0289
30730W        W46804   6.530  14.667   4.251  0.2687 -0.2749 -0.0585
30731W        W46805  15.215  14.520  10.732  0.1863 -0.2001  0.0477
30732W        W46806  16.470   6.376  14.215 -0.2113 -0.1919 -0.1254
30733W        W46807   9.552  15.139   0.733  0.0234  0.2846  0.1030
30734W        W46808  10.264  11.897  11.135  0.2008 -0.0491  0.2770
30735W        W46809   0.617  11.839  13.726  0.2862 -0.0068 -0.4252
30736W        W46810  17.793   5.279   0.672 -0.0659 -0.0382 -0.2400
30737W        W46811   7.219  18.285   3.426  0.2159 -0.0232  0.1720
30738W        W46812  11.280   6.940  14.295  0.2332  0.0537  0.1061
30739W        W46813   2.401  10.998  12.061  0.0908  0.2358  0.3458
30740W        W46814  11.109   5.629   5.058  0.0055  0.2545 -0.0328
30741W        W46815  17.182   3.269  12.667  0.3369 -0.0877  0.1848
30742W        W46816   7.332  11.206  10.367  0.0039 -0.1706 -0.1983
30743W        W46817  18.574  16.707   9.774  0.0389 -0.1358  0.2405
30744W        W46818   5.135  17.414   1.760 -0.0445 -0.1060 -0.0592
30745W        W46819  14.007   8.901   3.745 -0.2602 -0.1741 -0.1350
30746W        W46820  16.058   0.704  12.914  0.0535  0.1321  0.0401
30747W        W46821  13.318   2.857   2.877  0.0341  0.2283 -0.0757
30748W        W46822   9.303   6.012   3.091  0.1129 -0.1906  0.2605
30749W        W46823   6.949  16.217   1.643 -0.2795 -0.2423  0.0324
30750W        W46824  12.926   2.994   0.156  0.0295 -0.3715  0.1376
30751W        W46825  11.322   8.281   2.094  0.1722 -0.0257 -0.1465
30752W        W46826  15.031  15.744  10.328  0.1747 -0.0334  0.0497
30753W        W46827  16.234   6.484  10.611 -0.1483 -0.0776 -0.1377
30754W        W46828   2.982   6.780  12.761 -0.0253  0.1616 -0.1622
30755W        W46829   9.668   4.303  12.942  0.3250  0.1293  0.1806
30756W        W46830   6.806  15.786   0.409 -0.4262  0.0826 -0.1798
30757W        W46831  11.372   8.462  14.185  0.0231 -0.0188  0.1433
30758W        W46832  17.733  17.079  14.599 -0.0343  0.0846 -0.0736
30759W        W46833   1.106   5.188  11.075  0.0392  0.0808 -0.1576
30760W        W46834   8.754  17.233  13.489  0.1348 -0.1183  0.2050
30761W        W46835   1.491  11.927   2.956  0.0926 -0.1532 -0.1639
30762W        W46836   8.935  16.240   3.980 -0.1664 -0.0840 -0.0144
30763W        W46837   5.382   1.632   0.688 -0.0494 -0.1535 -0.2443
30764W        W46838  17.937  14.932   4.855 -0.0721  0.0053 -0.2227
30765W        W46839  15.358  11.262   4.478  0.1427  0.1013  0.0578
30766W        W46840  16.852  11.690  14.640 -0.2605  0.3262 -0.1873
30767W        W46841   8.091   4.158  13.711 -0.0297 -0.2477 -0.1193
30768W        W46842  17.436   1.350  10.786 -0.0260  0.2698 -0.1036
30769W        W46843   8.242   8.674  12.304  0.0412 -0.0169 -0.1277
30770W        W46844  17.247   3.070   2.172 -0.2323 -0.0815  0.2569
30771W        W46845   8.280   4.656   2.650  0.0401 -0.0203  0.2104
30772W        W46846   3.580   3.588   2.688 -0.0275  0.1332  0.2832
30773W        W46847  11.259   6.797   0.531  0.1893 -0.2511 -0.0533
30774W        W46848   5.349  10.044  12.556  0.1713 -0.0375 -0.1326
30775W        W46849   8.044   4.952  10.178  0.1543 -0.1755 -0.2267
30776W        W46850  12.082   8.727  11.097 -0.1436 -0.2383 -0.0202
30777W        W46851   3.777   7.275  14.230  0.0902  0.2672 -0.2924
30778W        W46852   5.391  15.784  10.634 -0.0301 -0.1773 -0.4700
30779W        W46853  18.222  17.656  10.796  0.1381 -0.2151  0.1490
30780W        W46854   4.364   7.992  12.861 -0.3238  0.1938  0.4823
30781W        W46855   2.601  15.457   3.275  0.3710  0.2496 -0.0924
30782W        W46856   2.731  16.996   2.172  0.1453 -0.4694 -0.1673
30783W        W46857   6.057   6.621   1.447  0.1585 -0.2605 -0.1863
30784W        W46858   5.812   3.611  12.462 -0.0262  0.3378  0.2183
30785W        W46859   9.709   6.766   4.170 -0.2930  0.0482  0.1579
30786W        W46860   6.021  10.035  12.755 -0.1365  0.1808  0.2186
30787W        W46861  18.298  17.053  11.162 -0.3661 -0.1907 -0.2476
30788W        W46862   9.509  12.240  12.748  0.4194 -0.2871 -0.1323
30789W        W46863   7.395   1.819  13.125 -0.0037 -0.0033  0.1375
30790W        W46864  13.357  11.011  13.402 -0.0272 -0.0720  0.0101
30791W        W46865   1.756   9.020  11.984  0.0165 -0.0589 -0.1075
30792W        W46866   0.810   5.853   3.477 -0.0898 -0.2868 -0.0213
30793W        W46867  15.963   8.325   4.296  0.1830 -0.0623  0.3178
30794W        W46868   8.757   3.093  14.166  0.0599 -0.1886  0.0271
30795W        W46869   2.997  14.279   3.781 -0.1423  0.0885  0.1073
30796W        W46870  11.864   4.422   3.576 -0.1607  0.2205 -0.1940
30797W        W46871  17.982  17.658  12.213 -0.2081 -0.0395  0.0529
30798W        W46872  14.344  15.754   4.392  0.0635 -0.1341 -0.1436
30799W        W46873   5.350   1.385  13.555  0.0752  0.0882 -0.0161
30800W        W46874   3.762  16.866   1.936 -0.0258 -0.2095 -0.1322
30801W        W46875   7.158  12.284   0.692  0.1399  0.1879 -0.1381
30802W        W46876  11.016   2.145  11.586 -0.0145  0.5459 -0.5084
30803W        W46877  12.832  12.679  12.304 -0.1627 -0.1258  0.2138
30804W        W46878  10.998   2.546   4.661  0.3453  0.0991 -0.2703
30805W        W46879   5.786   2.032  10.208  0.3223  0.0640  0.0818
30806W        W46880  16.287   7.329   0.021  0.2241 -0.4164 -0.0635
30807W        W46881  17.687   9.178  11.338 -0.2093 -0.3140 -0.2102
30808W        W46882   1.221   6.631   3.503  0.0643 -0.0230  0.1758
30809W        W46883   7.851   6.706  14.467 -0.3597 -0.0256  0.0662
30810W        W46884  12.497   6.619   1.000  0.1867 -0.2674 -0.0357
30811W        W46885  12.418  13.491   3.032 -0.1615  0.0110  0.1900
30812W        W46886  14.536   5.955   9.991  0.2289 -0.1313 -0.0031
30813W        W46887   2.774  13.185  12.356 -0.0197 -0.4271 -0.3297
30814W        W46888   0.069   7.540  12.498 -0.0199 -0.0103  0.0743
30815W        W46889  14.767  14.689  14.576  0.0928  0.2281 -0.0909
30816W        W46890  18.631  10.992   4.220 -0.0489  0.1275  0.2536
30817W        W46891   1.501  18.555   5.446  0.2764  0.0844  0.2155
30818W        W46892   1.749   7.761  11.615  0.2194  0.1356 -0.0637
30819W        W46893   6.410   3.698   4.699  0.1078  0.0599 -0.4434
30820W        W46894  18.605   7.200  11.672 -0.1438  0.0560 -0.2359
30821W        W46895  11.444  18.134  13.071 -0.0283  0.0136  0.2176
30822W        W46896  11.450   0.575  13.759 -0.2564 -0.0671 -0.0237
30823W        W46897   8.374  13.881   4.096  0.1214  0.0426 -0.1731
30824W        W46898   7.276  15.092   4.101  0.3170 -0.0749  0.0126
30825W        W46899  16.430   1.337   4.643 -0.4508 -0.0623 -0.0500
30826W        W46900  17.019  12.682   1.470 -0.0778  0.1616  0.1966
30827W        W46901   8.134  16.556   1.546 -0.3009 -0.0592 -0.0630
30828W        W46902  16.698  13.200   1.265  0.2135 -0.2071  0.3926
30829W        W46903   8.405  11.002  12.678 -0.1855  0.1468 -0.0672
30830W        W46904  12.536  11.940  12.831 -0.3099 -0.3826  0.0910
30831W        W46905  10.347   7.264  12.000  0.2607 -0.2311  0.0462
30832W        W46906  11.390   2.669   0.471 -0.1988 -0.1714 -0.2633
30833W        W46907  10.586   4.859   1.333  0.1754  0.1759  0.1084
30834W        W46908  14.949   3.297   0.819 -0.2779 -0.4123  0.1045
30835W        W46909  17.398  17.854   9.669 -0.0692 -0.3206 -0.3403
30836W        W46910   9.311  10.794   2.976  0.0024 -0.3065 -0.0123
30837W        W46911  15.600  18.212  13.736 -0.0687  0.4288 -0.2302
30838W        W46912  17.422  10.481  13.308 -0.1149 -0.0440  0.3458
30839W        W46913  16.550  14.962   0.476  0.0107  0.1506  0.0226
30840W        W46914   7.105   6.104  12.113 -0.0567  0.4150 -0.4576
30841W        W46915  14.313   4.173  14.384  0.0504  0.0460 -0.4225
30842W        W46916  18.813   1.461  12.390 -0.1012  0.2436 -0.4686
30843W        W46917  16.667   8.233  11.731 -0.1793 -0.3480  0.3312
30844W        W46918   0.992   8.487  13.499  0.4676  0.0707 -0.1741
30845W        W46919   4.162   2.587   2.947  0.1913  0.1541  0.1292
30846W        W46920  18.788  15.864   0.826  0.2198  0.1147 -0.1354
30847W        W46921  18.130   2.778  12.523  0.0329  0.0057 -0.0737
30848W        W46922  17.838   3.952  10.920  0.2838  0.0007 -0.1557
30849W        W46923   7.139   7.805   0.516 -0.3283  0.1374 -0.1556
30850W        W46924   7.185  17.867   3.026  0.0737 -0.0833  0.0317
30851W        W46925  18.529  16.370  14.560  0.1165  0.1734 -0.0530
30852W        W46926  13.961  13.015  14.963  0.0505 -0.1145  0.1090
30853W        W46927  15.173  18.102   3.434  0.0201  0.0362  0.1306
30854W        W46928   2.803  15.261  13.836  0.0577 -0.1334  0.2250
30855W        W46929   4.801   0.317   4.782  0.1386 -0.1476  0.0637
30856W        W46930   5.323   4.599   2.993 -0.2004  0.0116 -0.2599
30857W        W46931   2.733  10.713   2.699  0.0571 -0.2022  0.1815
30858W        W46932   0.162  16.519   5.456 -0.3967  0.2158 -0.3413
30859W        W46933  17.150  17.903   2.628  0.2545  0.1376  0.1568
30860W        W46934  14.712   2.420   4.057 -0.2213  0.0448 -0.2130
30861W        W46935   5.219   3.185   0.073 -0.1541  0.1770  0.1237
30862W        W46936  11.683   6.009  14.137 -0.2857  0.2720  0.0726
30863W        W46937   7.316  14.337   5.658 -0.0787  0.2434  0.0955
30864W        W46938  12.785   5.120   5.088 -0.4539 -0.1912 -0.0789
30865W        W46939   2.113   3.666   1.991 -0.0585  0.0903 -0.3301
30866W        W46940   9.384   6.844   2.344  0.1773  0.1124  0.0772
30867W        W46941  10.777  10.373   1.223 -0.5028  0.1545 -0.0812
30868W        W46942   1.734  17.643  10.396 -0.0498  0.3869  0.2005
30869W        W46943   3.093   7.735   4.549 -0.0223 -0.0886 -0.1903
30870W        W46944  18.550  12.812   2.767  0.1698 -0.1221 -0.2046
30871W        W46945   0.037   7.677  11.943  0.1713  0.0370 -0.0203
30872W        W46946  13.924  17.292   9.795  0.0669 -0.0625  0.2061
30873W        W46947   5.626   9.879  13.699  0.2155 -0.2725 -0.2406
30874W        W46948  18.915  13.050   2.567 -0.0810 -0.0208  0.0023
30875W        W46949   6.109  16.759  14.057 -0.1717  0.1697 -0.0206
30876W        W46950   6.443   3.341  10.052 -0.1394 -0.3637  0.1840
30877W        W46951  14.582  19.166  11.459 -0.3453  0.4565  0.1600
30878W        W46952   6.896  10.491  13.475 -0.3219  0.1269 -0.0392
30879W        W46953  18.530  10.942   2.744 -0.2470 -0.2162 -0.2158
30880W        W46954   2.177   3.255   3.141 -0.2279 -0.1543 -0.1474
30881W        W46955  11.976   3.062  14.962 -0.0545 -0.2239  0.1976
30882W        W46956   2.797  13.810   2.013 -0.3070 -0.1067  0.1454
30883W        W46957  15.195   5.319   4.604  0.7267 -0.0382 -0.1282
30884W        W46958   9.965   6.599  11.948  0.0977  0.4584  0.0652
30885W        W46959   0.794  13.735  12.020  0.3278  0.2736  0.1585
30886W        W46960  12.877  11.712  13.234  0.1334 -0.0850  0.2289
30887W        W46961  17.625   2.035   0.810  0.0657 -0.0766  0.1609
30888W        W46962  14.820   5.038   1.817 -0.2707  0.2010  0.2003
30889W        W46963  12.357   2.176  11.122 -0.4531 -0.1431  0.0696
30890W        W46964   5.732  16.444  12.810 -0.1052  0.0679 -0.3309
30891W        W46965   8.810   1.009  14.521 -0.2901  0.0863  0.0000
30892W        W46966   7.278   7.308   5.007 -0.0138  0.1725 -0.3129
30893W        W46967  16.771   8.758   1.119 -0.0015 -0.3725 -0.0369
30894W        W46968   6.762   6.854   3.263  0.1603 -0.0214  0.0518
30895W        W46969  12.970   6.863  14.731  0.2428 -0.0099 -0.1637
30896W        W46970  10.991  18.110  12.330  0.2729 -0.0439 -0.2766
30897W        W46971  11.752  19.195   1.734  0.2503  0.1932  0.0616
30898W        W46972  11.251   8.355  12.578 -0.0767 -0.3576  0.1569
30899W        W46973   7.512   8.386   2.061  0.1055  0.2928  0.2167
30900W        W46974   1.851  17.809  12.847  0.2756 -0.0294  0.1295
30901W        W46975  13.131  16.032   9.354 -0.2354  0.0566  0.1091
30902W        W46976   5.524  18.086  10.341 -0.0275  0.1321  0.0785
30903W        W46977   5.791   9.709   5.068 -0.1726 -0.2555 -0.0077
30904W        W46978  14.908   6.871  12.548 -0.1495  0.0712  0.0370
30905W        W46979   3.127   3.299   5.253 -0.2602 -0.0115 -0.3190
30906W        W46980  13.720  11.165  11.582 -0.0098  0.0095 -0.2243
30907W        W46981   1.264   9.114   3.308  0.0295  0.0500 -0.2021
30908W        W46982  14.265   1.328   0.570 -0.0485 -0.1383 -0.2238
30909W        W46983   0.680   8.303  15.044  0.1833 -0.2631  0.1098
30910W        W46984   4.023  11.721   3.342  0.3150 -0.0477  0.2316
30911W        W46985   2.962  19.134   3.335 -0.1603 -0.3201 -0.0018
30912W        W46986  16.282  13.261  13.642 -0.5892 -0.1802 -0.2300
30913W        W46987  18.199  15.980   3.181  0.0268 -0.4630  0.0185
30914W        W46988   8.713  10.923  11.049 -0.0175  0.0568  0.0429
30915W        W46989   3.998  13.676  14.647  0.1104 -0.2298 -0.0039
30916W        W46990   4.111  18.190  11.895  0.0073 -0.1202  0.1593
30917W        W46991   3.362   7.914  11.482 -0.0712 -0.0914 -0.2038
30918W        W46992  15.820  15.927   1.531 -0.0951 -0.3347 -0.0840
30919W        W46993   8.360   7.119  11.310 -0.1359  0.3486  0.3032
30920W        W46994   6.918  18.254  14.843 -0.3158  0.0945 -0.3143
30921W        W46995   0.314   2.735  13.988  0.2220 -0.1774 -0.0674
30922W        W46996  11.070  16.764   2.418 -0.0633  0.1964  0.3063
30923W        W46997  12.694  13.897  10.615  0.4583  0.2145 -0.0496
30924W        W46998   2.824   7.860   2.354  0.2948  0.0476  0.0206
30925W        W46999   2.868  16.065   1.515  0.0894 -0.1662 -0.0930
30926W        W47000   6.435  15.639  12.644  0.2370  0.0661 -0.2358
30927W        W47001  15.877   7.270  11.032 -0.0178  0.1773 -0.3504
30928W        W47002   1.573   7.188   1.715  0.1067  0.2001  0.0370
30929W        W47003   0.505  16.689   1.482 -0.2033 -0.0415  0.1191
30930W        W47004   4.558   1.638   2.018  0.1456  0.0148 -0.0529
30931W        W47005   6.332  11.483   3.132 -0.0344  0.1268 -0.3067
30932W        W47006  17.690  11.386   5.314 -0.3263  0.0920 -0.1962
30933W        W47007  18.870   3.965   0.215 -0.0938 -0.3671 -0.1354
30934W        W47008   5.411   7.814   4.796 -0.0235 -0.1744  0.0231
30935W        W47009   7.737   6.708   1.844  0.1258 -0.2032  0.0067
30936W        W47010  10.506  15.462  12.193  0.0391  0.1141  0.0519
30937W        W47011  11.541   4.910   4.219 -0.2280 -0.0603 -0.0496
30938W        W47012   7.839  19.300   4.931 -0.2547  0.0332 -0.1171
30939W        W47013   9.098   0.822  12.932  0.3265  0.1176  0.1771
30940W        W47014  18.618   9.337  10.987  0.3181 -0.0819 -0.1408
30941W        W47015   5.091  19.140  10.701  0.1040  0.1667  0.1619
30942W        W47016   1.649   6.574  13.401 -0.0893 -0.1315 -0.2134
30943W        W47017  13.603  18.975   4.467 -0.0352 -0.0123  0.1921
30944W        W47018  13.642   8.492  14.928  0.2243  0.1424  0.0429
30945W        W47019  13.533   1.552   3.517  0.5373 -0.1366  0.1066
30946W        W47020  11.482   2.161   0.903 -0.4360 -0.1826 -0.3086
30947W        W47021   0.925  19.230  14.097  0.0926  0.4405  0.1213
30948W        W47022  12.901  12.278  12.012 -0.2028  0.2993  0.1932
30949W        W47023  17.710  16.579   3.744  0.1651  0.2538  0.1298
30950W        W47024   3.421  16.766  13.429  0.0592 -0.0626  0.0066
30951W        W47025   8.115   3.025   1.341  0.5507 -0.0306 -0.2666
30952W        W47026  15.655   9.552  12.870 -0.1467  0.0123  0.1496
30953W        W47027   0.491   5.484   4.581 -0.0766  0.2378 -0.0986
30954W        W47028  15.309   5.525  12.932  0.3079  0.2268 -0.0939
30955W        W47029  13.932   4.791   0.131 -0.1452  0.1764 -0.0851
30956W        W47030   0.619   1.700   5.421  0.1342  0.1065 -0.0852
30957W        W47031  13.687  13.798  13.578 -0.0610  0.1414  0.1245
30958W        W47032  10.527   3.474  13.186  0.1310  0.0405  0.0028
30959W        W47033  11.487   9.482   1.321 -0.1001  0.0612 -0.2155
30960W        W47034   3.926   4.054   2.545 -0.0804 -0.4292  0.4831
30961W        W47035  17.489   4.516  11.050  0.0908  0.2161  0.1703
30962W        W47036   6.408  10.673   2.094  0.3262  0.0042 -0.0542
30963W        W47037  18.217  17.039  10.492  0.1658  0.1389  0.1290
30964W        W47038   5.927  13.214   0.137 -0.3074  0.0710  0.0354
30965W        W47039  11.339  10.528  14.263  0.0065  0.0061 -0.0010
30966W        W47040  10.533   4.375   4.322  0.1830  0.2176 -0.0864
30967W        W47041   5.832  19.223  12.460 -0.0879  0.0620 -0.0059
30968W        W47042   9.599  16.575  14.447 -0.0346  0.0499 -0.5417
30969W        W47043  15.933  16.527  12.423 -0.4620  0.0333 -0.0124
30970W        W47044   6.251   1.065  13.604 -0.1748  0.3193 -0.2060
30971W        W47045  12.372   4.637  12.303 -0.0775  0.0401  0.2530
30972W        W47046  13.968   6.794  12.264 -0.3195  0.1181  0.3522
30973W        W47047   5.447   9.498  11.186 -0.3028 -0.4853  0.1104
30974W        W47048   3.283  15.092   2.444 -0.0792  0.2018  0.2116
30975W        W47049  15.602   0.657  11.845 -0.2817  0.0937  0.1140
30976W        W47050   9.867   2.012   2.127  0.0123 -0.1354  0.0050
30977W        W47051   0.181   3.100   0.636 -0.2964  0.1209  0.1416
30978W        W47052  12.708   9.840   4.918  0.0392 -0.2349  0.2451
30979W        W47053   1.618  11.983  11.211  0.5335  0.1150  0.0605
30980W        W47054   7.363  11.346   3.409  0.1152 -0.0818  0.2447
30981W        W47055  16.292  16.631  10.369 -0.1329 -0.1852 -0.1841
30982W        W47056   3.869  17.123  11.092  0.0502  0.4685  0.2678
30983W        W47057  15.375   4.063   1.386  0.2737 -0.1519 -0.0404
30984W        W47058   9.647   4.829  13.189 -0.4343 -0.4903  0.2437
30985W        W47059   8.800   6.228   4.546 -0.3568 -0.0855  0.1467
30986W        W47060   2.296   5.330  10.533  0.2032 -0.0420  0.1548
30987W        W47061   2.573  13.078  10.207 -0.2201 -0.0890  0.1983
30988W        W47062  15.915  17.980   4.703 -0.0016  0.3884  0.1078
30989W        W47063  10.819  11.135  11.348 -0.1831 -0.3650  0.0406
30990W        W47064   7.308  17.284   3.675  0.0324  0.0967  0.1607
30991W        W47065   6.087   8.471   6.231  0.2020  0.0674  0.1730
30992W        W47066  18.281  17.601   2.531 -0.1639 -0.0735  0.1931
30993W        W47067   1.754   6.388  11.004  0.0152  0.1134  0.1636
30994W        W47068   2.857   5.699  12.868 -0.1442  0.0941  0.1563
30995W        W47069  10.725   0.094   2.841 -0.1204  0.2109 -0.4385
30996W        W47070  19.114   3.291  13.638 -0.3437  0.4422  0.0152
30997W        W47071   5.249  12.115   4.992 -0.2097  0.1756 -0.0180
30998W        W47072  12.599   3.437  14.381 -0.3388  0.0461 -0.0047
30999W        W47073  16.152  12.564   2.975 -0.0991  0.3196  0.0173
31000W        W47074   4.458  18.087  14.480  0.0861  0.4177  0.0876
31001W        W47075  11.161   9.323   2.984  0.0880  0.3643 -0.3986
31002W        W47076   7.592  10.606   0.669  0.1558  0.0725  0.1943
31003W        W47077  19.132  18.594  11.127 -0.0620 -0.1598  0.0576
31004W        W47078  11.049   5.090   0.231 -0.0668  0.1744 -0.3819
31005W        W47079   1.847   4.634   5.230  0.0206  0.0354 -0.4199
31006W        W47080   3.618   6.830   4.725 -0.0392  0.3353  0.0146
31007W        W47081   4.066   9.983   2.428  0.0642 -0.0320  0.0067
31008W        W47082   3.919   1.146   4.439  0.2142 -0.0210  0.2239
31009W        W47083   3.818   3.340   4.032  0.0490 -0.1539  0.0095
31010W        W47084   1.745   7.381   2.298 -0.3219 -0.1994 -0.2175
31011W        W47085  15.688   4.131  11.101 -0.5027  0.2205  0.1622
31012W        W47086   2.220   4.409   1.353  0.1750  0.2448 -0.0700
31013W        W47087   9.317  14.188  11.627  0.1324  0.2331 -0.1780
31014W        W47088   2.669  13.731   2.898  0.1107  0.1285  0.0660
31015W        W47089  14.053  10.432   0.224  0.1014 -0.0016  0.0676
31016W        W47090  17.637   8.440  13.302  0.2776  0.0127  0.0037
31017W        W47091   9.036  11.953  12.878 -0.0611 -0.2065 -0.1270
31018W        W47092   0.593   3.329  10.932 -0.3521  0.2407 -0.0201
31019W        W47093   9.757   8.554   1.493  0.2864  0.0276 -0.1273
31020W        W47094  12.964  18.670   9.881  0.2733  0.0960  0.0934
31021W        W47095  18.854   4.807   0.564  0.0952 -0.2807 -0.2202
31022W        W47096  10.481  16.216  14.946 -0.3126  0.0150 -0.2324
31023W        W47097   9.941   2.202  12.265 -0.1080 -0.0465  0.4412
31024W        W47098   0.539  12.823  13.438  0.1224  0.2970  0.0411
31025W        W47099   3.147  16.599   5.059  0.1579 -0.0831  0.3911
31026W        W47100  17.559   8.007   0.369  0.0161 -0.0808 -0.0521
31027W        W47101  11.965   8.467   1.036  0.2150 -0.1474 -0.2927
31028W        W47102  12.916   9.446   4.646  0.2277 -0.0062  0.1411
31029W        W47103  18.180   1.136   1.388 -0.3103  0.0062  0.0429
31030W        W47104  11.019   4.560   4.559  0.1811 -0.1772  0.0392
31031W        W47105  14.273  11.118   2.706 -0.3066  0.0983 -0.3425
31032W        W47106   8.937  12.332   2.237 -0.1381  0.1398  0.1089
31033W        W47107  18.028  14.484   1.628  0.1062 -0.0354  0.1572
31034W        W47108  18.605  12.603  12.621  0.3052 -0.2063  0.1976
31035W        W47109  15.557  16.471   2.882  0.2035  0.0108 -0.1308
31036W        W47110  10.451   5.900  12.341  0.0065  0.2594  0.1420
31037W        W47111  17.323  14.753   4.138  0.1098 -0.0539 -0.4705
31038W        W47112  13.741   1.457   1.514  0.1182 -0.1476 -0.0644
31039W        W47113   3.687  12.899  14.718  0.0750 -0.1245  0.1443
31040W        W47114   1.379   3.195   1.396  0.1578 -0.3950 -0.0571
31041W        W47115   3.933   2.151  12.573 -0.2504  0.0643 -0.1277
31042W        W47116   2.133   2.940  12.466 -0.1364  0.0189  0.0412
31043W        W47117  16.498  17.171  14.104 -0.0401  0.1253 -0.2129
31044W        W47118   3.839  13.985   3.612 -0.1463  0.1992 -0.0738
31045W        W47119  13.531   8.975  10.523  0.1890 -0.0238 -0.0085
31046W        W47120   6.643  12.966  10.703  0.1257  0.3004 -0.1032
31047W        W47121   2.029   7.711  14.099  0.3251  0.0566  0.0769
31048W        W47122  18.532  11.440   4.021 -0.2776 -0.1032 -0.0611
31049W        W47123  17.843   9.963  11.780 -0.1852 -0.1892 -0.3239
31050W        W47124   9.773   8.116   4.125 -0.1071 -0.1060  0.0705
31051W        W47125   7.143  11.473   0.657 -0.1767  0.1814 -0.0911
31052W        W47126   1.613   7.895   0.745 -0.0039  0.0579  0.1271
31053W        W47127  19.244  17.013  11.634 -0.0411  0.2049 -0.3599
31054W        W47128  18.251   4.771   3.141 -0.0875 -0.1236  0.0175
31055W        W47129   5.997  11.490   0.956 -0.2785  0.0765 -0.0891
31056W        W47130  18.131   8.804  12.709 -0.2038  0.1433 -0.0388
31057W        W47131   2.006   8.037  12.763 -0.2185  0.1962  0.1590
31058W        W47132   7.335   5.212  14.652  0.2557 -0.0513 -0.0581
31059W        W47133  11.635  19.285  15.017 -0.0912 -0.1193 -0.2477
31060W        W47134  18.032  12.720  10.235  0.2082 -0.4908  0.0111
31061W        W47135   8.211  18.249  14.332  0.1021 -0.0238 -0.0887
31062W        W47136  19.021  12.745  12.952  0.1905 -0.1898  0.0076
31063W        W47137   2.486   6.469   3.873  0.0251  0.1917 -0.3039
31064W        W47138   8.119   1.163  14.964 -0.0355 -0.3934  0.2444
31065W        W47139  16.173   0.209   4.327 -0.1213  0.0028  0.0096
31066W        W47140  16.943  15.730   1.230 -0.1321 -0.0048  0.3571
31067W        W47141   0.418   1.061  14.660  0.0151  0.0382 -0.0077
31068W        W47142   5.165   2.045   5.044  0.0880  0.5480  0.0548
31069W        W47143  11.828   9.412   2.334  0.1316 -0.2609 -0.4015
31070W        W47144  12.603   5.923   1.923  0.0922 -0.0813 -0.0820
31071W        W47145   6.924   4.572   0.857  0.1622  0.4976 -0.1174
31072W        W47146   2.453  12.519   2.691  0.1182 -0.3477 -0.1886
31073W        W47147  14.149  13.086   2.740  0.0030  0.3374  0.0236
31074W        W47148  18.670   7.067  11.176  0.1763  0.0709 -0.1347
31075W        W47149  13.280   9.259  10.842 -0.1039 -0.0999 -0.1336
31076W        W47150   7.622  18.670   1.979 -0.4737 -0.1606 -0.1852
31077W        W47151   8.575   3.115   4.899  0.0479 -0.0378 -0.1018
31078W        W47152   9.925   1.710  10.980  0.0485  0.0494 -0.1252
31079W        W47153  12.668   1.303   5.014 -0.0713 -0.1651  0.0254
31080W        W47154  14.994   5.985  10.120 -0.1346 -0.2806  0.1157
31081W        W47155  17.941   2.882   3.188  0.3760  0.0615 -0.1740
31082W        W47156   4.983  18.148  14.445  0.0234  0.3542  0.0948
31083W        W47157  16.960  11.820  12.534  0.2882  0.0308 -0.3108
31084W        W47158  11.142   3.958  12.215  0.2858  0.1278 -0.0315
31085W        W47159   7.131   7.944  13.220  0.1343  0.0557 -0.3969
31086W        W47160  16.366   8.779  12.449 -0.0535 -0.2147 -0.2085
31087W        W47161   8.418  13.748  12.252 -0.1154  0.0692 -0.1085
31088W        W47162  18.095   2.593   2.185  0.2974 -0.3485  0.1342
31089W        W47163  18.050   2.426  11.098 -0.4092  0.2943  0.2048
31090W        W47164  10.791  17.500  12.938 -0.0632  0.4391 -0.3419
31091W        W47165   7.633   9.199  13.455 -0.0341 -0.0475  0.0674
31092W        W47166  17.148  13.825   3.709  0.0427 -0.3194  0.0328
31093W        W47167   8.422  17.140  12.124  0.1430 -0.1484 -0.2901
31094W        W47168   4.505  13.470  12.771  0.1433  0.3127 -0.6117
31095W        W47169   2.315  16.044   4.035 -0.1314 -0.2640  0.3219
31096W        W47170   7.286  14.218   1.910  0.2107 -0.2384  0.2049
31097W        W47171  10.956  11.267   4.464 -0.0604 -0.1695  0.0230
31098W        W47172  13.401   5.307   3.400 -0.0938  0.2509 -0.5076
31099W        W47173  18.222   8.502  11.454  0.2123  0.0337 -0.3334
31100W        W47174   0.931   3.110   1.623  0.0184 -0.1380  0.2974
31101W        W47175  15.016  17.977   4.514  0.0488 -0.1657  0.2763
31102W        W47176  10.366  14.286   2.489 -0.0143  0.0153  0.2380
31103W        W47177  12.252  13.140   3.799 -0.0523  0.0118  0.1577
31104W        W47178  10.085  11.960  14.206  0.2716 -0.0063 -0.1373
31105W        W47179   7.336  18.538   4.536 -0.1217  0.2254  0.3355
31106W        W47180   2.229  17.468   2.225  0.1031 -0.4041 -0.0928
31107W        W47181   9.245   4.153  12.618  0.2075  0.0109  0.1456
31108W        W47182   8.424   8.393   0.483 -0.1770 -0.0661 -0.0661
31109W        W47183  16.296  10.015  14.343 -0.3007 -0.0975  0.0813
31110W        W47184   8.928   7.047   2.170  0.0718 -0.2786 -0.4537
31111W        W47185   6.324   8.886  15.033 -0.0913  0.4411 -0.0517
31112W        W47186  12.786   0.967  14.589  0.0060 -0.0064  0.0555
31113W        W47187   6.553  12.113   4.748  0.1371 -0.1253 -0.3556
31114W        W47188  17.750   8.734  11.777  0.1407 -0.1902  0.2339
31115W        W47189  14.934  15.404  10.705  0.2957 -0.1795  0.2655
31116W        W47190   9.230   4.983   1.741 -0.0834 -0.0288 -0.3785
31117W        W47191   1.826  10.580   1.634  0.0662  0.1474  0.3188
31118W        W47192   6.007  18.087   5.289 -0.0568  0.1663 -0.1688
31119W        W47193   6.024  16.406   2.267  0.0668  0.0154 -0.0320
31120W        W47194   3.283   7.371   5.452 -0.0577 -0.0993 -0.1388
31121W        W47195   2.931  10.745  14.957  0.4721 -0.4005  0.0295
31122W        W47196  16.701  11.931   3.312  0.0926  0.1630 -0.0552
31123W        W47197  14.199   0.582  11.962  0.0431  0.0888  0.1219
31124W        W47198   9.559  18.640   4.656 -0.4652  0.1164  0.2220
31125W        W47199  14.940   8.567   0.579 -0.0384  0.1466  0.0106
31126W        W47200  17.763   2.419   3.197  0.0808 -0.2883 -0.0974
31127W        W47201   2.308  15.115  11.136  0.1704 -0.2403  0.3010
31128W        W47202   3.652   4.038   2.946  0.2127 -0.0120  0.2227
31129W        W47203   6.784  16.655   2.541 -0.2970  0.3779  0.2502
31130W        W47204   0.318  10.047   3.591 -0.0334 -0.1074  0.2474
31131W        W47205  12.978   0.954   2.577  0.0696 -0.0293 -0.2956
31132W        W47206   7.622   6.564  10.555  0.3099 -0.1903 -0.2742
31133W        W47207  17.952   2.324   0.526 -0.3148  0.2750 -0.0491
31134W        W47208  11.061   6.541   5.553  0.1251  0.0456 -0.3196
31135W        W47209   4.333   4.624  12.421  0.2418  0.3172 -0.4243
31136W        W47210  12.109   6.799  14.554  0.0011 -0.3538 -0.1785
31137W        W47211   1.644   9.925  10.987  0.0719 -0.2180 -0.0573
31138W        W47212   1.643   6.847  10.976  0.2102  0.1582 -0.3027
31139W        W47213   0.752   9.515   0.950 -0.3259 -0.0371 -0.1091
31140W        W47214   1.959  16.057   1.566  0.3087  0.1747 -0.4443
31141W        W47215  11.656  11.442  12.139  0.1697 -0.0155 -0.0868
31142W        W47216   9.750   1.135   3.247 -0.2790 -0.1866  0.1654
31143W        W47217   6.105  12.765   0.241 -0.0312  0.0141 -0.4070
31144W        W47218  15.948  15.424  11.481  0.2209  0.0875 -0.0812
31145W        W47219  14.909  16.610   3.218  0.2354 -0.0587  0.1631
31146W        W47220   8.338  12.598  14.244 -0.2604  0.2247  0.1736
31147W        W47221   8.817   3.696   1.105 -0.0102  0.1734 -0.1579
31148W        W47222   1.285   8.532  10.438 -0.0546  0.0228  0.1034
31149W        W47223   7.262   9.298   4.188  0.0936 -0.2850 -0.3145
31150W        W47224  11.764   3.733   4.682 -0.4111  0.2922 -0.1407
31151W        W47225  15.075   4.592  13.883  0.0072  0.2925 -0.0838
31152W        W47226  17.585  14.164   1.409  0.1011 -0.1161  0.1988
31153W        W47227   2.792   9.847   0.438 -0.0761 -0.0042 -0.1312
31154W        W47228   8.705   7.424   5.378  0.0621  0.0070  0.2588
31155W        W47229  13.243   9.592  14.427 -0.4045 -0.1447  0.0413
31156W        W47230  14.665  14.461  10.904  0.1948  0.2345  0.2215
31157W        W47231   8.527  18.611  10.341  0.0304 -0.0874  0.1694
31158W        W47232  10.830   5.133  13.872  0.0774  0.0156 -0.0905
31159W        W47233  13.720  14.638   4.611 -0.0672  0.0453 -0.2322
31160W        W47234   2.589   7.861   3.657 -0.1967 -0.2236  0.0036
31161W        W47235  17.320  13.346   3.935  0.1679 -0.2934  0.0394
31162W        W47236  14.763  11.156  12.343  0.0492  0.0785 -0.3272
31163W        W47237  17.324   9.353   0.807 -0.0105 -0.1518 -0.1947
31164W        W47238  15.300  15.149   3.603 -0.4777 -0.2054  0.1213
31165W        W47239  13.367   0.048  14.778  0.0878 -0.1380 -0.3082
31166W        W47240   0.072   0.766   3.639 -0.2210 -0.2392 -0.2401
31167W        W47241  10.843   4.622  13.881 -0.0153  0.1134 -0.0246
31168W        W47242  15.239   4.459   2.646 -0.2070  0.0656 -0.1412
31169W        W47243   8.664  14.544  10.634 -0.2000 -0.1054 -0.0273
31170W        W47244   3.219  18.345  11.091 -0.0965  0.2250  0.0425
31171W        W47245  14.355   0.925   0.926 -0.2755 -0.0991 -0.0436
31172W        W47246  16.657  11.190   5.317 -0.2444 -0.2042 -0.0511
31173W        W47247  18.343  14.147   1.437  0.1691 -0.1892  0.3024
31174W        W47248   4.559  11.968   0.184 -0.3748 -0.0595  0.0948
31175W        W47249   1.804  16.999   0.351  0.0451 -0.1861  0.0211
31176W        W47250   6.125  15.983   0.192 -0.1061  0.1078 -0.0903
31177W        W47251  10.181   8.069   4.509  0.2401 -0.2035 -0.0206
31178W        W47252   9.181  10.844  12.574  0.4178 -0.2177  0.0831
31179W        W47253   1.879   1.000   3.485 -0.0258 -0.1555  0.0297
31180W        W47254   7.705   8.696  10.789  0.0042  0.1142  0.2402
31181W        W47255  15.810  15.975  13.205 -0.1396  0.1530  0.0364
31182W        W47256  14.633   8.134   4.092  0.0592  0.0284  0.1660
31183W        W47257  10.595   6.244   1.422 -0.0647 -0.0545  0.1966
31184W        W47258   2.154  17.445   2.772 -0.1218  0.3010 -0.0856
31185W        W47259  15.880   9.410  13.359  0.0117  0.1136 -0.2080
31186W        W47260   8.963   0.898   5.080  0.2216 -0.3088 -0.0708
31187W        W47261  18.338  14.278  10.082  0.2916  0.1781 -0.2655
31188W        W47262   8.781   1.864  11.467  0.0911  0.3387  0.4881
31189W        W47263  14.338   6.444  11.508 -0.0768 -0.2595  0.0938
31190W        W47264   5.519   6.112  14.230 -0.2451 -0.1605  0.1388
31191W        W47265  14.590   2.249   1.720  0.2732 -0.4162 -0.0330
31192W        W47266  17.767  15.186   0.625  0.0168 -0.2547  0.2246
31193W        W47267  10.056  11.615   6.068 -0.1136  0.2336 -0.1438
31194W        W47268  17.476  19.028   2.315 -0.1485 -0.2339  0.1467
31195W        W47269   0.046  13.876   3.369  0.1240 -0.0447  0.2877
31196W        W47270   6.772  14.150  14.410 -0.0048  0.0113  0.1577
31197W        W47271  12.432  12.155  11.899  0.0223  0.4716  0.4011
31198W        W47272   7.462   6.834   4.965 -0.6179  0.1336 -0.0803
31199W        W47273  18.034  13.717  11.949 -0.2516 -0.0347  0.1904
31200W        W47274   4.372   2.938   5.688  0.2837  0.0735  0.0191
31201W        W47275   1.535   6.641   0.864 -0.0037 -0.0419 -0.1406
31202W        W47276  16.180  11.861  13.343  0.6157  0.3297  0.0879
31203W        W47277  12.091  14.674   1.698  0.1818 -0.2902 -0.6444
31204W        W47278   0.014   8.578   3.596  0.0435 -0.3886  0.1087
31205W        W47279  14.270   6.784   4.396  0.2567  0.0562 -0.0527
31206W        W47280  17.430   5.060   2.352 -0.2115 -0.1585 -0.2418
31207W        W47281  15.714  17.054   2.155  0.0826  0.0166 -0.0691
31208W        W47282   0.216   6.760   4.244 -0.0956  0.2374  0.1556
31209W        W47283  11.153   8.101  13.804  0.3031 -0.1241  0.1888
31210W        W47284  19.280   1.384  11.124 -0.2561 -0.0447  0.1250
31211W        W47285   5.302  16.118   0.835  0.0470 -0.0384  0.5417
31212W        W47286  12.791   4.770  10.538  0.1596  0.3281 -0.2170
31213W        W47287   7.699  13.184  13.194 -0.0525  0.0129 -0.0930
31214W        W47288  10.058   9.897   1.136 -0.1911  0.0245  0.0011
31215W        W47289  10.966   7.312  12.893 -0.1412  0.1779 -0.3202
31216W        W47290   9.912   8.800  14.198 -0.2838 -0.0740  0.1368
31217W        W47291  18.826   5.823  14.462 -0.3164 -0.0846  0.1673
31218W        W47292   9.576   3.833  11.710 -0.1429  0.2069  0.1437
31219W        W47293   1.655   0.485   1.479 -0.1452  0.0476  0.1711
31220W        W47294  13.967  11.431  12.743  0.2385 -0.3485 -0.2228
31221W        W47295  18.134   3.656  13.179 -0.1589 -0.0880  0.3808
31222W        W47296   4.654   4.910   0.496  0.2826  0.0680 -0.3687
31223W        W47297   1.287  15.031  14.048  0.2449  0.4926 -0.2982
31224W        W47298   5.897  18.094   3.838  0.5263  0.1374 -0.0692
31225W        W47299   3.722  13.284  15.059 -0.1888  0.1386 -0.0215
31226W        W47300   6.966   5.973   2.429 -0.0951 -0.2492  0.2889
31227W        W47301   7.284   6.468  12.467 -0.3853  0.0398  0.1583
31228W        W47302  14.726   1.491  13.759  0.2921 -0.2322  0.0670
31229W        W47303   1.366  15.682  10.799  0.0787 -0.0387  0.1330
31230W        W47304  12.173  13.651   1.699  0.1003 -0.1267 -0.1222
31231W        W47305   3.184  13.100  11.549 -0.2582  0.1618 -0.1077
31232W        W47306   7.191  16.275   9.661 -0.2148  0.4276 -0.0688
31233W        W47307   2.186  12.328  12.162 -0.0547  0.3362 -0.1122
31234W        W47308   8.458   4.949   4.050 -0.5139 -0.0606  0.1088
31235W        W47309  11.415  12.230   1.070 -0.1342 -0.0655 -0.0834
31236W        W47310   3.710   4.516   2.611  0.0113  0.0459 -0.0830
31237W        W47311  12.996   5.166  12.495 -0.0530 -0.1074 -0.0119
31238W        W47312   3.650   6.574   5.247  0.0513 -0.0080 -0.1680
31239W        W47313   1.296   6.792   1.373 -0.1249  0.2752  0.1482
31240W        W47314   2.179  14.273  10.814  0.2791  0.0172  0.2217
31241W        W47315  17.359   8.873   0.612 -0.2211  0.3458 -0.1624
31242W        W47316   2.370  13.386   2.692  0.3480 -0.0995  0.0107
31243W        W47317  15.947   6.340  11.993  0.0655 -0.1009  0.1671
31244W        W47318   3.961  16.296  13.975  0.3499 -0.0294 -0.1525
31245W        W47319   9.360   5.630  12.426 -0.0179  0.2789 -0.2466
31246W        W47320  10.384  17.338  11.769  0.4490 -0.1217  0.0358
31247W        W47321  13.909  12.244   3.982  0.1309  0.1187  0.1344
31248W        W47322  13.373  14.768  13.588 -0.1999 -0.3243  0.2966
31249W        W47323  13.848   4.167  14.357 -0.1778  0.0082 -0.0228
31250W        W47324   8.253  15.660  13.564 -0.0392 -0.1470  0.0402
31251W        W47325  10.287   5.339   1.289 -0.3443 -0.2215  0.0210
31252W        W47326  10.048  14.687   5.090 -0.0306  0.0008  0.0053
31253W        W47327   8.870  17.573  14.068  0.0109  0.0126  0.1211
31254W        W47328   0.632  12.692  10.977 -0.0003  0.0319  0.0755
31255W        W47329   3.772   1.219   0.600 -0.1779  0.2218  0.2704
31256W        W47330   7.936   5.837   1.988  0.1685 -0.1330 -0.3707
31257W        W47331   3.876   5.943  13.938  0.0812 -0.0958  0.2108
31258W        W47332  14.158   1.570  12.649  0.2393 -0.1268  0.3343
31259W        W47333   2.821  11.937  10.968 -0.1432 -0.1353  0.2664
31260W        W47334   7.373   3.205  13.171 -0.1744  0.1637 -0.3468
31261W        W47335  12.898   6.239   5.718 -0.0787 -0.1430  0.1605
31262W        W47336   5.309   1.713   4.612 -0.0838  0.0312  0.0010
31263W        W47337  19.205   5.051   1.542  0.0845 -0.0935  0.0275
31264W        W47338  18.283   1.743   1.452  0.1324 -0.0226  0.3829
31265W        W47339  14.223  12.663  11.013 -0.1736  0.1283  0.0467
31266W        W47340  10.135  12.040  13.651 -0.0423  0.0127 -0.3725
31267W        W47341  11.522   2.898  10.967  0.4160 -0.2187 -0.1055
31268W        W47342   9.837  11.328   3.216 -0.1488 -0.0743 -0.0053
31269W        W47343  10.312   4.664   0.871  0.0073  0.2794 -0.1010
31270W        W47344   0.231  15.849  13.254 -0.1752 -0.0753 -0.0204
31271W        W47345  13.890  12.437   3.167 -0.0226  0.1368 -0.3778
31272W        W47346   3.623   3.696   3.709  0.1913  0.1533  0.1586
31273W        W47347   7.101   9.640   4.672 -0.5357  0.3269  0.2072
31274W        W47348   8.192  10.765  10.912  0.2113  0.0411 -0.1973
31275W        W47349  11.786  17.780  14.825  0.1353 -0.0175  0.1389
31276W        W47350  17.576   9.635  14.022  0.0550 -0.0425  0.0391
31277W        W47351  13.284   5.989  10.855 -0.1123 -0.1260 -0.5044
31278W        W47352  18.903  16.338   2.787  0.1231 -0.0404  0.1589
31279W        W47353   7.859   1.305   2.470 -0.1256 -0.0015  0.5647
31280W        W47354  17.290  15.315  11.970 -0.2635 -0.0830 -0.1158
31281W        W47355  11.583  12.069   1.633  0.2106 -0.3548  0.2902
31282W        W47356   7.896  18.805  11.829  0.3790 -0.0548 -0.2494
31283W        W47357  13.569   1.298  12.158  0.1354  0.1051  0.0576
31284W        W47358   0.380  12.349   2.232 -0.4392  0.1157 -0.5025
31285W        W47359  13.352   8.641  12.634  0.0500 -0.1775 -0.1325
31286W        W47360   8.209  13.053   0.295 -0.1189  0.0906  0.5442
31287W        W47361   7.206   4.986   4.964  0.0601 -0.1919  0.0676
31288W        W47362  16.717  14.531  11.002  0.0083  0.1891  0.1277
31289W        W47363   3.545   4.090   4.439  0.1002 -0.2129  0.0417
31290W        W47364  12.319   0.002   9.062 -0.1018 -0.2273  0.2734
31291W        W47365  17.180  11.295  14.215  0.1488  0.0460  0.3635
31292W        W47366   5.287  17.270  10.580 -0.0563  0.0037  0.0042
31293W        W47367  16.435   6.334  10.192  0.2218 -0.0704  0.2878
31294W        W47368   4.855   6.703  11.336  0.0342 -0.2661 -0.4182
31295W        W47369  17.274   3.049   4.132 -0.0288 -0.4396  0.1719
31296W        W47370   0.223  16.679  11.871 -0.0513  0.2069 -0.1516
31297W        W47371   7.560  18.218   1.324  0.1003  0.3360  0.3038
31298W        W47372   2.188  15.987  12.817 -0.0188 -0.2888  0.1153
31299W        W47373  14.528  13.552   2.316  0.3048 -0.1366  0.2716
31300W        W47374   8.573  13.852  11.274 -0.1535 -0.1048  0.2917
31301W        W47375  10.888   5.062   0.954 -0.2577 -0.1336  0.2524
31302W        W47376   8.521   0.458   0.980 -0.2445  0.3837 -0.1059
31303W        W47377   7.339  14.224   4.754 -0.0102  0.1871  0.2684
31304W        W47378   2.056  14.393  12.299 -0.0230 -0.1287 -0.1257
31305W        W47379  17.715   5.734   3.980  0.0195 -0.2872 -0.0964
31306W        W47380   2.227  11.946  13.211 -0.1013  0.0001  0.1435
31307W        W47381  11.203  13.453   3.298 -0.0932  0.3762  0.1313
31308W        W47382  13.532  11.732   2.100 -0.0044  0.0366  0.2682
31309W        W47383   6.189   6.016   0.911 -0.0353  0.0361  0.1249
31310W        W47384  16.095   4.899  11.988 -0.0466  0.1924  0.1178
31311W        W47385  15.526  16.655   1.845  0.0752  0.1129 -0.3920
31312W        W47386   8.811   0.435  11.824 -0.0857  0.1045 -0.1376
31313W        W47387  14.161   4.123   2.952 -0.0174 -0.1109 -0.0627
31314W        W47388  12.156   8.593  12.394 -0.1109  0.4365 -0.1147
31315W        W47389  14.420  10.351   4.968  0.0045 -0.0569  0.0942
31316W        W47390   8.960  16.827   4.418  0.3726 -0.1380  0.2090
31317W        W47391   4.343  10.239  13.604 -0.3814 -0.1045 -0.1342
31318W        W47392  13.401  15.752   4.817 -0.1288  0.1856  0.3023
31319W        W47393  13.848   6.365  11.692 -0.0531  0.0182  0.1760
31320W        W47394   9.078  16.665  14.396  0.0598  0.0826 -0.1310
31321W        W47395   1.164  11.523   1.320  0.0320  0.0116  0.1087
31322W        W47396   1.704   5.594   0.853 -0.0551 -0.1094  0.1306
31323W        W47397  10.588  12.245   3.926 -0.0214 -0.2244  0.1356
31324W        W47398  14.718  15.666   3.946  0.2437 -0.1860  0.1202
31325W        W47399   7.611  19.013  13.493  0.1997 -0.3289  0.2033
31326W        W47400  19.095  11.945  12.508  0.0678 -0.0709 -0.2072
31327W        W47401  16.018  16.448   0.879 -0.0604  0.3092  0.1735
31328W        W47402   2.625   4.205  14.859  0.2318 -0.0910 -0.3217
31329W        W47403   9.991  18.016   5.310 -0.3736 -0.1361  0.0924
31330W        W47404   9.254   7.307   3.057 -0.1313  0.3592  0.1266
31331W        W47405   2.939   5.652   5.094 -0.2382 -0.1169 -0.0515
31332W        W47406   7.423  18.150   9.487 -0.1783  0.2131  0.1752
31333W        W47407  11.251   9.316   3.616 -0.2404 -0.0635  0.0033
31334W        W47408  17.858   2.897  10.961 -0.3890  0.0066 -0.0928
31335W        W47409  14.684   0.265   9.745  0.0758 -0.0777  0.3209
31336W        W47410   7.434   8.626   2.481  0.0411  0.1548  0.3141
31337W        W47411   6.299  18.916   4.811  0.0231 -0.2618 -0.0973
31338W        W47412   7.734  19.227  10.314  0.1480  0.3283 -0.1471
31339W        W47413   2.061  18.046   1.584  0.0238 -0.1121  0.1406
31340W        W47414  19.093  12.101  11.331 -0.1122 -0.0309 -0.0168
31341W        W47415  18.026   9.663   2.588 -0.0055  0.1781 -0.0233
31342W        W47416  11.344   4.568   2.401 -0.1663  0.4183  0.4037
31343W        W47417   7.926   3.720   1.916 -0.0704  0.2605  0.3079
31344W        W47418  10.490   2.690   4.434  0.1201 -0.2416  0.1872
31345W        W47419  12.474  14.978   2.971 -0.1848  0.1389  0.0883
31346W        W47420   6.102  18.261  11.448  0.1716 -0.0781  0.1496
31347W        W47421   9.011  12.716  11.591 -0.0181 -0.0239 -0.2004
31348W        W47422  11.479  15.735  10.713  0.2470 -0.0953 -0.0358
31349W        W47423  15.051   1.811  11.961  0.0385  0.0591 -0.1726
31350W        W47424  17.976  12.146   3.614 -0.0507  0.3598 -0.1459
31351W        W47425  15.178   0.160  14.566 -0.2659 -0.0183 -0.2873
31352W        W47426  12.964  16.783   4.963 -0.0898  0.2534 -0.2182
31353W        W47427  11.082  17.935   5.280 -0.1650  0.3302  0.0979
31354W        W47428   6.492   3.536   3.218 -0.2635 -0.2139  0.0090
31355W        W47429  18.170   8.710   1.174 -0.1912 -0.1616  0.0766
31356W        W47430   4.454   8.880   2.994 -0.4144 -0.0105 -0.2276
31357W        W47431   0.377   5.447   1.041  0.1514  0.2076  0.1297
31358W        W47432   0.433   3.418   5.246  0.1626 -0.0277 -0.0112
31359W        W47433  14.948  12.068  13.577 -0.2173 -0.0005 -0.1080
31360W        W47434  11.774   5.759  12.532  0.2964  0.1619  0.0792
31361W        W47435   5.435  11.710   0.337  0.0143  0.0001  0.0614
31362W        W47436   7.314   0.084  14.223  0.1024 -0.0410  0.1309
31363W        W47437  18.082  13.790   3.375  0.2365  0.0229 -0.1472
31364W        W47438   0.804  12.457   2.943 -0.1595  0.0024  0.2323
31365W        W47439   5.136   0.324  12.801 -0.1827  0.1793  0.0525
31366W        W47440   5.471  19.268   5.119 -0.2048  0.2600 -0.0230
31367W        W47441  11.217  10.500   3.276  0.1748  0.2797  0.1678
31368W        W47442   9.521   7.567   0.822  0.0978  0.0709  0.0472
31369W        W47443  16.162   0.710   9.952 -0.1282  0.3313 -0.0693
31370W        W47444  13.905   5.923   1.952  0.0289  0.1325 -0.2466
31371W        W47445   8.568   9.268  11.573 -0.0870  0.2965  0.0236
31372W        W47446   3.834   4.912   3.949  0.1399 -0.1477  0.0316
31373W        W47447  12.683   1.646   2.194 -0.0070 -0.0563 -0.0157
31374W        W47448   0.366  18.517  13.590  0.0995 -0.3828 -0.1047
31375W        W47449   0.059  10.302   2.695 -0.1835  0.1107 -0.3068
31376W        W47450  18.840   3.714   4.588 -0.0421  0.1209  0.0335
31377W        W47451  16.797   6.752  12.528 -0.2638  0.1518  0.0556
31378W        W47452  18.759   4.474  11.526  0.1611 -0.0641  0.3232
31379W        W47453  17.088  12.583  12.644  0.0155 -0.0834  0.2350
31380W        W47454   8.352   0.137   5.252 -0.1090  0.0374 -0.0850
31381W        W47455   4.127  14.259  10.519  0.1992  0.1295  0.2353
31382W        W47456  12.656  16.666   3.697  0.0064 -0.2875  0.1011
31383W        W47457  10.967   2.473   3.644 -0.0348  0.4124 -0.2836
31384W        W47458   8.477   4.043   3.251 -0.3134 -0.3556 -0.1134
31385W        W47459  17.390  10.634   5.356  0.1330 -0.1635 -0.0944
31386W        W47460   2.554   0.791   4.274 -0.1260 -0.3393  0.0093
31387W        W47461  14.765  16.782  13.083 -0.1467 -0.0555  0.0649
31388W        W47462   9.620   3.193  12.892  0.0249 -0.3356  0.2819
31389W        W47463   7.602  15.268  13.484 -0.0830  0.2218  0.0014
31390W        W47464  10.992   6.944  12.493  0.0279  0.0346  0.1724
31391W        W47465   5.056   9.821   2.308  0.0893 -0.2581  0.0943
31392W        W47466   6.016  13.738   4.344  0.1824 -0.0021  0.1478
31393W        W47467   0.919   7.108  13.727  0.0098 -0.1717 -0.1133
31394W        W47468   8.483   7.593  11.480 -0.0119  0.0744  0.1508
31395W        W47469  18.499  11.223  14.407 -0.1965  0.2139 -0.2817
31396W        W47470   6.263  14.863   2.052  0.3697 -0.1142  0.1089
31397W        W47471   5.560  10.217   0.651  0.2308  0.2504  0.0584
31398W        W47472   3.593  13.222   4.022 -0.0303 -0.1810  0.0277
31399W        W47473  12.448   1.538   3.800  0.1241 -0.0371  0.2199
31400W        W47474  14.165  16.913  11.667  0.1516 -0.2170  0.0614
31401W        W47475  17.183  13.123   1.280 -0.0896 -0.1116 -0.0169
31402W        W47476   8.003   9.678   0.090  0.1092 -0.0215 -0.1280
31403W        W47477  17.547  16.245  12.949  0.0762  0.0538 -0.4028
31404W        W47478   1.089  14.019  14.360 -0.0230  0.0926 -0.0166
31405W        W47479  18.043  19.037   4.987 -0.0577  0.1059 -0.3480
31406W        W47480   2.297  13.374  13.541 -0.2526 -0.2158 -0.2550
31407W        W47481  14.127  16.705   1.271  0.1820 -0.1524 -0.1548
31408W        W47482  18.590   5.453  14.169 -0.1147 -0.1621 -0.3142
31409W        W47483  11.270  14.719  14.947  0.2047 -0.1992 -0.1578
31410W        W47484   8.135  14.986   3.779  0.2367  0.1684  0.0919
31411W        W47485   6.019   5.991  12.372 -0.0269  0.2132  0.0096
31412W        W47486  17.821   2.936   0.286  0.3054 -0.0043 -0.0599
31413W        W47487  16.700   6.599   0.910  0.1704  0.1217  0.2184
31414W        W47488  12.222  11.088  12.878  0.1213 -0.0930  0.1869
31415W        W47489   6.655  16.411   9.813 -0.1007 -0.0794 -0.1203
31416W        W47490   0.740   3.431   3.921  0.0361  0.2583 -0.0098
31417W        W47491   1.893   7.488  12.968  0.2492  0.0647 -0.0178
31418W        W47492  15.566   1.651  12.381 -0.1375  0.2430 -0.0418
31419W        W47493   0.636  19.289  13.651  0.0260  0.1025 -0.2214
31420W        W47494   2.514   0.857   1.749  0.1795  0.4611  0.1757
31421W        W47495  13.899   0.902  12.148 -0.0890  0.0214  0.0542
31422W        W47496  10.804  17.009   5.345 -0.0554 -0.0914 -0.0109
31423W        W47497   0.474   7.648  13.368  0.0598  0.4285 -0.0217
31424W        W47498  15.833   5.562  14.866 -0.0147 -0.2419  0.2541
31425W        W47499   3.548   6.084   4.249 -0.2343  0.2879 -0.3223
31426W        W47500  16.407  18.079   4.711 -0.3689 -0.0287 -0.2679
31427W        W47501   2.943   4.852  14.354 -0.0109  0.1292  0.0568
31428W        W47502  17.693   1.736  11.668  0.1773  0.3761  0.2250
31429W        W47503  13.232   7.504  10.381  0.4000  0.1781 -0.1322
31430W        W47504  11.045  17.128  13.442  0.2417  0.0211  0.1012
31431W        W47505   8.080  13.956   0.691 -0.2825  0.1012  0.3593
31432W        W47506  15.316  15.752  13.878  0.1572 -0.0490 -0.1457
31433W        W47507  12.319  17.129  13.873  0.0350  0.3503  0.3067
31434W        W47508  11.093  11.607  11.306 -0.0753  0.1018 -0.0681
31435W        W47509  15.059   4.303   0.354  0.1384 -0.0493  0.2959
31436W        W47510  17.915  18.821   2.265  0.3068  0.2334 -0.2105
31437W        W47511  15.997   7.333   1.427 -0.1912 -0.3571 -0.0999
31438W        W47512   5.360  13.742  10.369 -0.1668  0.1937  0.0014
31439W        W47513  18.552   7.964   3.721  0.0538  0.0582 -0.0111
31440W        W47514   6.740   2.361   3.093 -0.3302 -0.1286  0.0867
31441W        W47515  13.525   8.701  13.590 -0.6655  0.0583 -0.1350
31442W        W47516   0.537  15.422   2.748 -0.0186 -0.3467  0.0662
31443W        W47517   1.021  15.724   3.466  0.1401  0.0020  0.2173
31444W        W47518   1.114   2.086  13.216  0.0233  0.1496 -0.2514
31445W        W47519   3.866   8.906  12.000 -0.1456 -0.2509  0.4917
31446W        W47520   0.545   6.491  14.646 -0.3938  0.6177  0.1074
31447W        W47521  10.155  15.292   5.584 -0.0115 -0.0660 -0.0788
31448W        W47522  18.455  15.788   4.185  0.1143 -0.0190  0.1319
31449W        W47523   9.875  17.269   1.764 -0.2368  0.1520  0.4937
31450W        W47524   5.630   5.390  12.940 -0.5251 -0.0948 -0.1720
31451W        W47525   2.856   9.384   0.218 -0.0076 -0.1499  0.2692
31452W        W47526   5.171   7.753  12.625 -0.1724 -0.0230  0.0071
31453W        W47527  16.943  18.806  12.170 -0.0395 -0.1348 -0.1383
31454W        W47528   3.253   1.324   3.004 -0.0003 -0.1826 -0.0649
31455W        W47529  14.825   7.447   3.010  0.2233  0.1396  0.1789
31456W        W47530   0.479  11.715  10.993 -0.3883 -0.0680  0.2933
31457W        W47531   3.837  12.752   3.297  0.2281 -0.3034  0.2078
31458W        W47532  13.110   2.510   4.362 -0.2406 -0.1805 -0.1207
31459W        W47533   7.677  15.224  14.935  0.0142 -0.2933 -0.0948
31460W        W47534   1.111  17.609   0.491  0.0526  0.2992 -0.1362
31461W        W47535  15.853   8.126   2.160  0.0596 -0.1465  0.0711
31462W        W47536   7.836   1.771   2.586 -0.2581 -0.1854  0.2883
31463W        W47537  10.564  10.016   9.840  0.2863 -0.3100 -0.0140
31464W        W47538   4.921  13.760  13.581 -0.3291  0.0549  0.4402
31465W        W47539   3.922   8.347  14.971  0.2208  0.3336 -0.2428
31466W        W47540  16.963   5.671  13.660 -0.0037 -0.0978  0.1115
31467W        W47541   9.404   9.244  13.878  0.0642 -0.0567 -0.2595
31468W        W47542   8.246   7.330   2.810  0.2117  0.1737 -0.0937
31469W        W47543   4.447   9.348   4.569  0.2209 -0.0444 -0.0653
31470W        W47544  14.088   8.664   4.936 -0.2064 -0.1799  0.1349
31471W        W47545  18.830  17.408  12.734 -0.0549 -0.2648 -0.1365
31472W        W47546   5.154  12.518   3.343  0.1599  0.3033 -0.0264
31473W        W47547   8.296  18.388   4.164  0.0803  0.3439 -0.3733
31474W        W47548   3.307  19.262  14.691  0.0299 -0.1506  0.0768
31475W        W47549  14.138  19.064   3.298  0.1634  0.0458  0.2881
31476W        W47550   3.382   2.530  11.718 -0.3211  0.1072 -0.2130
31477W        W47551   6.093   5.550  14.844 -0.1258 -0.2271  0.1165
31478W        W47552  17.068   7.454   3.232  0.2480  0.2676 -0.0753
31479W        W47553  10.011  11.901  12.729  0.2660  0.0101 -0.1675
31480W        W47554  16.145   7.931   5.508  0.4184 -0.2511 -0.0079
31481W        W47555  12.465   9.361   3.106  0.1784  0.0760  0.0251
31482W        W47556  10.808   7.912  10.455 -0.2100 -0.3609 -0.3478
31483W        W47557   2.436  17.881   1.938 -0.1404 -0.3933 -0.1306
31484W        W47558   8.684   5.437  14.571  0.1872  0.2005  0.0568
31485W        W47559   0.392  15.359  14.755 -0.3316 -0.0835 -0.0044
31486W        W47560   7.572  11.861   4.615 -0.0012  0.1292  0.3079
31487W        W47561  10.198   5.860   5.374  0.0664 -0.1203 -0.0385
31488W        W47562  11.537   3.452  10.978 -0.2543  0.1710  0.4123
31489W        W47563   4.789   0.946   0.663 -0.2674  0.1597 -0.3656
31490W        W47564  19.245  15.065   2.097 -0.1710  0.2821 -0.0161
31491W        W47565  18.200   5.558  14.430 -0.0012  0.1187 -0.0080
31492W        W47566   8.360  10.677  11.367 -0.0922 -0.1283 -0.0140
31493W        W47567  11.564   5.113   9.657 -0.1752 -0.0683  0.0675
31494W        W47568  10.256   3.688   5.019  0.0368 -0.2358 -0.1839
31495W        W47569  16.866   3.913  10.788 -0.2558  0.0640 -0.0476
31496W        W47570  18.948  15.041   9.361  0.0915 -0.1386 -0.1399
31497W        W47571   7.754  15.943  12.407 -0.1689 -0.1211 -0.2362
31498W        W47572  15.552   7.635  13.883  0.0696 -0.3382  0.1230
31499W        W47573  11.835  12.327  11.373 -0.1398 -0.1404  0.3088
31500W        W47574  16.603  19.191   3.246  0.0064 -0.1380 -0.3058
31501W        W47575  11.966   9.101  10.203  0.1016  0.0982  0.0515
31502W        W47576   7.760   6.242  13.424 -0.0172 -0.1898 -0.2294
31503W        W47577  15.314  11.854   3.538  0.3099 -0.3116 -0.1527
31504W        W47578  12.089   6.342   0.318 -0.0181  0.0139  0.1973
31505W        W47579  16.630  18.347   8.689  0.0805  0.0565 -0.3854
31506W        W47580  15.140   1.473   2.582 -0.0906  0.3266  0.0962
31507W        W47581   2.725  16.619  13.376  0.2734  0.0955  0.0933
31508W        W47582  15.187  13.110   4.861 -0.0228  0.1295 -0.3316
31509W        W47583  11.168  15.006   3.288  0.3067  0.1728 -0.1329
31510W        W47584  13.621   5.761   3.700  0.1837  0.1424 -0.0576
31511W        W47585  15.576   9.585   1.917 -0.1386 -0.0727  0.1945
31512W        W47586  13.082   7.343  12.108 -0.1825  0.0754 -0.0661
31513W        W47587   4.697   3.264   3.113  0.0349  0.5656  0.0653
31514W        W47588  17.241   1.974  14.753 -0.2661 -0.0550  0.1642
31515W        W47589   7.746  11.022  10.788 -0.0400  0.0555  0.1226
31516W        W47590  14.786  16.597  10.453  0.0660 -0.1666 -0.1046
31517W        W47591   8.380   2.581   2.461  0.1879  0.1660 -0.0375
31518W        W47592   8.479   3.228  12.494 -0.0015 -0.0516 -0.0366
31519W        W47593  12.546  13.808  14.775 -0.0562 -0.0078  0.0881
31520W        W47594   1.123   9.326   2.168 -0.3534  0.1025  0.2558
31521W        W47595  15.268  14.046   4.281  0.0469  0.0184  0.4283
31522W        W47596  19.276  11.813  13.153  0.1132  0.1614  0.0264
31523W        W47597  17.233   0.023  12.154 -0.2787  0.0355 -0.1962
31524W        W47598   9.565   0.428  10.154  0.1230  0.0125 -0.0740
31525W        W47599   9.376   6.330   2.317 -0.2460 -0.0482 -0.2768
31526W        W47600   9.142   3.671   3.611 -0.2071  0.2753  0.2049
31527W        W47601   7.532   0.756   2.967 -0.2764 -0.0314  0.5299
31528W        W47602   3.547   4.944   5.049 -0.4111 -0.0045  0.2132
31529W        W47603   6.029  10.965   2.234 -0.2679 -0.0049  0.0921
31530W        W47604  11.341   1.830  11.010 -0.2388 -0.1888 -0.2401
31531W        W47605   4.174   6.525  13.341 -0.2793 -0.0038 -0.1227
31532W        W47606  18.993   7.871  12.905  0.0028 -0.2195  0.0878
31533W        W47607   2.177  18.141  14.070  0.1281  0.0000 -0.1091
31534W        W47608  14.967   5.973  12.792 -0.1777  0.1006 -0.2222
31535W        W47609   4.746  18.450   3.671 -0.0033  0.0031 -0.0152
31536W        W47610   0.956  16.502   0.128  0.1557  0.0730 -0.2937
31537W        W47611  16.596  11.239   2.012 -0.0616 -0.1418  0.1112
31538W        W47612   4.795  16.057   4.420 -0.0675  0.0366 -0.1947
31539W        W47613  15.965   4.468  12.370  0.0428  0.2180 -0.0210
31540W        W47614  14.198  14.446   0.253 -0.1393  0.0248  0.1511
31541W        W47615   4.783   7.750   3.317 -0.3994  0.0934 -0.0040
31542W        W47616   4.981   3.725   2.513 -0.0948 -0.0980 -0.0576
31543W        W47617   8.046   4.951   0.671 -0.0481 -0.1146 -0.1060
31544W        W47618   3.478   3.169   2.385 -0.0442 -0.1278 -0.5802
31545W        W47619   7.391  14.137  12.243  0.0451 -0.0625  0.1238
31546W        W47620  13.081   8.252  12.419  0.0535 -0.1173 -0.2034
31547W        W47621   4.674  11.271   4.736 -0.1598  0.1396  0.5679
31548W        W47622  18.783   1.019   1.796  0.0051 -0.1301 -0.1739
31549W        W47623  15.376   3.408   1.718 -0.1753 -0.0308  0.0360
31550W        W47624  16.467  13.819   3.078 -0.0738 -0.0005  0.1100
31551W        W47625   9.166  16.185  12.770  0.2229 -0.3247 -0.1836
31552W        W47626  17.612   8.792  12.775  0.1674 -0.0259 -0.1523
31553W        W47627   0.952   3.541  11.489  0.3719  0.0578 -0.0420
31554W        W47628  18.350  15.130   1.814  0.1040  0.2113  0.0134
31555W        W47629  14.190   3.420   3.657 -0.0997 -0.0967 -0.1244
31556W        W47630   7.186  13.822   1.527 -0.0186  0.1178 -0.0025
31557W        W47631   2.140   6.274  11.359 -0.0612 -0.1810  0.0333
31558W        W47632   5.712   4.461  12.507 -0.1732 -0.0854 -0.1590
31559W        W47633   9.928  18.287   4.426  0.0013 -0.0110 -0.0601
31560W        W47634   1.545  15.634   9.689 -0.1902  0.1334 -0.2973
31561W        W47635  13.722   2.392   1.056  0.0813 -0.1916  0.0994
31562W        W47636  15.732  13.847   4.244  0.0473 -0.0265  0.4884
31563W        W47637  16.294   3.969   3.861  0.0572 -0.0515 -0.3105
31564W        W47638  14.913   7.260  11.642  0.1064  0.0703  0.1076
31565W        W47639   8.730   2.966   2.190  0.3778 -0.0046  0.4523
31566W        W47640   0.861  14.758   3.673  0.3793  0.0395  0.1726
31567W        W47641   5.423   0.524  13.291 -0.2655 -0.0296 -0.0861
31568W        W47642  11.635  13.779  11.628 -0.1011 -0.0938 -0.2388
31569W        W47643   3.674  19.277  10.220 -0.0506  0.2344  0.0765
31570W        W47644  10.339   8.565  14.184  0.0779 -0.0202  0.2096
31571W        W47645   4.598  14.957  13.377  0.0153 -0.0764  0.3268
31572W        W47646   0.665  13.638  14.700 -0.1174 -0.1793  0.0511
31573W        W47647   4.639  11.722  14.417  0.0244  0.0230 -0.1039
31574W        W47648  12.330  14.166   0.890  0.2751 -0.1481  0.1168
31575W        W47649   9.280  12.357   5.182 -0.1612  0.1087 -0.1077
31576W        W47650   9.279   1.559  12.239 -0.2509 -0.2376  0.2468
31577W        W47651  16.703   4.011   2.908 -0.1480 -0.1682 -0.0972
31578W        W47652  16.870  14.844  11.832  0.1415 -0.2315 -0.2554
31579W        W47653   4.549   7.703  11.456 -0.2528 -0.0415 -0.1605
31580W        W47654   0.837   0.568  13.033 -0.1109 -0.0480  0.0265
31581W        W47655   0.515   2.760   1.528 -0.1947 -0.0143  0.0612
31582W        W47656   3.781  14.427  14.357  0.1671  0.1753  0.2425
31583W        W47657   9.230  18.861  14.092  0.4009  0.0770 -0.3764
31584W        W47658  16.074   7.172  12.075 -0.2457 -0.0021  0.0636
31585W        W47659  12.734  15.008  10.739 -0.0876 -0.2340  0.2241
31586W        W47660  19.042  15.339   2.497  0.1191  0.1100  0.1754
31587W        W47661  10.400  14.922  12.300  0.1073  0.1139  0.1428
31588W        W47662  15.671   3.230  11.346 -0.1268 -0.0572 -0.1607
31589W        W47663   6.787   7.844   2.354 -0.3971  0.0089 -0.1036
31590W        W47664  15.799  18.774   1.153 -0.0373  0.2872  0.0872
31591W        W47665  10.593   6.181  11.105  0.3876  0.3960  0.0135
31592W        W47666   3.089   3.977  13.051 -0.1111 -0.1487  0.1971
31593W        W47667  13.841   3.266  10.343 -0.1125  0.0353  0.3108
31594W        W47668  14.444  12.624  12.730  0.1801  0.0650  0.3348
31595W        W47669  14.732   9.914  13.787  0.0504 -0.1650  0.4582
31596W        W47670  13.278   3.742   2.028 -0.1732 -0.1189 -0.1492
31597W        W47671   1.847   2.737  13.504  0.2846 -0.0817 -0.5179
31598W        W47672   3.156  13.458   3.217 -0.0922  0.0523  0.0231
31599W        W47673   9.472   8.473   0.566 -0.0485 -0.0734  0.3868
31600W        W47674  14.018  17.678   0.390 -0.0775 -0.0624 -0.1507
31601W        W47675  11.230  13.113   2.873 -0.0966  0.1942  0.0257
31602W        W47676   0.257  18.985   9.777 -0.1302  0.3153  0.1571
31603W        W47677   5.196  13.783   3.516  0.4504  0.1387  0.0939
31604W        W47678   3.524  14.688   2.657 -0.1850 -0.1079  0.0540
31605W        W47679  11.188  16.935  11.299  0.1265  0.1278 -0.0076
31606W        W47680   5.586   8.033   5.260  0.1868  0.4196  0.1263
31607W        W47681   4.996   0.810  12.963  0.1892  0.0863 -0.1054
31608W        W47682  18.163  17.988  10.411 -0.1480 -0.1184  0.4263
31609W        W47683   8.388   3.717  12.614 -0.1176 -0.0163 -0.3092
31610W        W47684   9.689   6.514   1.565 -0.0871 -0.2311 -0.3432
31611W        W47685  12.740   9.811   2.126  0.1548  0.1528 -0.0484
31612W        W47686  11.754   6.602  13.104 -0.0142 -0.1519 -0.1716
31613W        W47687  18.757  15.338  14.093 -0.1421  0.2059 -0.0311
31614W        W47688  17.944   6.509  14.421  0.2343  0.3713 -0.1343
31615W        W47689  18.328  10.608   1.053  0.1782  0.1539 -0.1829
31616W        W47690   5.472   7.390   1.967 -0.1754  0.1126 -0.3680
31617W        W47691  14.527   7.716   5.636  0.0046 -0.4464 -0.1099
31618W        W47692   1.840  11.410  11.283  0.1149  0.1424 -0.1904
31619W        W47693   9.103  14.386   1.658 -0.2162 -0.2679 -0.2352
31620W        W47694  14.178  16.442  14.169 -0.0780  0.0696  0.2396
31621W        W47695   3.171   2.805  13.829 -0.0987 -0.2822  0.1337
31622W        W47696  13.125  17.516   1.676 -0.3307  0.0612 -0.0616
31623W        W47697   8.578   0.765   4.093  0.3242  0.1813  0.1691
31624W        W47698   6.166   3.990   1.701  0.0728  0.0820 -0.4192
31625W        W47699   0.153  16.991   4.290  0.2385 -0.3344 -0.3705
31626W        W47700   1.462  10.135  12.904 -0.0414 -0.0179 -0.0528
31627W        W47701   7.970   9.678   2.219  0.1157  0.0694  0.0130
31628W        W47702   0.514  17.857   2.769  0.1517  0.0501 -0.0927
31629W        W47703   8.700   2.778  11.621 -0.2016 -0.0131 -0.0028
31630W        W47704   1.946  19.041  10.345  0.1410  0.2167  0.1231
31631W        W47705  18.786   3.885   3.753 -0.2743 -0.0020  0.1550
31632W        W47706   9.082   2.797  12.084  0.1023  0.2529  0.1011
31633W        W47707   3.568   2.495   1.593  0.0833 -0.3766  0.1000
31634W        W47708  11.046   6.332  12.403 -0.1503  0.0868 -0.1240
31635W        W47709   4.274  10.107  10.809  0.1583 -0.0389 -0.0234
31636W        W47710  14.801   5.332   3.270 -0.0081 -0.0825  0.2019
31637W        W47711   8.089   6.362  11.633 -0.0761 -0.0344 -0.3596
31638W        W47712   1.969   5.367  11.400  0.0133 -0.0567  0.3032
31639W        W47713  15.414  17.187  12.211  0.0371  0.0171 -0.3254
31640W        W47714  16.509   5.187  12.852 -0.4056 -0.0586  0.1429
31641W        W47715   2.304   8.804  12.247 -0.0303 -0.1345 -0.0476
31642W        W47716   8.956  14.574  12.398 -0.0089  0.1305 -0.2161
31643W        W47717  15.713   0.446   9.889 -0.0094  0.0022 -0.0872
31644W        W47718   1.805   5.331   0.402  0.1304  0.0035 -0.0154
31645W        W47719  17.906   8.214   2.934  0.1517  0.0039  0.3841
31646W        W47720  17.330   2.347  12.715  0.0011  0.1606 -0.3401
31647W        W47721   6.122   4.132  13.329  0.0743 -0.2399 -0.1907
31648W        W47722   8.603   0.010   4.198 -0.0857  0.1259  0.1123
31649W        W47723   1.579   2.745  14.649  0.1214  0.0466  0.4125
31650W        W47724  11.942   5.327  11.426 -0.1719 -0.0139  0.2326
31651W        W47725   8.667   6.015   5.003  0.2115 -0.0040 -0.1283
31652W        W47726   2.183   8.563   0.298 -0.0480 -0.0598 -0.0600
31653W        W47727  12.230   6.753  12.350 -0.0376  0.5782 -0.0980
31654W        W47728  17.455  14.011   0.161  0.1492 -0.3716  0.0950
31655W        W47729   2.765  10.011  12.056 -0.0699 -0.0856 -0.2313
31656W        W47730   2.387   1.731   5.040  0.0429 -0.3899  0.1185
31657W        W47731  11.330  13.365   4.613 -0.1446  0.1341 -0.1908
31658W        W47732   2.159   5.213  13.304  0.0023  0.0398 -0.0113
31659W        W47733  18.720   8.134   2.383 -0.3485 -0.0548  0.1228
31660W        W47734  17.640  16.688  12.590 -0.0107 -0.3318  0.1487
31661W        W47735   6.969   5.489   2.758 -0.0732  0.0596  0.0180
31662W        W47736  16.890  15.658   0.565  0.2219 -0.1998 -0.1991
31663W        W47737   7.137  15.249   4.675 -0.1166 -0.1438 -0.0462
31664W        W47738  14.757  12.674   0.920 -0.0082  0.1192 -0.4268
31665W        W47739  19.265  14.998   0.751  0.0589 -0.1153 -0.2580
31666W        W47740   4.260   7.236   4.009  0.3871 -0.1298  0.1683
31667W        W47741   1.373  11.253  10.032  0.1181  0.1193 -0.0383
31668W        W47742  10.786  10.922   1.199 -0.0301 -0.1467 -0.0502
31669W        W47743  17.497  10.509  12.755  0.1792  0.0713 -0.0001
31670W        W47744   0.205   8.004   9.516  0.3566  0.1657  0.1499
31671W        W47745  13.360   5.527  12.467  0.0373 -0.0478 -0.1172
31672W        W47746  17.826   0.214  14.444  0.3794 -0.2219 -0.1802
31673W        W47747  10.574   3.888  12.194 -0.1291 -0.1838  0.0531
31674W        W47748   5.453   8.983   2.694  0.2859 -0.1285 -0.2472
31675W        W47749   6.952  19.242   0.115  0.2903  0.3530  0.1349
31676W        W47750   2.194   1.453   2.248  0.3050 -0.2291 -0.1735
31677W        W47751   0.220  16.288  14.784 -0.1985  0.0237 -0.0126
31678W        W47752   8.848   3.480   1.600 -0.1130 -0.1080  0.0461
31679W        W47753  18.727  15.790   3.184 -0.1303  0.0138 -0.2283
31680W        W47754   4.967  18.412   9.840 -0.1181  0.0365 -0.0899
31681W        W47755   4.607   4.386  14.440 -0.0563  0.0266  0.3423
31682W        W47756   6.593   8.492   0.121 -0.0708 -0.0754  0.1453
31683W        W47757  18.009   6.371  11.833 -0.1777  0.1218  0.0014
31684W        W47758   9.450  14.772   1.522  0.2138  0.2125 -0.0558
31685W        W47759  11.681   5.389   1.986  0.1072  0.2140  0.1460
31686W        W47760  14.056  17.439   2.329 -0.3097 -0.0248 -0.1660
31687W        W47761   4.996   5.011   3.132 -0.2330  0.1013 -0.1717
31688W        W47762   4.473   0.990  12.258 -0.0645  0.2460  0.2051
31689W        W47763  18.431   9.993  13.801  0.1168  0.0749  0.0143
31690W        W47764   7.102   6.191   1.238  0.3749  0.4749  0.1010
31691W        W47765  13.604  16.681   2.746  0.2499  0.0234  0.0798
31692W        W47766  15.308  16.731  13.799  0.0442  0.0406  0.0556
31693W        W47767   2.574   2.938  14.659 -0.1369  0.0011 -0.0223
31694W        W47768   1.647  18.136  13.661  0.0754 -0.0498  0.1473
31695W        W47769  15.492   1.561   0.372 -0.2391 -0.2416 -0.1341
31696W        W47770   6.220   2.603   3.769  0.1057  0.0453  0.4147
31697W        W47771  16.412  16.868  12.642 -0.0480 -0.1520  0.3594
31698W        W47772   9.319  15.183   4.571  0.1242 -0.1412 -0.0198
31699W        W47773   0.290  14.874  13.619  0.1966 -0.2972 -0.3136
31700W        W47774   0.912   2.276  12.647 -0.0412 -0.0929  0.1557
31701W        W47775  17.165   4.083   2.775 -0.1635  0.0491 -0.0548
31702W        W47776   2.029   4.940  12.737  0.4153  0.1322 -0.0241
31703W        W47777   4.883  17.480   3.022 -0.2712  0.0826  0.1945
31704W        W47778  19.047   4.343  11.152  0.3302 -0.0405 -0.3206
31705W        W47779  12.841   7.212  11.628 -0.0120 -0.0895  0.0355
31706W        W47780   8.641   6.575  12.289 -0.2544 -0.5856  0.0818
31707W        W47781  18.801  14.511  12.201  0.0056  0.2416 -0.1505
31708W        W47782   1.401   4.421   5.007 -0.0572 -0.1723  0.0731
31709W        W47783  14.673   4.159   5.223  0.0939  0.0295  0.0310
31710W        W47784   5.775  16.423  12.346  0.0436  0.1214  0.0737
31711W        W47785   5.323   6.360   2.698  0.1757 -0.1710 -0.0501
31712W        W47786  14.815   5.886  13.617  0.2418  0.0040  0.3876
31713W        W47787   6.105  12.746   1.288  0.1324  0.1227  0.2750
31714W        W47788   5.659  15.395   4.269  0.0838  0.0380  0.0642
31715W        W47789   2.700  12.734   0.682  0.2478  0.4103 -0.0649
31716W        W47790   1.418  13.984  11.520  0.0404  0.1937 -0.2540
31717W        W47791   2.540  18.238  13.151  0.2157  0.1907 -0.0065
31718W        W47792  13.886  10.306   1.607  0.0112 -0.4436  0.0405
31719W        W47793  17.906   3.579   4.052  0.0574  0.1243  0.1399
31720W        W47794  17.567  11.106  10.855  0.1755  0.1386 -0.2456
31721W        W47795  10.211   9.792  12.100  0.1208  0.1462  0.0143
31722W        W47796  16.583   3.133   3.420 -0.3514 -0.2139 -0.1669
31723W        W47797   5.184  10.091  14.067  0.4264 -0.0139  0.0993
31724W        W47798   4.806  10.019  10.904 -0.1428 -0.3781 -0.0540
31725W        W47799  16.878  13.113   2.524  0.2963  0.1725 -0.0137
31726W        W47800  16.081  12.284  14.470 -0.1450 -0.0191  0.1102
31727W        W47801  13.823   0.745   2.999 -0.0916  0.0386 -0.0139
31728W        W47802   5.753  14.219   3.194  0.1536  0.0879 -0.1678
31729W        W47803   7.494  13.710  13.292 -0.1012 -0.1057  0.3006
31730W        W47804   6.369   3.483   0.388 -0.0355  0.1997 -0.2247
31731W        W47805  11.344  15.580  13.183  0.0271 -0.0625  0.0024
31732W        W47806   8.577   3.923  13.734 -0.1306 -0.2280 -0.1224
31733W        W47807   4.046   5.939   3.887  0.5106 -0.0683  0.1938
31734W        W47808  18.532   6.399   2.135 -0.3002 -0.0127  0.2053
31735W        W47809   1.874   0.462  14.705  0.0943 -0.3953 -0.1665
31736W        W47810   3.318   0.500   5.653 -0.2437 -0.2740 -0.0695
31737W        W47811   5.459   8.509   5.105 -0.3040 -0.1507 -0.0122
31738W        W47812  19.123  15.273  15.037 -0.0906 -0.1578  0.1829
31739W        W47813   5.727  16.752   2.455  0.0853 -0.1385  0.2061
31740W        W47814   3.199   9.900  14.565 -0.1102 -0.0539 -0.1902
31741W        W47815  15.983   0.748  13.934 -0.0155  0.0323  0.1676
31742W        W47816   0.460   0.970  12.928  0.0145  0.3138 -0.0702
31743W        W47817  11.777  12.835  14.700  0.0334  0.0216 -0.3990
31744W        W47818   4.062  14.615  11.554  0.4143  0.1089 -0.4178
31745W        W47819  14.047  15.131  10.549  0.0125  0.2294  0.0135
31746W        W47820   3.631   5.211   2.024 -0.2110 -0.0298  0.2321
31747W        W47821   5.632   7.460  13.025 -0.1444 -0.1908  0.0314
31748W        W47822   9.342   2.642   2.636 -0.2085  0.1295 -0.1877
31749W        W47823  17.462  10.485  14.208  0.1229  0.1051  0.1169
31750W        W47824   2.141   9.309   2.468 -0.1669  0.1453 -0.0353
31751W        W47825   2.908  12.496  13.324 -0.1207 -0.0413  0.2470
31752W        W47826  11.343   9.255  11.995  0.1971  0.0140 -0.1771
31753W        W47827   2.095   0.551  11.258  0.3452 -0.1000  0.0069
31754W        W47828  14.449   3.541   2.157  0.2137 -0.0251  0.0315
31755W        W47829   7.951   0.459  12.782  0.1191  0.1093 -0.2959
31756W        W47830   9.490  13.418  11.514 -0.1896  0.1916 -0.0011
31757W        W47831  18.573   0.151   0.011 -0.0865  0.0586  0.3451
31758W        W47832  17.176   6.293   4.563  0.1574  0.1931  0.0477
31759W        W47833   8.779   8.042   4.581  0.3494 -0.0470  0.5960
31760W        W47834  12.382  11.937  13.311  0.0888 -0.1834  0.1405
31761W        W47835   1.803  17.405  12.104  0.2104 -0.0628  0.2407
31762W        W47836   0.275  10.543   4.677  0.1721  0.1715 -0.2184
31763W        W47837   1.022  16.106  11.136 -0.1937 -0.0545 -0.2946
31764W        W47838   0.280  13.710   5.645 -0.0242  0.1474 -0.0264
31765W        W47839  10.098  15.908   0.555 -0.1203  0.1944  0.1279
31766W        W47840  12.422   2.983  12.666  0.1029 -0.0736  0.2362
31767W        W47841   2.670   9.361   2.696 -0.2582  0.0550 -0.0393
31768W        W47842   8.800  13.944   2.210 -0.0750  0.1425  0.3349
31769W        W47843  14.081  16.873  12.187 -0.1397  0.0633 -0.3225
31770W        W47844   8.246  17.129  11.619  0.1516  0.0351  0.1934
31771W        W47845   0.287  14.426   5.205 -0.1005  0.0880 -0.2017
31772W        W47846   7.230  10.257  12.676  0.2183  0.0768  0.0515
31773W        W47847  10.557   5.059  11.240  0.1585 -0.0289 -0.0094
31774W        W47848   1.227   3.856   2.450  0.0630 -0.2800  0.0555
31775W        W47849  19.253  19.189  11.983 -0.2577  0.2841 -0.3154
31776W        W47850  18.095  12.782  12.785 -0.1096  0.0619 -0.2740
31777W        W47851  13.878  18.681  13.118 -0.0425  0.1887  0.0215
31778W        W47852   0.276   0.393   0.333  0.0777 -0.2890  0.2008
31779W        W47853   5.106  12.980  11.155  0.1499 -0.0435 -0.1398
31780W        W47854  13.568  18.597  12.599 -0.1407 -0.0281 -0.2664
31781W        W47855   6.095   2.673   1.373  0.1796  0.0302  0.3147
31782W        W47856   4.618   3.289  11.872 -0.0159 -0.0733 -0.3090
31783W        W47857   3.147  14.344   3.300  0.0739  0.3689  0.0167
31784W        W47858   9.686   5.125  11.229  0.2707 -0.0575  0.0763
31785W        W47859  15.075  11.106   0.667 -0.0616  0.0757  0.0564
31786W        W47860  15.162  12.367   0.036  0.0579  0.0864  0.1873
31787W        W47861  17.961  10.835   3.175  0.2564  0.0129 -0.1954
31788W        W47862   6.318  13.012   0.922  0.1862  0.0754 -0.0273
31789W        W47863   9.889   0.912   2.005  0.0756  0.1725  0.1673
31790W        W47864   8.903   0.704  12.349 -0.0660  0.0361 -0.1284
31791W        W47865   0.624   1.572  14.703  0.1537 -0.1710  0.0817
31792W        W47866  16.705   6.936   6.030 -0.1518 -0.2591  0.0733
31793W        W47867   7.198   0.100   3.845 -0.2414  0.0382  0.2289
31794W        W47868   4.993   0.200   3.004  0.0606 -0.1073 -0.0135
31795W        W47869   9.501  11.078   2.516  0.1364  0.0687  0.1993
31796W        W47870  12.635   8.771   5.038  0.2915 -0.3772  0.0957
31797W        W47871  17.391  16.426   4.180  0.1974 -0.1343 -0.0375
31798W        W47872   2.378   5.717   2.744 -0.1862  0.1848  0.0154
31799W        W47873  14.905  10.950  11.375 -0.5991 -0.1072  0.0279
31800W        W47874  15.550   0.849  14.321 -0.0209  0.0366  0.0074
31801W        W47875  16.833  13.386  15.032 -0.2377 -0.0276  0.3943
31802W        W47876  12.194   8.885  14.707  0.0712  0.0607 -0.0821
31803W        W47877  19.062   7.081   2.393  0.2091  0.1490  0.0555
31804W        W47878   5.014  14.400   3.846  0.4180  0.2435  0.0248
31805W        W47879  13.885   0.363  12.211 -0.1749  0.2537  0.0482
31806W        W47880   0.119   9.138  11.374 -0.3135  0.2566  0.0052
31807W        W47881  15.739   2.274   0.041 -0.0016  0.1192  0.1104
31808W        W47882   6.135   4.319  13.810  0.2555 -0.2511 -0.2185
31809W        W47883  18.805  17.078  10.798 -0.2735 -0.2811 -0.0283
31810W        W47884  12.931  15.773  10.411  0.0474  0.1135  0.0800
31811W        W47885  15.777   7.979   4.600 -0.0040 -0.0214  0.2557
31812W        W47886  13.703  10.999   2.825  0.1684 -0.0832 -0.2965
31813W        W47887   8.050  15.215   2.140  0.0420  0.2289  0.0051
31814W        W47888  14.506   7.610  14.923  0.0328 -0.0218  0.3524
31815W        W47889   1.073   2.971   0.259 -0.0642  0.0545 -0.0249
31816W        W47890  13.338  12.010  14.972  0.1936  0.0311  0.0873
31817W        W47891   1.605   3.946  12.424  0.2442 -0.2598  0.1824
31818W        W47892  12.615  16.543  10.881  0.0056  0.1488  0.0329
31819W        W47893  12.237  14.370   3.672 -0.0206 -0.1400 -0.0941
31820W        W47894   1.150   3.998  14.967  0.1625 -0.1216  0.0609
31821W        W47895   2.440   8.708   3.999  0.1603 -0.0670 -0.0033
31822W        W47896   9.276  13.375  12.354 -0.3242  0.0214  0.0125
31823W        W47897   7.432   9.459   5.075  0.0049  0.0750 -0.0516
31824W        W47898   4.998  15.294   0.646  0.0634  0.0509  0.0985
31825W        W47899   0.583  18.948  14.420 -0.1208 -0.2730 -0.3492
31826W        W47900  19.252  18.119  10.023 -0.1526  0.1485  0.0529
31827W        W47901  17.567   4.266   1.264 -0.0966 -0.2691 -0.0013
31828W        W47902   4.765   9.623   4.955  0.0271  0.3154  0.0550
31829W        W47903  14.112  18.919   1.677 -0.1141 -0.0719  0.1323
31830W        W47904  14.710  16.178  13.132 -0.1828  0.0376  0.0151
31831W        W47905  16.419   1.127  14.865  0.1573 -0.3656  0.2571
31832W        W47906   4.059  13.146  12.174 -0.0093  0.1391  0.0407
31833W        W47907  16.186   3.189  11.173  0.1374  0.1014 -0.2065
31834W        W47908   5.985  11.442   2.096  0.1280 -0.1933  0.2806
31835W        W47909   9.128  17.231   2.775 -0.3299 -0.1175 -0.1567
31836W        W47910  13.493   4.326   2.739 -0.3342  0.1684  0.0800
31837W        W47911   7.062   9.436  15.038  0.3696  0.1990 -0.1033
31838W        W47912  12.850   2.817   3.619 -0.1859 -0.3918 -0.0317
31839W        W47913  13.035  16.989   4.392 -0.1033 -0.1164 -0.0592
31840W        W47914  11.315   4.233   3.308  0.0218 -0.1604  0.0016
31841W        W47915   7.989  17.160   0.266  0.2601  0.0775 -0.0559
31842W        W47916  12.464  12.342   4.052 -0.0254 -0.0892 -0.2653
31843W        W47917   0.350   5.130   3.153  0.2505  0.0094  0.0913
31844W        W47918   3.673   1.369   5.513  0.2624 -0.0442 -0.2921
31845W        W47919   2.253   8.452  12.908 -0.0190  0.1064 -0.0830
31846W        W47920  14.704  17.507  14.197 -0.0161  0.0312  0.0352
31847W        W47921   8.545   9.843  10.991  0.0456 -0.1804 -0.3472
31848W        W47922  16.119  17.168   3.590  0.1609  0.0122 -0.0718
31849W        W47923   3.017  17.668   3.245  0.0466  0.0295 -0.0324
31850W        W47924   4.557   2.650   0.654 -0.1824  0.2343  0.0131
31851W        W47925   3.609  13.443  11.004 -0.3890  0.0223  0.4413
31852W        W47926  19.013   3.338   1.388  0.3571  0.1414  0.0003
31853W        W47927   1.621  18.994   2.294  0.2173  0.1515  0.3480
31854W        W47928  14.844   2.653  11.645  0.0768  0.0749  0.2507
31855W        W47929  13.614  18.630   0.483 -0.1087 -0.2380  0.0344
31856W        W47930  15.681  17.731  11.278 -0.1856  0.2835  0.3116
31857W        W47931  12.202  14.797   3.420  0.1243  0.0368 -0.0994
31858W        W47932   0.998   8.753  14.520  0.2341 -0.0669 -0.1306
31859W        W47933  16.797  14.014  11.205  0.2973 -0.0392  0.5505
31860W        W47934   4.950  18.265   4.678  0.0520  0.1005 -0.0134
31861W        W47935  12.889   8.390   0.823 -0.0182  0.0672  0.1203
31862W        W47936   7.961   0.565  10.755 -0.1912 -0.0991 -0.0036
31863W        W47937   8.631  13.317  11.361  0.0913 -0.1413 -0.1397
31864W        W47938   0.775   6.163   1.329  0.2492  0.0986 -0.3199
31865W        W47939   1.473  18.672  11.159 -0.1895  0.1312 -0.1691
31866W        W47940   6.123   0.829  10.434 -0.1818  0.1822 -0.2335
31867W        W47941  10.187  13.979  14.020  0.1037  0.0541  0.1766
31868W        W47942   6.420   8.232  12.618 -0.0112  0.1178 -0.1234
31869W        W47943  12.325  14.945  10.446  0.3521  0.1166  0.3015
31870W        W47944  18.483  15.969  10.520 -0.0762 -0.1111  0.0017
31871W        W47945   1.396   4.374  14.000 -0.0697  0.0379  0.1012
31872W        W47946  14.488  18.128   2.891  0.1663 -0.1508  0.2878
31873W        W47947   3.735  16.318  13.389 -0.1911  0.0494 -0.1727
31874W        W47948  19.036  12.635   5.734 -0.0244 -0.0383 -0.2112
31875W        W47949   7.515   0.284  14.626 -0.3197  0.3357  0.0213
31876W        W47950   7.995   8.066  12.776  0.1984  0.1349  0.0219
31877W        W47951  10.971  16.600   3.435  0.4159 -0.0255 -0.0230
31878W        W47952  10.834   1.941  14.778  0.2707 -0.3132 -0.3007
31879W        W47953   6.617   4.279  13.898  0.2499 -0.0867 -0.2182
31880W        W47954  18.683   2.085   4.774  0.0837  0.1487 -0.0136
31881W        W47955  13.876   6.817  11.422  0.0130 -0.3143  0.2037
31882W        W47956   9.274   7.479  12.689 -0.0891  0.3272  0.1716
31883W        W47957  15.356  13.783   3.796  0.1780  0.2822 -0.1335
31884W        W47958   2.598  12.565  10.290  0.1025 -0.1525  0.2580
31885W        W47959  17.390   6.598   9.519 -0.3319 -0.0007  0.2139
31886W        W47960   4.008  19.286   3.235 -0.2079 -0.1098  0.1340
31887W        W47961  18.848  13.822  13.568 -0.3093  0.1211  0.4897
31888W        W47962  18.517  11.090   2.288 -0.1841  0.1896 -0.0420
31889W        W47963   5.018   4.061   3.733  0.0901  0.0654 -0.0480
31890W        W47964  11.096   8.799   1.408  0.0100 -0.0472 -0.0400
31891W        W47965  15.208  17.265   3.723  0.3330 -0.0167  0.2940
31892W        W47966   7.628  17.587  14.704  0.4140  0.0300  0.1351
31893W        W47967  18.855   6.099  13.275 -0.1073 -0.1115 -0.3230
31894W        W47968   2.879  10.657   1.709 -0.1082  0.2613 -0.0127
31895W        W47969  14.633  15.122   3.821 -0.0507  0.3820 -0.1453
31896W        W47970   5.362  15.383  15.015 -0.0525  0.1115  0.2763
31897W        W47971  18.433   4.582  13.249 -0.0293 -0.0331  0.0762
31898W        W47972   9.253   1.672   0.575  0.0793 -0.0069 -0.0005
31899W        W47973   0.338  12.880   0.030 -0.1935 -0.1118  0.0404
31900W        W47974   4.098   5.303  14.652 -0.0600 -0.0373  0.0474
31901W        W47975  16.222  18.467  11.188 -0.1766 -0.0707  0.0044
31902W        W47976  10.959   9.258  12.344  0.3952  0.1317  0.1193
31903W        W47977   6.995  10.589   3.790 -0.4006  0.1125 -0.0690
31904W        W47978  11.869  13.609  12.623  0.1058  0.0421  0.1366
31905W        W47979   6.830   1.971   5.291  0.1110 -0.2589  0.0275
31906W        W47980   2.711   7.404   0.135 -0.0585 -0.1697 -0.1857
31907W        W47981   2.774  19.019   4.635 -0.0934 -0.2475 -0.0168
31908W        W47982  17.701   3.621  11.685 -0.0904 -0.0724 -0.0781
31909W        W47983  16.539   1.715  13.565  0.3902 -0.1905  0.1414
31910W        W47984  17.582   3.064  13.740 -0.0404 -0.1694 -0.0673
31911W        W47985   5.647   8.624  10.137 -0.2523 -0.1535 -0.1829
31912W        W47986   8.328   0.022   9.526 -0.2893  0.0786 -0.2265
31913W        W47987  14.479  16.394   1.506  0.2765 -0.2276 -0.0044
31914W        W47988  14.022  16.390   3.463  0.1162 -0.2115 -0.1482
31915W        W47989   9.172  11.130  10.893  0.1413  0.0886 -0.1135
31916W        W47990  13.377  17.110  14.887 -0.1617  0.0213  0.4445
31917W        W47991  16.470   1.844   9.242  0.0275  0.2682 -0.1870
31918W        W47992  17.185   5.837   2.952  0.1569  0.0677 -0.1080
31919W        W47993   9.857  16.464   4.960 -0.0955 -0.0177  0.1200
31920W        W47994  15.048  13.223  11.606 -0.1306 -0.2326 -0.2427
31921W        W47995   9.034  15.996   1.976  0.2055  0.2240  0.2785
31922W        W47996   5.701  11.455  12.460 -0.1879 -0.1346 -0.1597
31923W        W47997  16.315  16.159   0.631 -0.2395  0.0179  0.2070
31924W        W47998   6.899   9.426   1.513 -0.0492  0.1028  0.2476
31925W        W47999  16.474   4.692   1.871  0.3551 -0.2307 -0.2430
31926W        W48000   7.679   4.386   1.362  0.3460 -0.2581 -0.1100
31927W        W48001  18.844   5.794   1.094  0.0113  0.2071 -0.1209
31928W        W48002  17.070   8.934   0.034  0.1331  0.1278 -0.1896
31929W        W48003   4.477  15.470   3.780  0.3883  0.1537 -0.0036
31930W        W48004   1.822   3.173  13.685 -0.0242 -0.1061 -0.0592
31931W        W48005  11.755   7.492   1.023 -0.1797 -0.0971 -0.0144
31932W        W48006  16.791   2.131  12.543 -0.1299  0.0776 -0.1697
31933W        W48007   3.588  10.166  12.582  0.0009 -0.0212  0.1248
31934W        W48008   3.833  14.559  13.153  0.2921 -0.0463 -0.0214
31935W        W48009   3.979   4.878   3.447  0.1289 -0.3049  0.1623
31936W        W48010   9.583   1.695  14.951  0.2013 -0.1117 -0.1760
31937W        W48011   0.773   3.572   3.136  0.1367 -0.1961  0.1205
31938W        W48012   9.744  11.217   5.942 -0.2256  0.3027  0.2973
31939W        W48013  11.777   5.909   9.452 -0.0613 -0.2212 -0.2518
31940W        W48014   1.215  10.194   5.580 -0.0474  0.2306 -0.2717
31941W        W48015  19.281  10.866  14.415  0.0721  0.0296  0.4335
31942W        W48016  15.126  12.778  11.410  0.4160 -0.0999 -0.1467
31943W        W48017  14.600   9.545  11.053 -0.0995 -0.0694  0.1134
31944W        W48018  14.814  15.566  14.320 -0.0650  0.1954  0.0111
31945W        W48019   6.958  18.819  11.023  0.2636  0.2321  0.0306
31946W        W48020   1.479  13.884  12.969 -0.2199 -0.1772  0.2015
31947W        W48021   6.980   0.308  12.030 -0.1323 -0.0677  0.3561
31948W        W48022  10.231   1.141   3.687  0.1667 -0.0854  0.0785
31949W        W48023  17.553   1.645   1.157 -0.1571  0.1386 -0.0483
31950W        W48024   6.282   9.050   4.933 -0.0020 -0.0572 -0.0072
31951W        W48025   8.680   3.742  13.160  0.0565  0.3610  0.3651
31952W        W48026  15.600  18.184   0.144  0.0647 -0.0149  0.2487
31953W        W48027  12.770  12.604   3.211 -0.0613  0.1341 -0.3268
31954W        W48028   7.811   8.475  12.522 -0.0047 -0.1217 -0.2315
31955W        W48029   0.580  17.909  10.752  0.4279  0.2543 -0.0823
31956W        W48030  15.409   8.443  11.801 -0.0881  0.1979 -0.1107
31957W        W48031  15.860   7.262  14.548 -0.0305 -0.1465  0.1780
31958W        W48032   5.613   9.901   0.254 -0.1353  0.1301  0.2786
31959W        W48033  17.693  12.253   1.295  0.1243 -0.1202  0.3544
31960W        W48034   7.394  11.929   2.790 -0.1638  0.0609  0.1598
31961W        W48035  12.072   7.907  11.029  0.1510  0.0833  0.0069
31962W        W48036   3.459   8.998   1.611  0.0378  0.3276 -0.2752
31963W        W48037   0.116  12.448  14.490 -0.0891 -0.0747 -0.1065
31964W        W48038  10.664   7.840  14.518  0.0311  0.0604 -0.0098
31965W        W48039   1.860   0.521  13.371  0.1031 -0.1371 -0.0703
31966W        W48040   4.211  11.211   4.033 -0.2683 -0.2747  0.1392
31967W        W48041  11.933  10.588  13.581 -0.2090  0.3410 -0.3734
31968W        W48042   4.865  10.689   2.349  0.0824  0.2004 -0.0942
31969W        W48043   4.517  11.498   1.078 -0.0148  0.0311  0.2290
31970W        W48044  15.640  14.989   4.950  0.0593  0.1326  0.1422
31971W        W48045  14.386   1.066  14.430  0.1060 -0.0642 -0.1223
31972W        W48046   9.634  14.084   4.889  0.2737  0.2132 -0.1349
31973W        W48047  18.506   4.081   0.884  0.3645  0.3557  0.2696
31974W        W48048  16.659   8.372   2.596  0.2369  0.0686 -0.0515
31975W        W48049  19.160   6.377   1.771 -0.0562  0.3030  0.1923
31976W        W48050   1.531   0.858  12.411  0.1863 -0.0011  0.2482
31977W        W48051   8.934   4.978   4.290 -0.1751  0.2676 -0.3379
31978W        W48052   7.186  18.839   1.818  0.0830 -0.1713  0.0549
31979W        W48053  10.656  18.502   1.436  0.1632 -0.0876  0.1911
31980W        W48054  16.131   1.407   5.081  0.0075 -0.0122  0.0942
31981W        W48055  11.939   3.041  10.148 -0.0525  0.2094 -0.0072
31982W        W48056  13.990  18.192   2.921  0.0563 -0.1260 -0.0051
31983W        W48057  11.880   2.449   0.558  0.1609 -0.0441  0.1543
31984W        W48058  17.779  17.964   5.182  0.2999  0.1759  0.0628
31985W        W48059  11.320   6.431  13.996  0.0514 -0.1379  0.1377
31986W        W48060  17.917   4.387   1.543 -0.3048 -0.5881 -0.3106
31987W        W48061  17.613   6.211  13.233  0.0478 -0.0640 -0.0474
31988W        W48062   1.842   4.094  13.817 -0.0349 -0.1513  0.0769
31989W        W48063  14.380   1.870  13.017  0.1424 -0.0903 -0.0592
31990W        W48064  14.068  14.953   0.322 -0.1193 -0.1396  0.2801
31991W        W48065  16.806  13.618  10.144  0.1709  0.1927  0.1388
31992W        W48066   5.926  10.472   4.364 -0.1390 -0.2350  0.0878
31993W        W48067  14.359   1.466   3.161  0.0771 -0.2964  0.0041
31994W        W48068  10.054   7.885  11.295  0.0893  0.3048 -0.1220
31995W        W48069   9.492  17.016  14.262  0.2147  0.0637  0.1155
31996W        W48070  13.696  18.236  12.952 -0.0400  0.1254  0.0664
31997W        W48071  14.083  10.862   1.539 -0.5936  0.1340  0.2745
31998W        W48072   5.878  13.553  11.508 -0.0205  0.1755  0.3029
31999W        W48073   8.212   9.992   0.922  0.0897 -0.0493  0.2390
32000W        W48074  13.538  15.669  13.962  0.4172  0.0091 -0.0544
32001W        W48075  16.011   9.003  11.559 -0.0414 -0.1643  0.2727
32002W        W48076  17.463   6.875   1.004 -0.3215 -0.0741  0.2180
32003W        W48077   3.968  10.132  14.008 -0.0961 -0.1253  0.0025
32004W        W48078  11.312  13.187  14.172 -0.1833 -0.1158  0.0289
32005W        W48079   3.356  10.342   1.120  0.1160  0.3375 -0.2308
32006W        W48080   1.406  13.372  13.116 -0.0365  0.0640 -0.1405
32007W        W48081  17.431  14.677   2.587 -0.1959 -0.1106  0.4059
32008W        W48082   2.227   6.970   5.047  0.0885 -0.2380 -0.0827
32009W        W48083  18.263   1.275  13.120  0.0894  0.0479  0.0577
32010W        W48084  15.911  15.946   2.189 -0.0067  0.1082  0.2483
32011W        W48085   9.249   0.610   0.636  0.0658  0.0368  0.0499
32012W        W48086   1.887  16.679   4.624 -0.0621  0.0056  0.0629
32013W        W48087   1.114   1.134   3.309  0.0998 -0.0817  0.2751
32014W        W48088   3.854  15.331   3.120 -0.1687  0.1136 -0.0225
32015W        W48089   3.503  16.129  13.835 -0.2021 -0.1437 -0.0221
32016W        W48090   8.349  15.302   1.804  0.3702  0.1094 -0.1310
32017W        W48091  15.657   7.478   4.387  0.1813  0.0171  0.0946
32018W        W48092  10.776  15.088   4.092 -0.2005  0.1101  0.1888
32019W        W48093   5.896   6.042  13.269 -0.0585 -0.1367 -0.3657
32020W        W48094  11.111  16.671  13.682  0.3407  0.3693  0.3416
32021W        W48095  10.504  14.709   0.099 -0.1469 -0.0693 -0.1374
32022W        W48096   0.140  14.145   2.935  0.1347 -0.0809 -0.1547
32023W        W48097   5.419   3.371  11.097 -0.1530 -0.0679 -0.0379
32024W        W48098   3.483  12.751  13.389 -0.2515 -0.0171 -0.0407
32025W        W48099  13.365   7.590  12.430  0.0268 -0.1135 -0.0772
32026W        W48100  10.085  17.759   2.428  0.0830  0.1182 -0.3130
32027W        W48101  18.542  18.968   3.929  0.3351  0.3171  0.4643
32028W        W48102   6.776  10.259  14.252 -0.1060  0.3147 -0.0467
32029W        W48103  15.992  16.056  14.737 -0.3396  0.1808  0.0453
32030W        W48104  15.160   9.152  11.594  0.3212  0.2310  0.3134
32031W        W48105  19.235  12.844   4.423  0.0971  0.3622 -0.0538
32032W        W48106   6.980   1.380  10.861  0.0662  0.0217  0.2714
32033W        W48107   7.228   2.279   1.130 -0.0605  0.2480 -0.1372
32034W        W48108   7.920  11.340   3.407 -0.2127  0.3093 -0.1084
32035W        W48109   3.454   6.496  12.669 -0.1865 -0.0054  0.0924
32036W        W48110   9.073  16.243   1.511 -0.3016 -0.0696 -0.0558
32037W        W48111   8.168  11.424   0.977  0.0294 -0.0640 -0.1932
32038W        W48112   8.691   6.710  13.704 -0.2702  0.2776 -0.0392
32039W        W48113   5.896  17.620   0.714 -0.1510 -0.0805 -0.1259
32040W        W48114   2.958  17.272  10.913 -0.2383 -0.2013  0.1154
32041W        W48115  10.241  14.355   4.602 -0.1046  0.0488 -0.3328
32042W        W48116  18.974   3.006   3.928  0.1451  0.3323 -0.1691
32043W        W48117   0.619   4.464  10.625 -0.0598  0.0652  0.0226
32044W        W48118  16.390   3.341  14.986  0.0774 -0.0256 -0.1597
32045W        W48119   2.678   4.521   4.606 -0.0210  0.1978  0.3688
32046W        W48120  11.922   6.504   0.884  0.2293  0.0185 -0.0501
32047W        W48121  12.384  19.260   5.188 -0.0731 -0.1817  0.0675
32048W        W48122  13.665   3.757   0.318  0.0746 -0.0416 -0.0484
32049W        W48123   6.682  11.367  11.246 -0.0662 -0.4271 -0.1273
32050W        W48124  14.645   4.756  12.184 -0.0027  0.0393  0.3306
32051W        W48125   6.880  13.732   4.104 -0.2730 -0.1545  0.1333
32052W        W48126  15.244  13.192  14.543  0.1548  0.3187 -0.2416
32053W        W48127  12.401  16.555  13.022  0.3114 -0.4968 -0.0965
32054W        W48128   8.821  17.583  12.157 -0.1058 -0.2681  0.0918
32055W        W48129  10.290  13.871  12.554 -0.2010 -0.1017  0.0786
32056W        W48130   4.387  10.496  11.929  0.0337 -0.5116  0.1973
32057W        W48131   3.333   0.654   3.640  0.1773  0.1516 -0.1964
32058W        W48132   9.527   9.433   4.616 -0.1080 -0.0506  0.0134
32059W        W48133   2.683  16.956  12.092  0.1534  0.1234 -0.0264
32060W        W48134  12.512   8.418  14.667  0.0153  0.2788  0.0495
32061W        W48135   9.654  12.803   3.141 -0.1110 -0.0219  0.0918
32062W        W48136   0.123   9.033   1.532  0.0512 -0.0778  0.1280
32063W        W48137   7.909   8.169   3.503  0.0753 -0.1359  0.2842
32064W        W48138   4.860   3.705  14.019 -0.2215  0.0444  0.1073
32065W        W48139   6.824   1.327   2.775 -0.3485  0.1193 -0.2382
32066W        W48140   6.563  13.503  12.738  0.0055 -0.2878  0.1771
32067W        W48141  16.278   6.850  14.844  0.1753 -0.2589  0.2228
32068W        W48142   1.821   9.729   2.655 -0.3522 -0.2929 -0.1501
32069W        W48143  10.404   5.713   2.317  0.4590  0.2363 -0.2404
32070W        W48144  19.272  17.146   3.182 -0.0432 -0.0199 -0.0799
32071W        W48145   0.033  16.689  13.006 -0.0768 -0.0102 -0.1545
32072W        W48146   9.031  10.164  11.054  0.1354  0.0295  0.0053
32073W        W48147   8.564  15.438  14.598  0.2245 -0.0580 -0.1162
32074W        W48148   1.644  15.237   9.286 -0.1912 -0.0473  0.3224
32075W        W48149   1.281   9.591   0.507 -0.0742 -0.0297  0.1325
32076W        W48150   5.661  14.142   2.551  0.1927  0.0392 -0.1195
32077W        W48151  17.181  15.254  10.640  0.0767  0.3205  0.2548
32078W        W48152   3.307   8.292  14.433  0.1495 -0.1742  0.1435
32079W        W48153  12.357  10.819  13.312 -0.0941  0.1266 -0.1425
32080W        W48154  19.039  11.141   1.391 -0.0380  0.0128  0.0083
32081W        W48155  15.455   9.071   2.688  0.0811 -0.0784  0.0672
32082W        W48156   4.510   2.202   3.436  0.2358 -0.0752 -0.0274
32083W        W48157  16.529   4.763  11.129  0.1795  0.0226  0.1351
32084W        W48158   0.283   1.896  11.055  0.0329 -0.6086 -0.0559
32085W        W48159   5.364   4.148  13.274 -0.0121  0.2377 -0.4752
32086W        W48160   8.202  15.131  11.158 -0.0082  0.3160 -0.0709
32087W        W48161  14.612   3.739   5.503 -0.1643 -0.3539 -0.2615
32088W        W48162   0.006  14.139   2.153  0.0236 -0.0452  0.1317
32089W        W48163  12.320   4.065  11.079 -0.5652  0.2167 -0.0414
32090W        W48164   2.771  16.755   0.060 -0.2297  0.1995  0.3730
32091W        W48165  14.108  10.432  13.176  0.2970 -0.2554 -0.1124
32092W        W48166   7.599   7.624   6.601 -0.2186 -0.2600  0.3323
32093W        W48167   3.775   8.754  12.777  0.2959  0.2172  0.1020
32094W        W48168  16.834   4.898   0.852 -0.2082  0.1679  0.1148
32095W        W48169  17.415  18.889  12.098  0.0259  0.0685  0.0462
32096W        W48170  11.089  14.777  10.589  0.1483  0.1073 -0.1437
32097W        W48171   8.442  13.309  12.459 -0.0239 -0.0986  0.0597
32098W        W48172  12.551  18.716   5.231 -0.0479 -0.0192 -0.0138
32099W        W48173  12.743  14.053   3.782  0.2870 -0.2990  0.0962
32100W        W48174  10.691  12.115   0.660  0.3133 -0.1777 -0.1775
32101W        W48175  13.267   8.938   2.050 -0.5088  0.0521 -0.1794
32102W        W48176   7.893   3.731   4.337  0.0817  0.1181 -0.0658
32103W        W48177   6.265  10.543   2.536 -0.0163 -0.2249 -0.2430
32104W        W48178   1.080   5.379  13.862 -0.2528  0.1277 -0.1261
32105W        W48179  10.353  18.284  14.164  0.0185  0.1021  0.1277
32106W        W48180   5.652   1.877   1.152  0.0761 -0.0663 -0.0747
32107W        W48181   4.089   3.539   2.391 -0.2208  0.3939 -0.2071
32108W        W48182   2.531   2.431  14.486 -0.7588  0.1714  0.1175
32109W        W48183  12.638   7.478   1.044  0.0332 -0.1138  0.2583
32110W        W48184  10.068   3.180   0.853  0.0629 -0.1081  0.3347
32111W        W48185  19.020   1.940  14.560 -0.1510 -0.2749 -0.0113
32112W        W48186   0.953   6.911   5.341 -0.3050  0.3080  0.0764
32113W        W48187   4.097   3.632   3.708  0.0908 -0.0780 -0.1709
32114W        W48188   3.478   4.734   2.081  0.0344 -0.2186 -0.2927
32115W        W48189  10.890  13.347   4.831 -0.1541 -0.0869 -0.1987
32116W        W48190  10.102   6.045  11.891 -0.2655  0.4157  0.2808
32117W        W48191  16.535   3.315   1.655  0.2035  0.2837 -0.1945
32118W        W48192   7.183  15.253   3.607  0.0680 -0.0885 -0.0272
32119W        W48193  14.592   3.094   2.231  0.3528 -0.1097 -0.1098
32120W        W48194   6.241   6.566   5.146 -0.5157 -0.0237  0.0924
32121W        W48195   3.316   2.379  14.522 -0.0291  0.1134  0.3534
32122W        W48196   5.016  16.108  11.751  0.1001 -0.1170  0.4535
32123W        W48197  11.747  10.346   0.396 -0.0687  0.0953 -0.1162
32124W        W48198   8.159  17.694  12.911  0.2856 -0.0919 -0.0025
32125W        W48199   5.197   2.046   2.317 -0.0386  0.1278  0.0909
32126W        W48200   5.894   7.597   5.563 -0.1124 -0.0204 -0.0413
32127W        W48201   2.336  11.783  12.023 -0.1780 -0.0772 -0.1926
32128W        W48202   8.658  13.507  13.456  0.3486  0.1269 -0.3986
32129W        W48203  18.308  12.470   3.457  0.0706 -0.1256 -0.3013
32130W        W48204  14.804  17.790  12.680 -0.1759 -0.1010 -0.2139
32131W        W48205  15.850   0.975  13.525 -0.2541  0.2348  0.2625
32132W        W48206  12.661   4.379   1.481 -0.1911  0.0991 -0.0354
32133W        W48207   8.075   7.331   9.984 -0.2674 -0.2854  0.0918
32134W        W48208   0.137   4.763   2.749  0.0999  0.2455  0.0243
32135W        W48209  14.626   2.236   3.472 -0.0708 -0.0190 -0.2642
32136W        W48210  17.341   8.578   3.687  0.3266  0.3800 -0.0151
32137W        W48211   5.714  10.185   4.816  0.0697 -0.2006 -0.0381
32138W        W48212  12.356  10.829   0.080 -0.1988  0.0622 -0.1476
32139W        W48213   9.048  13.314   3.243 -0.1047 -0.0691 -0.0623
32140W        W48214   0.908  15.634  13.853 -0.2742  0.2079 -0.1254
32141W        W48215  11.854  16.458  10.559 -0.0510  0.0493  0.0561
32142W        W48216  15.237  11.833  11.401  0.0426  0.3895  0.1172
32143W        W48217   5.017   1.238   4.357  0.1562 -0.2615  0.1821
32144W        W48218   6.311  11.914   0.775  0.0222  0.1868  0.1210
32145W        W48219  16.393   5.910  14.036 -0.0032  0.0744  0.1906
32146W        W48220   7.123  16.692   3.613  0.3653  0.1261 -0.3927
32147W        W48221  10.196  10.932   5.238  0.1988 -0.0318  0.1945
32148W        W48222   5.090   4.728  11.821  0.3867 -0.1217 -0.0581
32149W        W48223  14.203  17.238   0.463 -0.1855 -0.3659 -0.0422
32150W        W48224   1.378  10.416   1.833  0.3185 -0.1932 -0.0199
32151W        W48225  10.592   3.875  11.671  0.0256  0.0409  0.2599
32152W        W48226  16.982  12.955  14.249  0.1388 -0.0718 -0.0675
32153W        W48227  17.991  15.007   1.450  0.1250 -0.1266 -0.1235
32154W        W48228  15.853  13.472  14.128  0.0878 -0.0896  0.0169
32155W        W48229  16.806  13.971  13.391 -0.1080 -0.1206  0.1615
32156W        W48230   5.196  14.860   0.909 -0.1946 -0.2420  0.1932
32157W        W48231   4.735  10.449   9.593 -0.1059 -0.0164  0.1237
32158W        W48232  18.758   3.053   1.734  0.0262 -0.1250  0.2385
32159W        W48233   8.488   6.499   4.929  0.3284 -0.0773  0.1296
32160W        W48234  14.057   4.090  12.106  0.0909  0.6109 -0.0064
32161W        W48235  15.421  12.448  12.678  0.1737 -0.0532  0.0415
32162W        W48236  14.039  18.654   4.301  0.1384 -0.0102  0.1172
32163W        W48237   8.708   5.271   3.749  0.0657  0.3154 -0.0000
32164W        W48238   3.177   1.785   5.886  0.1870 -0.0744  0.0449
32165W        W48239   3.081   3.147  14.929 -0.3441  0.1803  0.5291
32166W        W48240  17.232  11.781  14.010  0.0851 -0.2266 -0.2577
32167W        W48241  16.448   0.360   1.475  0.1045 -0.0709 -0.0027
32168W        W48242  16.740   3.540  10.445 -0.1091  0.0086 -0.3604
32169W        W48243  13.134  15.306  10.528  0.1610  0.5341 -0.3819
32170W        W48244   2.280   5.353   0.516 -0.0737  0.0068 -0.0748
32171W        W48245   9.759   1.023  13.708 -0.3100 -0.3433  0.1164
32172W        W48246   9.185   3.048   2.379  0.0074 -0.1038  0.0307
32173W        W48247   2.659   8.048   5.329 -0.0246 -0.4421  0.2007
32174W        W48248   4.152  11.558   0.307  0.0016  0.0170 -0.0316
32175W        W48249   5.096   0.953  11.094  0.1362  0.1217  0.2281
32176W        W48250   6.451  16.471   2.925 -0.1652  0.1145 -0.1518
32177W        W48251   2.217   7.856   2.258  0.2001  0.1856 -0.1420
32178W        W48252  18.662   8.720   9.315  0.3799 -0.0912 -0.1673
32179W        W48253  14.879  13.535  14.759  0.2390 -0.3733 -0.3020
32180W        W48254   4.260   0.431   4.052 -0.2715 -0.2794 -0.2599
32181W        W48255  18.321   5.296   3.022  0.0330  0.4483 -0.3824
32182W        W48256  14.115   4.302   5.212  0.3240  0.0200  0.2303
32183W        W48257  17.875   8.453  14.278  0.2110 -0.1011  0.0449
32184W        W48258  15.393   8.942  12.702 -0.0990 -0.1774  0.1930
32185W        W48259  14.169  14.622   5.039 -0.1836  0.2458  0.1613
32186W        W48260  19.181  14.219  10.034  0.0520 -0.0804 -0.0803
32187W        W48261   4.447  17.110  12.927 -0.4711 -0.0396  0.1640
32188W        W48262  14.047  12.680   3.686 -0.0784  0.2340 -0.0971
32189W        W48263   3.707  11.370  14.038 -0.0574 -0.2230 -0.1126
32190W        W48264  15.167  14.476  14.769 -0.1755  0.1418  0.1069
32191W        W48265  12.118   2.209  14.239  0.3898 -0.3598 -0.0276
32192W        W48266  11.734  12.297  12.281 -0.0879  0.3191  0.1170
32193W        W48267   7.358   6.446   1.619  0.0691 -0.0890  0.0802
32194W        W48268   1.174   8.225   0.736 -0.3301 -0.0920  0.4740
32195W        W48269  17.154   9.464  14.353  0.0109  0.0763 -0.2615
32196W        W48270   2.065   6.565  11.947  0.0338  0.0514 -0.3639
32197W        W48271  13.983  11.329  11.233  0.1872 -0.1707  0.2075
32198W        W48272  12.612  16.497   2.238  0.3704 -0.0723  0.0274
32199W        W48273   7.614   1.047   1.250 -0.0158  0.0985  0.0360
32200W        W48274  15.860  10.382  12.355 -0.2395 -0.0982 -0.4543
32201W        W48275  12.111  14.529  12.940  0.0438 -0.1207 -0.3041
32202W        W48276  11.587   9.815   0.386 -0.0900 -0.0168  0.2713
32203W        W48277  12.247  12.778   5.192 -0.2617 -0.3032 -0.1018
32204W        W48278   8.213  19.134  13.974  0.0027  0.5277  0.2415
32205W        W48279  10.653   7.222   3.510 -0.0373 -0.0671 -0.0122
32206W        W48280  17.924  14.678   0.537  0.0464 -0.0778  0.1480
32207W        W48281  12.695  14.711  12.877  0.0394  0.2636  0.3084
32208W        W48282   9.834   4.501   2.816  0.1196  0.0040  0.1010
32209W        W48283  14.579  15.573   2.437  0.0248 -0.0594 -0.1471
32210W        W48284  13.952   2.157   4.212 -0.1591 -0.1456 -0.1602
32211W        W48285   5.390  11.917  14.343 -0.2010  0.0715 -0.2537
32212W        W48286   6.300  16.952   3.231 -0.1100  0.1441 -0.1210
32213W        W48287   8.066   0.460  14.574 -0.0898  0.2262  0.0810
32214W        W48288  16.849   3.317  13.016  0.3321 -0.2514  0.0391
32215W        W48289  10.198   5.156  10.929  0.3342  0.0240 -0.1185
32216W        W48290  16.471   8.881  11.990  0.4261  0.0467  0.1086
32217W        W48291  17.675  14.263   5.404  0.2021  0.0071 -0.2236
32218W        W48292  14.222  14.085  13.406 -0.1598 -0.0630  0.2185
32219W        W48293   5.081  11.981   0.690 -0.0601 -0.0599  0.1951
32220W        W48294   7.486   3.197  10.635 -0.3239 -0.0006  0.3120
32221W        W48295   8.226   2.913   2.158 -0.0132 -0.4441 -0.1609
32222W        W48296  14.122   6.168   0.043  0.0288  0.2320  0.0466
32223W        W48297   9.783   6.450   2.576  0.2413  0.1482 -0.2130
32224W        W48298  16.517   2.275  10.855 -0.0853  0.2187 -0.0822
32225W        W48299   9.036  18.511   4.248 -0.0780 -0.1348  0.2998
32226W        W48300  16.896   2.168   4.577 -0.0825 -0.0635 -0.2029
32227W        W48301   6.209  17.830   9.945 -0.2474  0.3440 -0.0725
32228W        W48302  14.978  17.936  11.297  0.1399  0.0725 -0.2176
32229W        W48303   6.999  13.415   1.752 -0.1371 -0.2464 -0.0230
32230W        W48304  16.227   4.270  11.252  0.0556 -0.1647 -0.5692
32231W        W48305   1.871   8.614   1.834  0.3803 -0.2025  0.1719
32232W        W48306   8.160   0.355  13.813 -0.0619  0.2479 -0.2120
32233W        W48307   6.421   3.382   4.288  0.1482 -0.3653 -0.0284
32234W        W48308  16.294  12.163  13.005  0.1067 -0.1913 -0.2888
32235W        W48309  13.940   6.007  13.000 -0.0217  0.1879  0.0118
32236W        W48310  10.795  10.219  15.031  0.2547  0.2249 -0.0174
32237W        W48311  13.052   1.262  12.541 -0.1411 -0.1890 -0.0392
32238W        W48312   8.121   0.149   4.517  0.0616  0.0551 -0.0753
32239W        W48313   1.962  15.707   3.868  0.1121  0.5793 -0.0195
32240W        W48314   5.200  17.949  14.979 -0.0805 -0.2500 -0.0045
32241W        W48315   6.968   1.228   4.401 -0.0298  0.1298 -0.1893
32242W        W48316   8.158   5.914   3.098 -0.1703 -0.0043  0.1025
32243W        W48317  17.408  19.141  14.532  0.0746 -0.0992 -0.1955
32244W        W48318  10.904  16.098   3.775 -0.0063 -0.0667 -0.0484
32245W        W48319  11.515   1.008   0.226 -0.0136  0.2393 -0.2108
32246W        W48320   7.506   5.901   1.054  0.1688  0.2593  0.0928
32247W        W48321   7.216  12.808   4.375 -0.0593 -0.0772 -0.3679
32248W        W48322  17.937   2.284  10.339 -0.0602  0.2799  0.0126
32249W        W48323  16.594  14.915  13.448 -0.1057 -0.4928 -0.0553
32250W        W48324   4.981   1.552  10.832  0.0551  0.0710 -0.2969
32251W        W48325   6.543  17.510   3.658 -0.0789  0.0174 -0.3032
32252W        W48326  10.534  10.568   2.184 -0.2014  0.1842 -0.3252
32253W        W48327  13.310   6.740  13.283  0.0724  0.0512  0.0354
32254W        W48328  10.088   3.023   3.758  0.1350 -0.2944  0.1579
32255W        W48329  15.364   9.141  13.484  0.5210 -0.0176 -0.0652
32256W        W48330   1.233  13.519  12.646  0.3597 -0.0441  0.1339
32257W        W48331  16.577   7.756  13.003 -0.0191 -0.1776 -0.2447
32258W        W48332   5.610  14.559  10.943 -0.2637 -0.2416  0.0479
32259W        W48333  18.654   9.847   0.516 -0.2445 -0.2760 -0.0510
32260W        W48334   7.841  14.060   2.717 -0.1190 -0.3338  0.4350
32261W        W48335  14.347  13.989   0.170 -0.0990 -0.2791 -0.2452
32262W        W48336   4.004   5.824   2.033 -0.0164 -0.2141  0.1192
32263W        W48337   6.202   1.666  13.061  0.1580 -0.3635  0.2289
32264W        W48338  15.707  17.359   8.990 -0.0892  0.3548  0.2016
32265W        W48339  12.713  15.820   1.065  0.2063 -0.3043  0.2425
32266W        W48340   4.648  10.167   0.608 -0.0743 -0.4692 -0.1229
32267W        W48341   6.062  14.280   1.923 -0.2596  0.0808 -0.3286
32268W        W48342  17.448   5.175   0.313  0.0407 -0.1141 -0.1130
32269W        W48343  10.541   6.770   2.152 -0.2496 -0.0224 -0.1421
32270W        W48344   6.225   2.464   0.943  0.1456 -0.0480 -0.0857
32271W        W48345  18.679   5.615  13.214  0.0939 -0.1696 -0.0082
32272W        W48346  13.354   5.196   4.447  0.0490  0.1691 -0.4245
32273W        W48347   0.167   7.370  14.960  0.2739 -0.0002 -0.0945
32274W        W48348  18.966   7.876   3.406 -0.2098 -0.0597  0.2917
32275W        W48349  10.610  16.077  10.477 -0.0117  0.1288  0.0865
32276W        W48350  13.440  10.371   4.803 -0.0958  0.0055 -0.0307
32277W        W48351   1.326  11.576  11.980 -0.0903 -0.1584  0.3960
32278W        W48352   8.768   1.016   4.484 -0.0103  0.3093 -0.1364
32279W        W48353  18.182  11.131  12.641  0.4146  0.1272 -0.1016
32280W        W48354  17.417  10.069  14.515  0.1799 -0.0631 -0.0594
32281W        W48355   6.982  18.895  10.516  0.2194  0.0668  0.1800
32282W        W48356   1.205  13.495  11.518  0.0604 -0.0601 -0.1180
32283W        W48357  11.524  15.154  14.580 -0.1612 -0.0825 -0.0405
32284W        W48358   1.025   7.293   3.659 -0.1903  0.0970 -0.2005
32285W        W48359   6.229  14.297  14.625  0.2064  0.1066 -0.3409
32286W        W48360   2.221  16.941  14.259 -0.0413  0.0325  0.0113
32287W        W48361   4.573   5.313  15.047 -0.0574  0.0608  0.1201
32288W        W48362   5.116   3.484   1.039  0.0572 -0.0016  0.5089
32289W        W48363   5.954   9.171  14.806 -0.1661 -0.0645  0.1458
32290W        W48364   5.147  17.581  13.720 -0.1335 -0.1718 -0.1252
32291W        W48365  12.802  17.983   3.407  0.0680 -0.3079 -0.2014
32292W        W48366   6.990   5.721   1.010 -0.1956  0.0218  0.0408
32293W        W48367  12.698  17.867  10.739 -0.4698 -0.0546 -0.0253
32294W        W48368  17.862   6.385   3.442  0.0805  0.0716  0.0570
32295W        W48369  10.408   5.343   5.209 -0.0461 -0.2102 -0.0532
32296W        W48370   5.659  13.026   5.174  0.0806  0.0560  0.2155
32297W        W48371   0.100   7.264  13.574  0.0400 -0.0905 -0.0241
32298W        W48372  18.505  13.701  10.250 -0.2063 -0.7473 -0.2629
32299W        W48373  12.093   0.407  12.514 -0.1283  0.2657  0.0834
32300W        W48374   5.105  17.944  13.085  0.3722 -0.0834  0.0597
32301W        W48375   3.715  16.554  11.259 -0.0163  0.0711  0.1150
32302W        W48376   3.157   9.729  13.861 -0.0212 -0.0516 -0.2631
32303W        W48377  17.185  10.827   2.301 -0.1085 -0.0838 -0.0207
32304W        W48378  11.431   0.533  14.316  0.0114 -0.2069  0.1394
32305W        W48379  13.103   5.170   2.443  0.1866 -0.1880 -0.1232
32306W        W48380  11.556  17.342  11.046 -0.1095  0.2060  0.0034
32307W        W48381   2.409  10.353   2.339  0.3215 -0.2127  0.0438
32308W        W48382   3.926  13.527   0.541  0.0434  0.2948  0.0146
32309W        W48383  15.409  13.713   0.372  0.3555  0.0865 -0.3343
32310W        W48384   2.260  10.423  11.403 -0.2857  0.2284 -0.3035
32311W        W48385   1.057  18.807  14.572 -0.0008 -0.2890  0.2229
32312W        W48386   3.645   3.131  14.797  0.2411 -0.0728 -0.0105
32313W        W48387   9.009   6.382   5.045  0.1740  0.0209  0.0742
32314W        W48388  14.163   3.301  14.664 -0.0175  0.2389  0.0253
32315W        W48389  19.017   1.913  13.098  0.0226 -0.0380 -0.1527
32316W        W48390  13.452   9.067   9.651 -0.0364  0.3864  0.0983
32317W        W48391   3.221   5.731   3.964  0.1949  0.0812  0.0224
32318W        W48392  11.662  18.790  14.748 -0.3093 -0.1787 -0.0058
32319W        W48393   0.887   6.334   2.535 -0.1633 -0.2374  0.1706
32320W        W48394   1.178   9.666  12.077  0.1114  0.2494 -0.4558
32321W        W48395  11.255   7.457  13.919  0.1100  0.3567  0.0942
32322W        W48396  17.401  13.151  15.038  0.0844 -0.2602 -0.1154
32323W        W48397  17.474  17.829  12.887  0.0272  0.1246  0.1754
32324W        W48398  13.576   9.321   1.923 -0.1207  0.0175 -0.2258
32325W        W48399   6.186   3.472  11.753  0.2412  0.1220  0.2293
32326W        W48400  17.004  17.505   1.211  0.0859 -0.0567 -0.2616
32327W        W48401  16.705   9.277   4.863 -0.0972 -0.1230 -0.2476
32328W        W48402  10.785   1.949   4.528  0.3622 -0.1145  0.0193
32329W        W48403   8.876   4.596  12.460  0.0964 -0.0094  0.1046
32330W        W48404   5.175  16.946  13.866  0.2581  0.0879  0.1318
32331W        W48405  13.336  17.984   4.284  0.0994 -0.0953  0.1133
32332W        W48406   5.854   1.518  12.168 -0.1826 -0.4533 -0.1007
32333W        W48407  18.352  14.493   0.148  0.0969 -0.2614  0.1943
32334W        W48408   2.186  10.963  13.621 -0.0041  0.2940 -0.3015
32335W        W48409   4.590  18.188   2.335 -0.2685 -0.2592 -0.0811
32336W        W48410  11.863  10.752  14.108  0.0516  0.0837 -0.3534
32337W        W48411  10.878  14.407   3.245 -0.0564 -0.0610 -0.0642
32338W        W48412   7.592   4.666   2.112  0.1346 -0.1550  0.2609
32339W        W48413  10.894  12.036   4.645  0.2172 -0.1601 -0.1758
32340W        W48414   6.169  16.035   4.635 -0.0310 -0.0338  0.2907
32341W        W48415   6.510   8.882  13.978 -0.1979  0.1957 -0.0575
32342W        W48416   0.307   9.802   1.028 -0.0614  0.3429 -0.0703
32343W        W48417   9.905   2.068  13.537 -0.2075  0.0449 -0.2020
32344W        W48418   6.292  14.086  14.144  0.1553 -0.3333 -0.2413
32345W        W48419  18.539   1.992  14.822 -0.1456  0.0422 -0.1079
32346W        W48420  14.654  13.479  12.702  0.0466 -0.1067 -0.0618
32347W        W48421   4.338   6.876  14.110  0.3199  0.0386 -0.1518
32348W        W48422  16.341   6.108   0.286 -0.2332 -0.0973  0.0795
32349W        W48423  17.728  16.067   0.580 -0.0963 -0.1449  0.1698
32350W        W48424   1.832  12.011  12.880 -0.0650  0.1152 -0.0621
32351W        W48425   1.514  16.409   2.887  0.2361  0.2970 -0.3657
32352W        W48426   9.862   2.624   2.855 -0.1434  0.3841  0.1869
32353W        W48427  19.214   9.192   4.036  0.1157 -0.1710 -0.1761
32354W        W48428   7.252   9.008  14.756  0.0727 -0.1786 -0.3030
32355W        W48429  17.165  14.248   0.453  0.0028  0.0403  0.2763
32356W        W48430   9.575  15.737   0.606 -0.1049 -0.0109 -0.1368
32357W        W48431  17.447  10.207   3.943 -0.0496  0.0212 -0.3058
32358W        W48432   5.163   6.568   1.530  0.0875  0.1220  0.0866
32359W        W48433   6.350  14.699   9.439 -0.0292 -0.1617 -0.0291
32360W        W48434  14.619   3.203   3.859 -0.0621 -0.0119 -0.1297
32361W        W48435  18.017   1.395   0.088  0.1606  0.5241 -0.0082
32362W        W48436  16.257  14.576   0.255 -0.0415  0.2641  0.1517
32363W        W48437   2.816  13.835  12.963 -0.0375  0.0105  0.2985
32364W        W48438   8.603  10.612   4.536 -0.0218 -0.0671  0.1990
32365W        W48439  19.012  12.969   0.199  0.0805 -0.1684 -0.0517
32366W        W48440   6.722  17.745   1.814 -0.2530 -0.1926  0.0915
32367W        W48441  13.675   2.803  14.112 -0.0354 -0.1882  0.3550
32368W        W48442   1.410   8.689  12.408 -0.2823  0.1323 -0.0544
32369W        W48443  17.702   0.510   2.597  0.2812 -0.2387  0.1525
32370W        W48444  18.160   6.811   5.344 -0.3263 -0.2035 -0.4134
32371W        W48445   1.917   1.564   4.674  0.0033 -0.0774 -0.0039
32372W        W48446  12.382  19.299   0.538 -0.0478 -0.0696  0.0846
32373W        W48447   1.765  18.571  10.183 -0.1864 -0.1798 -0.1909
32374W        W48448  10.960  16.239   0.890  0.1551  0.0667 -0.0642
32375W        W48449  17.889  18.548   5.056 -0.0147 -0.0753 -0.1039
32376W        W48450   8.092   0.916  14.044 -0.1289 -0.0278 -0.0921
32377W        W48451  15.891   2.105  14.606  0.2915 -0.1020 -0.1787
32378W        W48452   3.384  17.225   4.695  0.1229 -0.3125  0.1126
32379W        W48453  17.224  10.660  11.176  0.0585  0.2969  0.1385
32380W        W48454  14.849  12.080   3.464  0.1625  0.1726 -0.2881
32381W        W48455   0.483   5.376   0.162 -0.1597  0.2806 -0.0389
32382W        W48456  13.423   4.111  10.283 -0.2738  0.3840 -0.3349
32383W        W48457   6.007   1.615   0.581  0.0507 -0.1691  0.0449
32384W        W48458   8.666   4.981   3.375  0.0517  0.1756 -0.0379
32385W        W48459   1.399   0.872   3.611  0.0584 -0.1142 -0.2620
32386W        W48460   1.704   7.877  13.790 -0.1817  0.0798 -0.1270
32387W        W48461   0.874   1.836  12.892 -0.0016  0.0427  0.0323
32388W        W48462   3.681  14.330  12.005  0.1946 -0.0313 -0.2704
32389W        W48463   4.655   8.298   0.020 -0.2304  0.2590 -0.3984
32390W        W48464   4.834   6.249  11.766 -0.1813 -0.0937  0.1008
32391ION     NA48465  15.711  11.203   9.438 -0.0662  0.1242 -0.0477
32392ION     NA48466  10.990  14.104   3.587  0.0208 -0.3119  0.2166
32393ION     NA48467   5.475   5.766  10.331 -0.1220 -0.0257 -0.0289
32394ION     NA48468   5.330   2.160   1.480 -0.1517 -0.3559 -0.1516
32395ION     NA48469  16.103  10.319   9.522 -0.0038 -0.0010 -0.1219
32396ION     NA48470  15.270  12.810   9.122 -0.0335  0.5766 -0.4093
32397ION     NA48471  18.359   9.773   9.243 -0.0466  0.0958 -0.2017
32398ION     NA48472  14.904  17.916   9.126  0.2464 -0.0626 -0.2485
32399ION     NA48473   0.415  10.788   9.991 -0.0040 -0.1630  0.1086
32400ION     NA48474   3.276   8.702   2.761  0.0428 -0.3295 -0.0800
32401ION     NA48475   5.020   0.941   3.489  0.2835  0.0916 -0.1815
32402ION     NA48476   4.809  10.897  12.803  0.0336  0.0728  0.1153
32403ION     NA48477  17.587   8.707  13.926 -0.1539  0.2025 -0.0949
32404ION     NA48478  13.278   7.006  10.241 -0.0413  0.0805 -0.0199
32405ION     NA48479  12.553   9.845   9.699 -0.1912  0.0775 -0.0541
32406ION     NA48480  11.060   2.676   5.591  0.1136  0.1304  0.1298
32407ION     NA48481  12.877  10.368   4.892  0.1429 -0.1237 -0.0407
32408ION     NA48482  17.627  18.888   9.453  0.1411 -0.0093  0.3015
32409ION     NA48483   6.728   9.865  11.356  0.0500  0.0764 -0.1061
32410ION     NA48484   8.222   1.065   5.721  0.1715 -0.0774  0.0805
32411ION     NA48485   7.490  16.874   9.654  0.1793 -0.1004 -0.0188
32412ION     NA48486   4.061  12.738   9.674  0.4436 -0.0901  0.2421
32413ION     NA48487   2.212   9.866  14.091 -0.0344 -0.0045  0.1587
32414ION     NA48488   5.464  12.844  11.893  0.0115 -0.3908 -0.3136
32415ION     NA48489  18.114   9.501   1.864 -0.2470 -0.0546  0.0405
32416ION     NA48490  12.227   2.764   9.840  0.1454 -0.1691  0.1719
32417ION     NA48491  10.417  11.398   9.947 -0.0087 -0.0203 -0.0296
32418ION     NA48492  16.179   1.772   9.714 -0.0722  0.0431  0.1661
32419ION     NA48493  13.946  11.767   9.570  0.0024  0.2597  0.0586
32420ION     NA48494   8.478  14.949   9.712 -0.3530 -0.0249 -0.0793
32421ION     NA48495  14.312  14.665   9.307  0.2605 -0.3123  0.3896
32422ION     NA48496  10.339  12.322   2.212  0.0490 -0.0110  0.5919
32423ION     NA48497   3.040  18.441  13.425 -0.1579 -0.1304  0.0031
32424ION     NA48498   9.845  18.319   9.676  0.0166 -0.1112 -0.1487
32425ION     NA48499  11.314   2.347   9.703  0.1290 -0.1118 -0.3509
32426ION     NA48500   7.596   2.698  10.322  0.1503  0.1140  0.3977
32427ION     NA48501  13.562   5.575   9.950  0.2662  0.2519 -0.1704
32428ION     NA48502   0.971  14.732  10.203  0.2066 -0.2478  0.0007
32429ION     NA48503  18.019   5.439  12.676  0.1511  0.1058 -0.0753
32430ION     NA48504   1.290   4.012   9.682 -0.0653 -0.4931  0.0752
32431ION     NA48505   8.406  18.034   4.563  0.0254  0.0137 -0.1510
32432ION     NA48506   2.464   3.956  10.361  0.1433  0.0355 -0.0305
32433ION     NA48507  13.150  19.106   9.648  0.3080 -0.1624  0.0113
32434ION     NA48508  13.323   3.016  14.940 -0.1538  0.2624 -0.0227
32435ION     NA48509  17.444  17.553   9.217  0.2711  0.1325 -0.3613
32436ION     NA48510   1.541   1.112   2.925  0.0486 -0.0090 -0.3366
32437ION     NA48511  17.446   9.894   9.372 -0.1469 -0.2403  0.1575
32438ION     NA48512  10.533   7.909   9.981 -0.1392 -0.0709 -0.1162
32439ION     NA48513  18.609  17.881  11.390  0.1256 -0.1283  0.0278
32440ION     NA48514   7.233  14.120   9.888 -0.2922  0.0068 -0.2343
32441ION     NA48515   1.212  17.412   9.199 -0.1901 -0.0394  0.2758
32442ION     NA48516  15.268  13.851  10.230 -0.0569 -0.0475 -0.0619
32443ION     NA48517  15.962   3.892   9.776  0.2611 -0.0616 -0.1185
32444ION     NA48518  10.312   0.119   9.821  0.1406 -0.2208  0.4077
32445ION     NA48519   1.325   7.425   5.530  0.2116 -0.1458 -0.0966
32446ION     NA48520   3.702  14.626   9.614 -0.1540 -0.2053  0.0637
32447ION     NA48521   0.527   2.389  10.241  0.0260 -0.0313  0.0733
32448ION     NA48522   2.881   2.792   9.875 -0.0115 -0.1903  0.2183
32449ION     NA48523   7.044   6.411  13.225  0.1539 -0.4509  0.0995
32450ION     NA48524  18.078   8.625   9.774 -0.1429  0.1328  0.0247
32451ION     NA48525   8.095   8.048  10.360 -0.0089 -0.0327 -0.2420
32452ION     NA48526   1.950   8.145   9.384  0.0057  0.0096  0.0885
32453ION     NA48527   5.713  15.014  14.908 -0.2617  0.1789 -0.0192
32454ION     NA48528  13.512   2.337   9.667  0.2646  0.1406 -0.2222
32455ION     NA48529   0.447  14.184   9.026  0.1738 -0.0839  0.0037
32456ION     NA48530   9.666   0.393   5.238  0.2683 -0.1851 -0.3552
32457ION     NA48531  16.764  12.744   4.990  0.2133  0.1404  0.0384
32458ION     NA48532   9.555   5.971  10.223  0.1014 -0.1480  0.0720
32459ION     NA48533   7.829  15.417   9.947 -0.1039  0.2147  0.2002
32460ION     NA48534  19.129   7.392  11.191 -0.0102  0.2500 -0.2212
32461ION     NA48535  18.242   9.433   5.325 -0.1148 -0.1969  0.2642
32462ION     NA48536   1.986  12.084  10.450  0.1368 -0.1003 -0.4001
32463ION     NA48537  18.521  18.456   9.073  0.1251  0.1008 -0.0822
32464ION     NA48538  10.612  19.010   9.810 -0.2392 -0.1329 -0.3972
32465ION     NA48539   0.022   3.987  10.285 -0.1083  0.2540 -0.1275
32466ION     NA48540  17.577  13.090  13.620  0.1889 -0.0214 -0.2441
32467ION     NA48541  11.476  17.449  10.152 -0.0293  0.1098 -0.1936
32468ION     NA48542  17.200   5.753   1.853 -0.1029 -0.0667 -0.1638
32469ION     NA48543  11.906   4.531  10.104 -0.4171 -0.0592 -0.2185
32470ION     NA48544   3.908  17.456  12.776 -0.1471 -0.0335 -0.3939
32471ION     NA48545   8.450  11.977  14.157 -0.5764 -0.0195  0.1302
32472ION     NA48546  12.248   1.524  12.108 -0.1297 -0.0722 -0.0746
32473ION     NA48547   6.545   5.592   0.151  0.3288 -0.1225 -0.0843
32474ION     NA48548  14.019   9.766   9.676 -0.0178  0.3515 -0.0124
32475ION     NA48549   8.270   4.996  10.592 -0.0728 -0.0088 -0.0166
32476ION     NA48550   7.284   5.906  10.312  0.0356  0.0138 -0.0595
32477ION     NA48551  13.834   6.210   1.474 -0.4078 -0.0046 -0.2023
32478ION     NA48552   1.302  11.875  14.134 -0.0265  0.1580 -0.0281
32479ION     NA48553  19.201  10.182  11.973  0.0965  0.1529  0.0138
32480ION     NA48554  15.481   8.302   9.981 -0.4902 -0.0354 -0.0678
32481ION     NA48555   6.061  14.299   9.587  0.0009 -0.1164 -0.0657
32482ION     NA48556  16.026   5.266  13.531  0.2348  0.1757  0.0462
32483ION     NA48557  15.636  14.815   3.875 -0.1509  0.0987  0.3088
32484ION     NA48558  12.686   1.890   9.807 -0.0838 -0.2906 -0.1036
32485ION     NA48559  15.673  10.653  10.180 -0.3201 -0.1956  0.1539
32486ION     NA48560   0.510  10.173   0.687  0.0404  0.0252 -0.3132
32487ION     NA48561   9.174   2.661   9.847 -0.0144 -0.3973  0.2589
32488ION     NA48562  15.334   9.747   9.428  0.1915  0.3363  0.0282
32489ION     NA48563   4.958  15.812   9.701 -0.0875 -0.3400  0.2410
32490ION     NA48564  10.251   8.684   5.769 -0.1848 -0.3691 -0.0048
32491ION     NA48565  13.679   4.903   9.837 -0.0409  0.0985 -0.1687
32492ION     NA48566  10.547  17.922   2.306 -0.0755 -0.0435 -0.3544
32493ION     NA48567  16.341   0.364  10.319  0.0144  0.1048 -0.0983
32494ION     NA48568  14.673  19.269   9.317 -0.3445 -0.0818 -0.0470
32495ION     NA48569  14.286   8.864   9.958  0.2332  0.1877  0.2035
32496ION     NA48570   9.868   8.674   9.947 -0.2357  0.2098 -0.2383
32497ION     NA48571   8.255   9.574  10.018  0.0425 -0.1320 -0.2326
32498ION     NA48572   4.097   5.363   2.224 -0.1252 -0.0629  0.0568
32499ION     NA48573  12.466  13.827   4.386 -0.4703  0.3193 -0.0471
32500ION     NA48574  16.415   5.376   5.748 -0.3458  0.2628  0.2501
32501ION     NA48575   5.815   9.055   9.911 -0.2345  0.1169 -0.0118
32502ION     NA48576  14.733  16.948   9.253  0.1968 -0.2332 -0.0603
32503ION     NA48577   6.804   0.490   5.684  0.3764 -0.1115 -0.2652
32504ION     NA48578  11.320  12.257  10.214  0.1457 -0.1540 -0.0513
32505ION     NA48579  15.397  14.989   9.262 -0.3155 -0.1413 -0.2219
32506ION     NA48580   6.277   4.473  10.579 -0.5443 -0.1676  0.2847
32507ION     NA48581   4.315   8.275  10.506  0.0152  0.1252 -0.1266
32508ION     NA48582  17.768  17.071   3.074 -0.0950  0.1861  0.2098
32509ION     NA48583   5.350  11.390   9.634 -0.0659 -0.0360  0.0594
32510ION     NA48584  11.141   1.032   2.709  0.2390  0.1479 -0.1301
32511ION     NA48585   6.029   0.598   0.004 -0.0329 -0.0131 -0.0332
32512ION     NA48586  17.613   2.208   9.533  0.0644 -0.1405 -0.2348
32513ION     NA48587   7.602  12.362  10.943  0.1255  0.0281 -0.2071
32514ION     NA48588   5.270  18.503   5.634 -0.3748 -0.1311 -0.0339
32515ION     NA48589  18.086   7.108   9.825  0.0868 -0.4024 -0.0151
32516ION     NA48590   3.595   8.616   9.918  0.2958 -0.1892  0.0023
32517ION     NA48591  16.309  14.916   9.099  0.2733 -0.1269 -0.0304
32518ION     NA48592   7.340  10.888   2.008  0.2799  0.1907  0.2157
32519ION     NA48593  13.344   6.531  10.003  0.3962 -0.1627  0.4030
32520ION     NA48594   3.999  16.516   0.006 -0.3530 -0.3031  0.0370
32521ION     NA48595   8.234  11.327   9.906  0.1287 -0.1314  0.0727
32522ION     NA48596   0.437   7.103   9.769  0.2348  0.1569  0.0511
32523ION     NA48597   3.155   2.959  14.457 -0.3832  0.1146 -0.1012
32524ION     NA48598  16.560  11.731   9.701 -0.0500 -0.3537 -0.0903
32525ION     NA48599  17.879   5.361   9.839 -0.1524 -0.2689  0.2970
32526ION     NA48600   8.763   2.080   9.401  0.1306  0.0389  0.0964
32527ION     NA48601  17.290  11.991   9.058  0.2015  0.2820 -0.4357
32528ION     NA48602   3.223  18.320   9.765 -0.0454 -0.2071 -0.2274
32529ION     NA48603   9.853   6.829  12.391 -0.0630 -0.2738 -0.0029
32530ION     NA48604   6.545  16.812  10.064  0.0029  0.2171  0.2422
32531ION     NA48605   7.410  13.157   9.745 -0.3451 -0.2138 -0.1610
32532ION     NA48606  10.174   2.575   9.703 -0.0527  0.2732  0.0523
32533ION     NA48607   7.987  15.639   4.931  0.0413 -0.0727 -0.0230
32534ION     NA48608  18.995   2.210   9.132 -0.2177  0.1754 -0.0980
32535ION     NA48609   0.996   5.482   9.649  0.1218 -0.0034 -0.1599
32536ION     NA48610  12.157   0.234   1.624 -0.0143 -0.1342 -0.1594
32537ION     NA48611  14.732  15.101   2.559  0.2102  0.1513 -0.1373
32538ION     NA48612   4.950  16.275  14.792 -0.0983  0.0611  0.1898
32539ION     NA48613  17.224   3.570   9.667  0.0910  0.1417  0.0727
32540ION     NA48614   1.698   3.243  10.190 -0.0654  0.0512  0.1464
32541ION     NA48615   8.212   2.505   9.920  0.2546 -0.0725 -0.3016
32542ION     NA48616   2.838  12.768   3.004 -0.1486  0.0642 -0.1846
32543ION     NA48617  18.731   2.111  10.800 -0.1023 -0.1081 -0.1064
32544ION     NA48618  12.755  10.811   9.722  0.1133 -0.0905 -0.2635
32545ION     NA48619   0.964  12.730   9.361 -0.0521  0.2860  0.0855
32546ION     NA48620  12.556   6.045   3.002 -0.1353  0.4335 -0.0529
32547ION     NA48621   7.099   1.947  12.074  0.0049  0.1189 -0.1144
32548ION     NA48622   0.201   2.680  12.514 -0.0265 -0.3409 -0.0370
32549ION     NA48623   0.092   6.712   2.580 -0.2241 -0.3264 -0.1852
32550ION     NA48624  12.105   1.563   0.929  0.2304 -0.0380 -0.0350
32551ION     NA48625   0.180  17.506  12.215  0.2458 -0.3408 -0.3689
32552ION     NA48626  14.333   6.689  10.119  0.1199  0.3809  0.2125
32553ION     NA48627   6.914  13.425   5.690 -0.4685 -0.0345 -0.3446
32554ION     NA48628   4.512   1.566  10.012  0.0371 -0.0844  0.0784
32555ION     NA48629   6.908  10.117   5.649  0.0472 -0.0734 -0.0278
32556ION     NA48630   7.814  18.655   4.834  0.0601 -0.2661  0.1527
32557ION     NA48631  18.477   4.799   9.763 -0.1703  0.0243  0.0299
32558ION     NA48632   0.951  16.473   9.517 -0.1509  0.5936 -0.0749
32559ION     NA48633   8.389  17.380   5.391  0.0665  0.3988 -0.0189
32560ION     NA48634  12.071  13.571  13.172 -0.0152  0.1352  0.1222
32561ION     NA48635  18.201  12.177   1.021  0.0025  0.0086 -0.1298
32562ION     NA48636   7.981   8.104   5.902  0.2812  0.2302  0.2268
32563ION     NA48637  15.032  19.299   4.732 -0.2383  0.1405 -0.1310
32564ION     NA48638  13.624   7.628   5.499  0.0605 -0.0781  0.0483
32565ION     NA48639   0.932  11.919   9.444  0.2290 -0.1823  0.1946
32566ION     NA48640   8.154   3.549  13.036 -0.2399  0.0824 -0.0123
32567ION     NA48641   8.573   0.202  10.021  0.0549 -0.0201 -0.0434
32568ION     NA48642  12.035  16.829   9.604  0.1772 -0.0226  0.1389
32569ION     NA48643   8.451   5.685  10.439 -0.0352  0.1292 -0.3682
32570ION     NA48644  14.944   9.499   9.700  0.0652 -0.0264 -0.2711
32571ION     NA48645   3.976   8.021  10.234  0.2841  0.2259  0.1008
32572ION     NA48646   8.888  13.147  10.293  0.2644 -0.0442  0.1477
32573ION     NA48647  17.050   2.804   9.168  0.0230  0.0005  0.2660
32574ION     NA48648   5.348   3.709  10.652 -0.1533  0.0065  0.0027
32575ION     NA48649  14.660  18.546   0.101  0.0617 -0.2046 -0.3339
32576ION     NA48650   7.425   4.493   5.944 -0.0327  0.1014 -0.3384
32577ION     NA48651  14.670  15.808   9.179  0.1531 -0.0773  0.0732
32578ION     NA48652  19.213  15.526   9.372 -0.3386  0.1487 -0.3101
32579ION     NA48653  16.146  12.615   5.180  0.3469 -0.1663 -0.0693
32580ION     NA48654   3.920  14.323  12.637 -0.1721  0.0520 -0.0600
32581ION     NA48655  10.145   9.505  10.096  0.0828 -0.1285  0.0089
32582ION     NA48656  16.849  13.913   0.721  0.1489 -0.5204  0.1744
32583ION     NA48657  10.652   5.451   1.845  0.0599 -0.2562  0.0370
32584ION     NA48658  19.090   3.531   4.022  0.1183 -0.0321 -0.0933
32585ION     NA48659  18.378  12.008   9.292  0.1035 -0.2495 -0.3461
32586ION     NA48660  14.926  16.403   4.850  0.0638 -0.1540 -0.2215
32587ION     NA48661   9.079  16.629   9.799  0.2942  0.2346  0.1565
32588ION     NA48662   7.903  14.056   9.979 -0.1950 -0.0010  0.1744
32589ION     NA48663  11.343   4.966   0.685  0.1922 -0.0001 -0.0753
32590ION     NA48664  18.482   6.408   5.498 -0.1967 -0.0494 -0.3080
32591ION     NA48665   0.547   2.704   9.546 -0.3506 -0.0047 -0.2817
32592ION     NA48666   3.673   9.625   9.890 -0.0978  0.0691 -0.2433
32593ION     NA48667   5.944  14.772  10.344 -0.1929  0.0064  0.1668
32594ION     NA48668   7.189   3.074   2.067  0.3383  0.4784 -0.0113
32595ION     NA48669  18.573  15.697  13.213  0.6509 -0.0192 -0.1495
32596ION     NA48670   1.129  17.442   5.025 -0.3991  0.2046  0.1647
32597ION     NA48671  14.569  14.752  12.785  0.0275  0.0479  0.1042
32598ION     NA48672  15.780  12.330   9.572  0.0909 -0.0748  0.0919
32599ION     NA48673   9.799  18.519   1.978  0.0100 -0.0787  0.1654
32600ION     NA48674  13.725   4.030   9.863  0.1232  0.1026 -0.1427
32601ION     NA48675  14.764  17.240   0.531 -0.0043 -0.0189  0.2682
32602ION     NA48676   6.902   9.188  13.907 -0.0088 -0.1132  0.1238
32603ION     NA48677  12.289   7.749   5.681 -0.1930  0.3652  0.0435
32604ION     NA48678  11.510  15.658   5.428 -0.0170  0.1415 -0.3037
32605ION     NA48679   4.565   9.837   9.701  0.0176 -0.0001  0.1964
32606ION     NA48680  17.224  14.357  11.040 -0.0025  0.3549  0.0238
32607ION     NA48681   5.326   9.446   9.813  0.2865 -0.0290  0.0489
32608ION     NA48682   8.268  14.223   4.426  0.3902  0.0712  0.3120
32609ION     NA48683   1.283  10.914   9.646  0.1190  0.1275 -0.0477
32610ION     NA48684   0.704  17.453  14.510  0.0433 -0.1356  0.0710
32611ION     NA48685  12.810   7.755  10.156 -0.3094  0.1590 -0.0353
32612ION     NA48686   6.729  17.411   5.350 -0.2261 -0.0822 -0.3188
32613ION     NA48687  18.926  14.184   9.085 -0.3644  0.0454 -0.2362
32614ION     NA48688  10.905   4.649  10.053 -0.0140 -0.1815 -0.0244
32615ION     NA48689  11.552   3.862   9.470  0.1119 -0.2268  0.0070
32616ION     NA48690  17.068  16.517   5.079 -0.0855  0.0155  0.4132
32617ION     NA48691   7.245  15.907  10.055 -0.1159  0.0758 -0.0344
32618ION     NA48692  17.573  10.618   9.241 -0.2553 -0.1264 -0.0034
32619ION     NA48693  16.699  18.304   9.178 -0.1053 -0.0254  0.0227
32620ION     NA48694   7.452  17.776   9.871 -0.6729  0.2978  0.1694
32621ION     NA48695   8.798  17.706   0.285  0.1758 -0.0383  0.1288
32622ION     NA48696   2.899  14.737  10.784 -0.0087 -0.1059  0.0239
32623ION     NA48697   4.475  10.886   9.638  0.1525 -0.2188 -0.2283
32624ION     NA48698   4.164   4.988  10.184 -0.1568 -0.2538 -0.2803
32625ION     NA48699   5.699  16.404   9.657  0.2041 -0.0941  0.2233
32626ION     NA48700   9.080  15.806  11.158 -0.0618  0.2598 -0.1153
32627ION     NA48701   7.474  10.602   9.762 -0.3913  0.3057  0.0133
32628ION     NA48702   0.005   3.272   9.512 -0.0125  0.0881 -0.2844
32629ION     NA48703  16.673  10.318   9.535 -0.2994 -0.1043  0.0736
32630ION     NA48704   5.413  13.292   3.571 -0.1911 -0.1748 -0.3903
32631ION     NA48705  12.434  11.757   9.821  0.0060 -0.1251  0.0294
32632ION     NA48706  14.742   8.012  14.426 -0.2240  0.2536 -0.1700
32633ION     NA48707  10.384  11.843  14.863 -0.1790 -0.2715 -0.2149
32634ION     NA48708   7.568  11.849   1.357  0.0878 -0.0199  0.1652
32635ION     NA48709   7.940  18.596   9.557  0.0041 -0.1396 -0.2822
32636ION     NA48710   6.333  12.346   9.515 -0.3364  0.2780 -0.0596
32637ION     NA48711  12.411   9.120   4.431 -0.1880  0.0287 -0.2754
32638ION     NA48712   7.972   4.270  10.032  0.2765 -0.2121  0.2535
32639ION     NA48713  14.928  11.817   9.344  0.0580  0.0289  0.0915
32640ION     NA48714  10.787  18.118   9.941  0.0097 -0.1029 -0.2819
32641ION     NA48715  17.052   5.906   0.578 -0.1038  0.1897  0.0843
32642ION     NA48716   1.240  14.491   9.260 -0.1229  0.2924 -0.0332
32643ION     NA48717  11.706  17.721  14.167  0.3522  0.3897 -0.1309
32644ION     NA48718   6.216  18.552   9.766 -0.3744 -0.0659  0.1353
32645ION     NA48719   3.589  11.268   9.610  0.0376 -0.2278 -0.1739
32646ION     NA48720   0.928  10.431   9.440 -0.0893 -0.2627  0.0897
32647ION     NA48721   8.381   8.539  10.122 -0.0939 -0.3371  0.0625
32648ION     NA48722   8.894   4.991   9.998  0.0459  0.1038 -0.1348
32649ION     NA48723  11.934   8.291   9.688 -0.0967  0.0218  0.0387
32650ION     NA48724   4.864   0.451  13.355 -0.1456  0.1498 -0.1357
32651ION     NA48725  11.601  10.145   5.791  0.2101  0.1734  0.0186
32652ION     NA48726  17.991  18.329   8.937 -0.3037  0.2520 -0.0372
32653ION     NA48727   2.216   7.642   3.905 -0.0912 -0.0974  0.0061
32654ION     NA48728  17.431   7.447   9.662  0.0599  0.0075 -0.0105
32655ION     NA48729  11.230   8.421   5.401  0.1412  0.3246 -0.2981
32656ION     NA48730  13.082  11.546  14.980  0.0531 -0.1465 -0.0551
32657ION     NA48731  12.215   9.386  11.459 -0.0568 -0.1892 -0.2193
32658ION     NA48732  13.953   1.704  10.886  0.0197  0.1292  0.0924
32659ION     NA48733  15.458  17.074   9.343 -0.0566  0.0777  0.0416
32660ION     NA48734   5.320  10.484   9.682  0.3493  0.1407  0.2133
32661ION     NA48735  18.624  17.284   9.162  0.0454  0.2294 -0.0418
32662ION     NA48736  19.055   0.086   9.096 -0.0687 -0.1600  0.1004
32663ION     NA48737  10.804  12.755  13.852 -0.0615 -0.0229 -0.0109
32664ION     NA48738  16.092  12.430  11.459 -0.0657  0.0379 -0.0557
32665ION     NA48739   1.893  18.686   3.080  0.0321 -0.3175 -0.0957
32666ION     NA48740   2.263   8.891   2.822 -0.0980  0.1089  0.2061
32667ION     NA48741  13.440  12.589   1.207 -0.0644 -0.1464 -0.1385
32668ION     NA48742   0.873  10.543   4.944  0.3404 -0.2859  0.4789
32669ION     NA48743   5.854   2.893  10.222  0.0433 -0.2597 -0.1555
32670ION     NA48744   1.645   8.176   3.526  0.0004  0.1080 -0.3258
32671ION     NA48745  15.046   7.405  10.267 -0.4397  0.0490 -0.1461
32672ION     NA48746  16.837   4.284   9.851  0.1977  0.1710 -0.3091
32673ION     NA48747  18.580  15.862   9.801  0.2630 -0.1696 -0.0041
32674ION     NA48748  11.040   0.279   1.954 -0.0181 -0.2225  0.0729
32675ION     NA48749   8.392  10.416   5.581  0.1624  0.3265 -0.0871
32676ION     NA48750  13.255  15.792   1.960  0.0628 -0.0300 -0.1574
32677ION     NA48751   4.570   4.230  10.516  0.2206  0.0287 -0.0213
32678ION     NA48752   3.294  18.685   5.226  0.3569  0.2241 -0.3014
32679ION     NA48753  18.397   7.709   9.922  0.5318  0.0164  0.1915
32680ION     NA48754   4.664  14.977   9.419  0.2404 -0.2675 -0.0313
32681ION     NA48755   7.088  11.358   9.977 -0.0339  0.1544 -0.0773
32682ION     NA48756   7.334   1.422   9.969  0.2261  0.2114 -0.1111
32683ION     NA48757  16.974  11.303   9.576  0.2664  0.0221  0.0362
32684ION     NA48758   9.336  13.803   9.704 -0.2311 -0.1420  0.0083
32685ION     NA48759   0.654  18.238   9.117  0.5252  0.0779 -0.2414
32686ION     NA48760   2.608   9.392   3.644  0.1438  0.2513  0.1536
32687ION     NA48761  10.037  16.278   9.720 -0.0692 -0.0544  0.2498
32688ION     NA48762   4.804  16.910   4.576  0.2197 -0.1740 -0.0920
32689ION     NA48763   2.022   9.017   9.503 -0.0686 -0.3356  0.2570
32690ION     NA48764  13.538  13.147   2.485  0.3188 -0.0697 -0.3964
32691ION     NA48765  12.756   7.567   4.274  0.0027 -0.0583 -0.2708
32692ION     NA48766   7.281   3.751  12.027 -0.0754  0.0954  0.1509
32693ION     NA48767  18.114  16.663   9.417  0.0711 -0.3234 -0.1060
32694ION     NA48768  13.413  12.584   9.677 -0.3999 -0.0643 -0.2420
32695ION     NA48769   2.118  12.262   9.444 -0.0347  0.3410  0.5950
32696ION     NA48770   8.126  14.537   5.689 -0.0518  0.4032 -0.2466
32697ION     NA48771  11.549  12.584   3.675  0.1608  0.1095  0.0511
32698ION     NA48772   1.282  18.610   1.489 -0.0309  0.1536  0.2327
32699ION     NA48773   2.209  11.397  11.694 -0.1998 -0.2034 -0.0626
32700ION     NA48774  16.221   0.913   4.932 -0.0370  0.0315 -0.0130
32701ION     NA48775  10.724  16.331   9.579  0.2170 -0.2114  0.2670
32702ION     NA48776  11.572   0.769   9.924 -0.0142  0.0697 -0.1263
32703ION     NA48777   5.513  11.589   4.346 -0.0685  0.3544 -0.1317
32704ION     NA48778  13.312  10.108   9.381 -0.0879  0.1024  0.1104
32705ION     NA48779  16.534   1.862   4.871 -0.1216  0.3376 -0.3991
32706ION     NA48780  12.409   0.893   4.794  0.1315  0.1770  0.2299
32707ION     NA48781  14.673  13.994   5.044  0.3394  0.0998  0.0172
32708ION     NA48782   3.537   0.104   3.461  0.2155  0.1766  0.1154
32709ION     NA48783   4.684   5.167   2.754  0.0362  0.1934  0.1925
32710ION     NA48784   9.440   6.632  10.317  0.0478  0.1732 -0.1695
32711ION     NA48785  17.534  12.842   9.274  0.2438  0.2567  0.1598
32712ION     NA48786  18.915   4.818   2.524 -0.1077 -0.1101 -0.0055
32713ION     NA48787   4.031  11.737  10.349 -0.0402 -0.1223  0.0359
32714ION     NA48788  16.079   1.205  11.118  0.0738 -0.0131  0.1620
32715ION     NA48789   0.327   4.329   0.974 -0.0472  0.0400  0.0722
32716ION     NA48790   0.064   1.218   9.444 -0.0832 -0.0305  0.0006
32717ION     NA48791   3.380   2.265   5.627  0.2596 -0.4978 -0.4873
32718ION     NA48792  18.328   9.535  10.598 -0.1743  0.3229 -0.0833
32719ION     NA48793  16.941  15.568   8.912  0.3397  0.1648  0.0821
32720ION     NA48794   9.319  10.817   5.689 -0.4430  0.0988 -0.1861
32721ION     NA48795   3.191   6.177  10.513  0.1391 -0.1505  0.2439
32722ION     NA48796   8.842   8.493   1.129  0.3280  0.1151 -0.1446
32723ION     NA48797   3.603  11.018  12.449  0.0636 -0.0052  0.0005
32724ION     NA48798  14.994  18.430   9.195 -0.2575 -0.2802  0.2812
32725ION     NA48799  11.000   8.697   9.784 -0.2163  0.0324  0.0283
32726ION     NA48800  14.627  17.321   4.811  0.0381  0.0701 -0.3149
32727ION     NA48801  14.256  11.974  14.063  0.5430 -0.0407 -0.2005
32728ION     NA48802  12.821  13.840   9.413 -0.0549 -0.0702  0.1066
32729ION     NA48803   2.131   4.254  14.622  0.3119  0.2680  0.2447
32730ION     NA48804   8.671  17.424   3.887 -0.2758 -0.4866 -0.1681
32731ION     NA48805   7.481   5.398   2.707 -0.1338  0.4847 -0.1579
32732ION     NA48806  10.803   4.070   9.749  0.1527 -0.1090 -0.1826
32733ION     NA48807   1.966  15.644   9.392  0.0654 -0.1128 -0.2172
32734ION     NA48808   5.915   3.667  10.720  0.3370 -0.3151  0.2137
32735ION     NA48809  12.083  18.659   9.616  0.0203 -0.2665  0.1562
32736ION     NA48810   8.827  11.046   1.597 -0.1337  0.0242  0.2295
32737ION     NA48811   2.323  18.955   9.942  0.1474  0.1459 -0.0826
32738ION     NA48812  10.212   4.182   9.604 -0.1552  0.0035  0.0854
32739ION     NA48813  17.938  12.560   9.279 -0.2248  0.0781  0.0895
32740ION     NA48814  10.863   7.500  11.280  0.1891  0.0487 -0.0112
32741ION     NA48815  18.010  10.767   1.653  0.2195 -0.1279 -0.0873
32742ION     NA48816  15.828   2.884   9.329  0.1652  0.0602  0.1859
32743ION     NA48817  12.383  15.417   9.878  0.1532 -0.0243 -0.0350
32744ION     NA48818   0.123   7.712   4.694  0.0058  0.5046  0.0114
32745ION     NA48819   1.699  12.897   9.319 -0.1827 -0.0908  0.3768
32746ION     NA48820  18.893  16.335   9.366 -0.0634 -0.2323  0.3110
32747ION     NA48821   7.997   0.996   9.697  0.2511 -0.0291  0.2619
32748ION     NA48822  12.776   5.323   9.936  0.1557  0.0548  0.0390
32749ION     NA48823   6.678  13.176   9.794  0.1096 -0.2134 -0.4096
32750ION     NA48824  11.271  18.331   9.813  0.0706  0.1026  0.1883
32751ION     NA48825   5.190  13.552   5.728  0.1794 -0.0084  0.3255
32752ION     NA48826  16.048   1.636   9.218  0.3154 -0.1318 -0.2100
32753ION     NA48827  16.916  13.320   9.454  0.2173 -0.0052 -0.0831
32754ION     NA48828   7.186  17.346  12.275  0.0617  0.1562 -0.0076
32755ION     NA48829   0.949  10.065  14.761 -0.0138  0.0622 -0.1492
32756ION     NA48830  17.123   8.320   9.586 -0.1735  0.0969 -0.1438
32757ION     NA48831  13.317   8.182   5.450  0.1333 -0.3029  0.2148
32758ION     NA48832  10.098   1.667  10.050 -0.1558  0.1583 -0.2743
32759ION     NA48833   3.546   5.788   3.620  0.1914  0.1254  0.1687
32760ION     NA48834   9.570  10.392  10.078  0.0328  0.5324 -0.1421
32761ION     NA48835   8.329   6.350  12.597  0.2881  0.0425 -0.1323
32762ION     NA48836  17.746   6.350   9.859 -0.1171  0.3058  0.2823
32763ION     NA48837  13.414  12.933   5.376  0.2740  0.1614  0.1954
32764ION     NA48838  12.388   7.000  10.159  0.0973 -0.2463  0.2162
32765ION     NA48839   2.458  11.561   9.505 -0.2908  0.0007  0.0852
32766ION     NA48840   9.754  12.093   2.617 -0.1124  0.0748 -0.3738
32767ION     NA48841   1.192   2.128   9.897 -0.1002 -0.1858  0.3232
32768ION     NA48842  13.258   8.297   0.138  0.0779  0.0828 -0.0037
32769ION     NA48843   2.817   3.573   5.580  0.1924 -0.2831 -0.1004
32770ION     NA48844  12.030  10.045   9.638  0.5363  0.0443 -0.2311
32771ION     NA48845  10.183  10.824  12.063 -0.2229 -0.0149 -0.0022
32772ION     NA48846  17.945  14.818   1.977  0.5623  0.0332  0.3020
32773ION     NA48847  14.244  18.795   3.733 -0.1522 -0.0378 -0.2601
32774ION     NA48848  11.473   6.489  10.046 -0.0862 -0.1060 -0.0105
32775ION     NA48849  10.869  12.505   2.674 -0.1817  0.1081 -0.2301
32776ION     NA48850  11.697   2.176  14.969  0.0780 -0.1663  0.0650
32777ION     NA48851   0.669   5.784   4.930  0.2398  0.1668 -0.0604
32778ION     NA48852  18.403   6.401   9.734 -0.3427 -0.0479  0.0235
32779ION     NA48853  12.933  17.695   9.448  0.0349 -0.1036  0.0663
32780ION     NA48854   2.849  16.077   9.399  0.0083  0.0408  0.0010
32781ION     NA48855  14.300   3.289   5.473  0.1384 -0.2127  0.0580
32782ION     NA48856  18.264  11.961   1.829 -0.1939 -0.0083 -0.0306
32783ION     NA48857   2.393  18.187   9.476 -0.0389 -0.0953  0.2945
32784ION     NA48858   8.203   5.428   2.668  0.0385  0.0223  0.0558
32785ION     NA48859  18.024  16.121   9.158 -0.1227  0.0643 -0.4277
32786ION     NA48860   4.993  12.360   9.547  0.1069 -0.2178 -0.3267
32787ION     NA48861  11.941   1.672   3.762  0.1631  0.1576 -0.1719
32788ION     NA48862   8.499   5.217   5.373 -0.2228 -0.6952 -0.4643
32789ION     NA48863   3.037  12.443   9.478  0.1652  0.1356 -0.1215
32790ION     NA48864  16.167  13.895   0.403 -0.0180 -0.0842 -0.2304
32791ION     NA48865   0.600  12.618  14.294  0.0055  0.3006  0.0561
32792ION     NA48866  11.657  12.667   0.898 -0.1276  0.3259  0.0853
32793ION     NA48867  13.599   7.344   1.999 -0.0744 -0.0314 -0.0086
32794ION     NA48868  13.017   0.582   2.262  0.1603  0.0514  0.1400
32795ION     NA48869  10.700   9.660   0.013  0.2256 -0.2165  0.0605
32796ION     NA48870   1.705   3.504   1.670  0.1001 -0.1300 -0.3059
32797ION     NA48871  16.472   6.963   0.714  0.0414 -0.0273  0.1634
32798ION     NA48872  15.871  18.925  12.074  0.0537  0.1066 -0.0462
32799ION     NA48873   0.905   8.745  10.761 -0.2113 -0.1452 -0.2266
32800ION     NA48874   1.086   0.707   9.504  0.0290  0.0574  0.0010
32801ION     NA48875   4.036   8.912   9.728 -0.2603 -0.1891 -0.3769
32802ION     NA48876   5.148   0.288  14.259  0.0711 -0.0500 -0.0823
32803ION     NA48877   9.239   9.593   3.710 -0.0419  0.4002 -0.2929
32804ION     NA48878   1.440   1.166  10.234  0.1132  0.0088 -0.2167
32805ION     NA48879  15.618  15.361   2.307  0.1232 -0.2465  0.4146
32806ION     NA48880   3.758  15.586   9.662  0.1805  0.2574  0.0855
32807ION     NA48881   9.307   9.547  10.029  0.0331 -0.3692  0.0928
32808ION     NA48882  17.721   1.102   0.374 -0.4201 -0.2303 -0.1342
32809ION     NA48883   8.536  13.719  11.779 -0.0308 -0.1236 -0.0871
32810ION     NA48884  18.485   0.639   9.313  0.2345  0.2211 -0.1294
32811ION     NA48885   6.565   1.712  11.665 -0.1718  0.1423 -0.0783
32812ION     NA48886   9.614  12.060   9.797  0.1393  0.0006 -0.0841
32813ION     NA48887   2.425   5.913  13.197  0.1219 -0.2559  0.1552
32814ION     NA48888   2.747  15.901  14.479  0.3745 -0.1839  0.3633
32815ION     NA48889  17.460   3.139  11.660 -0.2598  0.2051 -0.2120
32816ION     NA48890   5.527  17.264   9.789 -0.0938 -0.0385  0.0952
32817ION     NA48891  10.415   9.383   4.161 -0.0884 -0.0043  0.0588
32818ION     NA48892   4.355   5.236   5.223 -0.0824  0.0775  0.2158
32819ION     NA48893  16.269   7.983   9.715  0.1419 -0.2845 -0.2359
32820ION     NA48894   2.899   0.925  10.006  0.2457  0.2309 -0.0303
32821ION     NA48895  11.864   0.493   4.682 -0.5181 -0.0209  0.1437
32822ION     NA48896  17.320  14.997   8.971  0.1507 -0.1175  0.0895
32823ION     NA48897  14.354   2.628   9.891 -0.1426 -0.2556  0.4683
32824ION     NA48898   2.388  16.103   5.272 -0.0116  0.0991  0.0496
32825ION     NA48899   4.714   8.026   5.846 -0.1348  0.0190  0.0480
32826ION     NA48900  18.257   0.710   3.996 -0.0216 -0.0275  0.4399
32827ION     NA48901  10.867   1.403   9.919  0.1717  0.1193 -0.4243
32828ION     NA48902   6.053   4.108  11.486  0.0884 -0.0157  0.2192
32829ION     NA48903  10.671  14.480   9.626  0.1828  0.0703  0.0695
32830ION     NA48904  11.339   3.781  10.007  0.0637  0.1486  0.4236
32831ION     NA48905  11.958  19.169   9.662 -0.1375 -0.0435  0.2218
32832ION     NA48906   4.488   2.575  10.158  0.1814  0.0382 -0.1780
32833ION     NA48907  15.115   7.955   0.769  0.0553  0.2735  0.0499
32834ION     NA48908  12.457   6.329  10.110 -0.0093  0.0499  0.0413
32835ION     NA48909  16.414  13.030  13.147 -0.3611 -0.2186  0.2114
32836ION     NA48910   2.162   6.127   9.946 -0.2200  0.3639  0.1793
32837ION     NA48911  13.122  13.201  12.206  0.0220 -0.1922  0.1440
32838ION     NA48912  18.767  11.251   9.385  0.0814 -0.2068 -0.0246
32839ION     NA48913   1.236   6.319   9.764  0.1258  0.2146  0.0528
32840ION     NA48914   2.181  14.600   9.113 -0.2312  0.0688 -0.1307
32841ION     NA48915  14.020   3.222  11.231 -0.3492  0.1767 -0.1406
32842ION     NA48916   2.358   9.927   9.577 -0.0791 -0.5118  0.2567
32843ION     NA48917   6.628  11.845  10.724  0.1023  0.0234  0.0115
32844ION     NA48918   2.874  14.171  12.601  0.1818 -0.0158 -0.0748
32845ION     NA48919  14.852  10.453   9.344 -0.0780  0.0434 -0.1452
32846ION     NA48920   3.504  10.408   4.676  0.0187 -0.2505 -0.1762
32847ION     NA48921  17.941   8.473   3.792 -0.0604 -0.2146  0.0221
32848ION     NA48922   3.157   1.919   0.607  0.0669  0.1088  0.3086
32849ION     NA48923  14.928   1.244  12.714  0.0065 -0.5686 -0.0354
32850ION     NA48924   0.562  18.330  10.960 -0.0467 -0.1129 -0.1291
32851ION     NA48925  14.033  16.329   9.536 -0.1275 -0.0979 -0.0221
32852ION     NA48926   9.126  11.476  10.506  0.2410  0.0253 -0.1091
32853ION     NA48927   7.035   6.858  10.636  0.0434  0.0717 -0.0117
32854ION     NA48928  10.235   8.479   3.750 -0.5371  0.1585 -0.1306
32855ION     NA48929   3.181  17.415   9.892  0.1462 -0.4275 -0.0695
32856ION     NA48930   8.917   7.646   4.920  0.1829  0.0109  0.1466
32857ION     NA48931   2.617  14.049   1.157  0.2637 -0.1341 -0.1044
32858ION     NA48932   5.117  19.050   9.818 -0.3112 -0.4650  0.2057
32859ION     NA48933  10.856  17.635  14.767  0.1770  0.0098 -0.1477
32860ION     NA48934  11.179   9.775   5.710 -0.0391  0.2136 -0.0323
32861ION     NA48935  11.956  13.773   9.657 -0.0580  0.0721  0.0121
32862ION     NA48936   9.827   8.668   5.427 -0.0260 -0.1790  0.1905
32863ION     NA48937  10.422  13.771  10.097 -0.0188 -0.2933  0.0875
32864ION     NA48938  12.286  11.122   5.102 -0.1166  0.3193 -0.3185
32865ION     NA48939  16.041  12.836   9.224 -0.1703 -0.1253  0.1498
32866ION     NA48940   4.350  18.178   9.963 -0.0733  0.0424  0.0430
32867ION     NA48941   5.861  12.158  14.324 -0.0543 -0.2237  0.2960
32868ION     NA48942  17.014  14.134   9.332 -0.0387 -0.0767 -0.0169
32869ION     NA48943  12.522   4.711  14.888  0.1527  0.0357 -0.2061
32870ION     NA48944   7.812   6.633   5.768 -0.1021  0.2530  0.0329
32871ION     NA48945   7.659   5.632  10.546  0.1350  0.0208  0.0421
32872ION     NA48946  10.910  15.104   5.381 -0.0714  0.2355  0.0951
32873ION     NA48947   3.591   5.663  12.044  0.0759 -0.3399 -0.0092
32874ION     NA48948   0.896  15.778   2.858  0.0189  0.3014  0.0224
32875ION     NA48949  13.614  15.211   9.331  0.1706  0.0068  0.1703
32876ION     NA48950   4.313  13.482   5.453  0.3326  0.1225 -0.3422
32877ION     NA48951  15.626   2.880   4.891 -0.1758 -0.2828 -0.1422
32878ION     NA48952  11.855  11.660  10.109  0.1337 -0.1442  0.0015
32879ION     NA48953   5.425   6.626  10.206 -0.0093 -0.3775 -0.1627
32880ION     NA48954   9.402  10.214  14.404 -0.1772 -0.2677  0.3690
32881ION     NA48955   5.149   3.156   0.634  0.2771 -0.0414 -0.0821
32882ION     NA48956   5.410  14.958   9.773 -0.0549 -0.1311  0.0794
32883ION     NA48957   5.627   8.291   6.215  0.2244  0.2240  0.0533
32884ION     NA48958   6.363   1.334   9.820 -0.2165  0.2488 -0.3136
32885ION     NA48959  14.331   6.180   3.742 -0.2812  0.4828  0.2430
32886ION     NA48960   7.079  18.370   9.748 -0.0802 -0.1658  0.3021
32887ION     NA48961  11.761   2.794   0.860 -0.1833 -0.1471 -0.1040
32888ION     NA48962  15.995   4.520  10.139 -0.0300 -0.1207 -0.0584
32889ION     NA48963  18.787  18.539   9.943  0.5055  0.1596 -0.1346
32890ION     NA48964   6.413  10.236   9.807 -0.0398 -0.2892  0.0369
32891ION     NA48965  18.914   1.341   5.272 -0.0810 -0.0659  0.1696
32892ION     NA48966   4.369  11.729   9.968 -0.0147  0.0469 -0.2574
32893ION     NA48967  10.676   5.456  10.012 -0.0905  0.1551 -0.0087
32894ION     NA48968   3.618  16.588   9.880  0.0669 -0.1242  0.1747
32895ION     NA48969  10.344  14.218   2.962  0.0914 -0.2391  0.0224
32896ION     NA48970  16.162  17.644   8.987 -0.0947  0.1308  0.1180
32897ION     NA48971   4.254  16.427  10.026 -0.1125 -0.0024  0.1532
32898ION     NA48972  11.246  14.872   9.669 -0.1635  0.3435 -0.1759
32899ION     NA48973  12.340   5.514   9.962  0.1100  0.1544 -0.1055
32900ION     NA48974   7.488   8.702   1.570 -0.0505  0.0148  0.0238
32901ION     NA48975   0.471  18.946   9.256  0.2839 -0.0806  0.1111
32902ION     NA48976   7.306   2.283   9.957  0.0870 -0.1147 -0.2950
32903ION     NA48977   6.534   7.227  10.622  0.0042  0.4235  0.1116
32904ION     NA48978  14.226  18.987   9.229  0.0565  0.0828  0.3997
32905ION     NA48979   6.775   5.242  12.167 -0.2199  0.0909  0.1647
32906ION     NA48980   8.150  12.204   9.873 -0.1452  0.2643 -0.1372
32907ION     NA48981   5.593  10.322  14.094  0.1461 -0.0344  0.0897
32908ION     NA48982  10.884  15.484   9.647 -0.1436 -0.1934  0.1012
32909ION     NA48983  14.917   5.600   3.714  0.3433  0.1866  0.4208
32910ION     NA48984   1.129  15.350   9.497 -0.1257 -0.0949  0.0160
32911ION     NA48985  10.038   7.006  11.061 -0.3798 -0.0545 -0.3981
32912ION     NA48986  10.150   6.959   9.871  0.1797 -0.2091  0.1877
32913ION     NA48987   7.951   7.860   4.425  0.0800 -0.2855 -0.0959
32914ION     NA48988   0.641  15.661  10.105 -0.2034 -0.2730  0.0998
32915ION     NA48989   8.732   0.766  13.264 -0.0244 -0.1156  0.1354
32916ION     NA48990  16.920  15.121   4.986 -0.0898  0.0712  0.1887
32917ION     NA48991  16.559   0.015   8.852  0.3469 -0.1173 -0.0557
32918ION     NA48992  18.460  10.565   9.493 -0.0575  0.0610 -0.2396
32919ION     NA48993   9.460  17.002   9.859  0.0123  0.0518 -0.0908
32920ION     NA48994  12.118  14.576   9.288  0.5442  0.2076  0.1022
32921ION     NA48995   1.922  16.742   9.456  0.0688 -0.2891 -0.0500
32922ION     NA48996   3.958  17.326   9.865  0.3901  0.4319  0.1316
32923ION     NA48997   2.955   4.908  13.225 -0.0632  0.2631 -0.0174
32924ION     NA48998  11.718   9.137   9.775  0.0817  0.1139  0.1012
32925ION     NA48999   8.861  18.055   9.636 -0.0646  0.0221 -0.0397
32926ION     NA49000   8.029   1.162  13.605  0.3928  0.1032  0.1649
32927ION     NA49001   2.593  13.236   9.628 -0.1882 -0.2585 -0.0887
32928ION     NA49002  17.935  11.306   9.496 -0.0927  0.2198 -0.1329
32929ION     NA49003   1.056   5.882  11.760 -0.0470 -0.0978 -0.1403
32930ION     NA49004   9.823   7.796   9.929  0.1992  0.0215  0.0968
32931ION     NA49005   5.281   1.250   1.934  0.2989 -0.1835 -0.2032
32932ION     NA49006  17.211   5.321   9.940  0.2537  0.0071  0.0178
32933ION     NA49007   8.726  14.263   9.686  0.2711  0.1401 -0.1147
32934ION     NA49008  10.940  10.604   0.812 -0.1838  0.3849  0.0635
32935ION     NA49009   2.071   3.508  14.944 -0.5164  0.2621  0.0891
32936ION     NA49010  15.280  12.367  13.157  0.2586  0.0091  0.1012
32937ION     NA49011  16.143  11.001   2.162  0.1994 -0.1201 -0.3323
32938ION     NA49012  11.419   5.298  10.125 -0.0483  0.2179 -0.2205
32939ION     NA49013  19.202  12.542  12.539 -0.0903 -0.0466  0.1580
32940ION     NA49014   9.336   4.363  10.892  0.0393  0.1956 -0.1244
32941ION     NA49015   4.668  17.523   9.885 -0.0331 -0.1753 -0.0355
32942ION     NA49016  17.497   7.793   1.927 -0.0265  0.0011  0.0107
32943ION     NA49017  17.621   4.446   9.706  0.2874 -0.2215 -0.0098
32944ION     NA49018  18.808   5.712   3.951 -0.1167  0.2487 -0.1882
32945ION     NA49019   0.436   4.335   9.602  0.0191 -0.1334  0.2618
32946ION     NA49020   4.152  18.270  14.984  0.0964 -0.0568  0.1370
32947ION     NA49021  16.593  12.252   9.444  0.0628 -0.0317 -0.1978
32948ION     NA49022  18.100  12.345  11.248  0.1031  0.3322  0.1810
32949ION     NA49023  12.917   0.264  14.899  0.2865 -0.3116  0.2867
32950ION     NA49024   4.892   3.293  11.391  0.3428 -0.2082 -0.0352
32951ION     NA49025   6.908  12.499   3.849  0.3639 -0.0610  0.2420
32952ION     NA49026   9.398   7.655  10.233  0.1760  0.3460 -0.1106
32953ION     NA49027  15.802   4.598   5.517 -0.5314 -0.2658 -0.2003
32954ION     NA49028   0.925   7.727  13.181  0.1747 -0.1252 -0.1767
32955ION     NA49029  12.916   9.116   0.225  0.2412  0.1592 -0.2139
32956ION     NA49030  16.624   4.476  11.558 -0.2365  0.1737  0.0323
32957ION     NA49031   5.375   2.055  10.506  0.2053  0.0226 -0.0793
32958ION     NA49032  15.239  10.314   5.161 -0.0549 -0.3420  0.0029
32959ION     NA49033  10.427   6.310  10.189  0.0066 -0.2533 -0.0462
32960ION     NA49034   3.075   2.040  10.517  0.0550 -0.1200 -0.0896
32961ION     NA49035   3.295   0.094   9.778 -0.1659 -0.1765 -0.3937
32962ION     NA49036  17.145   9.143  13.902  0.4050 -0.2115  0.1728
32963ION     NA49037  12.800  18.353  10.395 -0.1733  0.2381 -0.0357
32964ION     NA49038   2.925   5.163   4.957 -0.1308 -0.0842  0.2792
32965ION     NA49039  13.236  16.983   9.137 -0.1006  0.3873 -0.2196
32966ION     NA49040  17.566   6.111   4.366  0.0516 -0.0321 -0.0066
32967ION     NA49041  17.539   9.397   9.481 -0.0798  0.1829  0.0203
32968ION     NA49042   2.477  12.077   1.612  0.0775  0.0559 -0.1017
32969ION     NA49043   7.340   9.652   9.720  0.0481 -0.0449  0.0724
32970ION     NA49044   3.249   5.304  10.158  0.1774  0.2486  0.1118
32971ION     NA49045  10.681   7.222   9.888 -0.0736 -0.2651 -0.2231
32972ION     NA49046   5.850  14.530   2.322  0.2032  0.1012  0.3660
32973ION     NA49047  15.961   0.624   9.063  0.2803  0.2954 -0.1846
32974ION     NA49048   2.534   5.830   9.878  0.1636 -0.4479  0.1061
32975ION     NA49049   6.282  11.472   9.537 -0.0519  0.2523 -0.0232
32976ION     NA49050  11.448   1.502   9.700  0.2806 -0.1179 -0.0250
32977ION     NA49051  10.870   1.439  13.473  0.0203 -0.2985 -0.1872
32978ION     NA49052  12.930  14.333   9.363  0.0243 -0.0243  0.0495
32979ION     NA49053  13.979   0.824   9.132  0.0026 -0.2317  0.0720
32980ION     NA49054   1.078   8.304   9.470 -0.1754  0.1802  0.0349
32981ION     NA49055   5.655   0.642  10.248 -0.1113 -0.1448 -0.0811
32982ION     NA49056  17.789  13.370   9.889  0.2661  0.3176 -0.0194
32983ION     NA49057  11.701   3.082   9.734 -0.1434  0.0880 -0.3166
32984ION     NA49058  15.538  15.659  11.324 -0.1365 -0.1008 -0.2363
32985ION     NA49059   4.134  18.524   5.000 -0.2238 -0.0490  0.0268
32986ION     NA49060   6.365   5.655   6.024 -0.3600  0.1282  0.2287
32987ION     NA49061   4.092   3.156  10.436  0.1370 -0.0343 -0.0147
32988ION     NA49062  14.433   2.946   2.689  0.3241 -0.2371  0.0654
32989ION     NA49063  15.057   2.836   9.643  0.0640 -0.0279  0.2043
32990ION     NA49064  11.512  17.531   9.654  0.0057  0.1913  0.2803
32991ION     NA49065   0.180  14.140   4.837  0.3086  0.1321 -0.2879
32992ION     NA49066  13.758  10.406  11.972 -0.0643  0.0552 -0.0555
32993ION     NA49067   6.241   9.692   1.031  0.2512  0.1396  0.0078
32994ION     NA49068  12.726   0.087   9.398 -0.1034  0.0261 -0.0441
32995ION     NA49069   2.941   5.323   1.430  0.5611  0.2278  0.0619
32996ION     NA49070   3.955  16.134  11.405 -0.1451 -0.2431  0.3861
32997ION     NA49071   0.809   1.502   9.772  0.0776  0.2016 -0.0224
32998ION     NA49072   6.703   9.270  10.206 -0.1149 -0.0866  0.2067
32999ION     NA49073  16.298   9.009   9.777 -0.0580 -0.0040  0.0248
33000ION     NA49074   9.857   3.400   9.549 -0.1853 -0.2677 -0.3793
33001ION     NA49075  11.046   9.791   9.926  0.0611 -0.0551  0.1534
33002ION     NA49076  11.292  16.630   1.532 -0.1398  0.0583  0.1660
33003ION     NA49077  15.850   0.427  13.572  0.3473 -0.1107  0.2739
33004ION     NA49078   1.941  17.280   4.768  0.2172 -0.1614 -0.0049
33005ION     NA49079   2.685  12.994  14.079 -0.3587 -0.0204  0.1056
33006ION     NA49080  12.534   8.965  10.113  0.2435 -0.1905 -0.0282
33007ION     NA49081  10.893  16.852   9.392 -0.1089 -0.0322  0.2536
33008ION     NA49082   8.761  15.606   1.681 -0.0443 -0.0087  0.1685
33009ION     NA49083  19.108   9.420   9.472  0.0151 -0.1166 -0.1929
33010ION     NA49084   3.962   0.750   9.903  0.2112 -0.0786  0.1709
33011ION     NA49085   2.932  15.899  13.149  0.6108 -0.0565  0.4178
33012ION     NA49086   1.656  17.598   9.389 -0.0735  0.2946  0.1570
33013ION     NA49087   9.126   1.144   9.642 -0.1996  0.1194 -0.2795
33014ION     NA49088  14.703  12.542   9.487 -0.0894 -0.1254 -0.1705
33015ION     NA49089   1.549   7.917  14.791 -0.0347 -0.3154  0.1201
33016ION     NA49090   7.316  12.453   9.941  0.4253  0.0457  0.1726
33017ION     NA49091  18.707  11.154  12.771 -0.0688 -0.3601  0.0483
33018ION     NA49092  16.089   9.250  10.780  0.1709  0.0605  0.1750
33019ION     NA49093  16.958   1.356   9.026 -0.2205  0.0501  0.2838
33020ION     NA49094   9.473   3.131   5.230  0.1607 -0.1220  0.0319
33021ION     NA49095   9.386   5.017  10.213 -0.2542 -0.1175  0.1590
33022ION     NA49096  13.954  13.142   9.357 -0.2490 -0.1860  0.1698
33023ION     NA49097   0.055   5.159   9.858  0.2329  0.0180  0.2318
33024ION     NA49098   6.045   1.710   5.369 -0.0150 -0.1565 -0.0766
33025ION     NA49099   7.014  13.284   0.380 -0.2386  0.0968 -0.2762
33026ION     NA49100  11.812  17.870  11.896  0.1464 -0.0240  0.1811
33027ION     NA49101   1.613  14.870   3.129 -0.1391  0.1496  0.1415
33028ION     NA49102   1.708  13.570   9.227  0.1093  0.0524 -0.1609
33029ION     NA49103  15.176   6.852  10.234 -0.1686 -0.0695  0.2620
33030ION     NA49104   2.379   6.609   3.171 -0.0383  0.3395 -0.1051
33031ION     NA49105  13.717  18.592   1.588 -0.2893  0.1366  0.1332
33032ION     NA49106  15.706   6.017  10.212  0.1824 -0.2076 -0.1179
33033ION     NA49107   1.494  18.363   9.733 -0.4225  0.0571 -0.1022
33034ION     NA49108   5.555   7.903  11.472  0.2941 -0.0056  0.2497
33035ION     NA49109  14.087  10.558   9.556  0.0504 -0.1799 -0.2744
33036ION     NA49110   3.356  13.212   5.197  0.0928  0.1510  0.0179
33037ION     NA49111   4.098  13.798   9.618  0.0048  0.2189 -0.2841
33038ION     NA49112  15.203   0.300   9.750 -0.0341 -0.1127  0.2271
33039ION     NA49113  13.024   0.872   9.599 -0.1725  0.1694 -0.1498
33040ION     NA49114  12.275  10.621   5.552  0.0104 -0.0383 -0.1831
33041ION     NA49115  19.022   8.103   5.427 -0.1817  0.2442  0.0809
33042ION     NA49116   4.491   3.681   3.390  0.1949 -0.1677  0.1113
33043ION     NA49117  13.909  13.822   9.353  0.1481 -0.0781 -0.0551
33044ION     NA49118   2.115   0.577   3.606 -0.0927  0.0467  0.2345
33045ION     NA49119   4.726   7.090   3.865 -0.2683  0.2797 -0.2288
33046ION     NA49120  18.559   8.176   9.558 -0.0967 -0.3591  0.2637
33047ION     NA49121   8.571   1.530   5.759 -0.0586  0.5038  0.1999
33048ION     NA49122   5.727   4.747   2.753 -0.0365  0.1866  0.0249
33049ION     NA49123  12.223   0.992   9.504 -0.1562 -0.1943 -0.1985
33050ION     NA49124   9.425   0.307  10.706 -0.3620 -0.1330 -0.1996
33051ION     NA49125  10.836  17.510   3.114  0.2411 -0.0019  0.0032
33052ION     NA49126   1.384   2.601   0.055  0.0869  0.1071  0.0137
33053ION     NA49127  16.273  16.633   9.184  0.0989 -0.0744 -0.0216
33054ION     NA49128   1.529  17.739  10.895  0.0977 -0.0496  0.4032
33055ION     NA49129   9.926   3.416  14.739 -0.1106  0.2592 -0.0139
33056ION     NA49130  10.359   0.818  10.282 -0.3310 -0.1572 -0.0178
33057ION     NA49131   5.160   8.500  10.024 -0.2336  0.1878  0.1865
33058ION     NA49132   9.801   9.338   2.218  0.2905 -0.1220 -0.0919
33059ION     NA49133  15.201  16.639  11.297 -0.1720  0.3634  0.2266
33060ION     NA49134   0.803   1.490   1.078  0.0992  0.1985  0.0722
33061ION     NA49135   6.727   2.915  10.039  0.1422 -0.0347  0.0220
33062ION     NA49136   8.548  14.683  11.119 -0.7222 -0.2147  0.0766
33063ION     NA49137   2.664   2.158  13.976 -0.1321  0.0307 -0.2592
33064ION     NA49138   9.848  12.058  10.382  0.1910 -0.2799  0.2037
33065ION     NA49139  11.219   4.557   3.637 -0.1981  0.0670 -0.0967
33066ION     NA49140   2.885  17.580  13.177 -0.3613  0.1044  0.1554
33067ION     NA49141   9.435   4.245   9.862 -0.3584  0.0839  0.3388
33068ION     NA49142   2.389  11.249   4.959 -0.1900 -0.2792 -0.0173
33069ION     NA49143   8.821   0.721   5.676 -0.2419  0.1364 -0.1487
33070ION     NA49144   3.046   8.996   9.762 -0.4947 -0.1342  0.0947
33071ION     NA49145  10.471  13.422   0.245 -0.1522  0.1300  0.1490
33072ION     NA49146   5.295  15.982   2.061 -0.1193  0.3346 -0.1821
33073ION     NA49147  11.965   3.455   2.530 -0.3083  0.2731 -0.0677
33074ION     NA49148   4.047  19.114   1.618 -0.1225  0.1189  0.3195
33075ION     NA49149  14.416   1.949   9.788 -0.1597  0.0408  0.1766
33076ION     NA49150   5.184   2.906  10.222  0.0485 -0.2987  0.0681
33077ION     NA49151   6.545  10.777   9.859 -0.1868 -0.3040  0.0327
33078ION     NA49152   2.427   1.890   9.908  0.0811  0.0427 -0.2984
33079ION     NA49153  17.665  19.242   9.107  0.2213  0.1834  0.1863
33080ION     NA49154  13.690  10.853   9.688 -0.0191 -0.1635  0.0838
33081ION     NA49155   5.299  18.066   9.841  0.1780  0.1163 -0.2743
33082ION     NA49156   6.946  19.100   9.507  0.1230 -0.0362 -0.1527
33083ION     NA49157  15.510  13.548   5.099 -0.2696  0.3634  0.0129
33084ION     NA49158  17.937  18.285   1.532 -0.2846 -0.0290  0.1027
33085ION     NA49159  15.249   2.159   9.513 -0.0840  0.1057  0.0728
33086ION     NA49160   9.850  17.739   9.821 -0.2890 -0.0723  0.0004
33087ION     NA49161   1.736   5.721   9.480  0.0693  0.5048 -0.0356
33088ION     NA49162  13.048  18.177   9.566  0.1330 -0.2512 -0.1751
33089ION     NA49163   0.700  12.490  10.392 -0.3326 -0.0153  0.0457
33090ION     NA49164   1.062   9.184   9.544  0.1438  0.1480  0.1319
33091ION     NA49165   7.964  13.130   9.831 -0.1360 -0.2964  0.0340
33092ION     NA49166   9.077   8.136  11.340  0.1905  0.0169  0.1353
33093ION     NA49167  13.305  19.195   4.969  0.2155 -0.2391  0.1368
33094ION     NA49168   8.848  15.777   9.851  0.1158 -0.2676 -0.1527
33095ION     NA49169  17.121  18.703   2.123 -0.1154  0.1942  0.2865
33096ION     NA49170   5.254  17.726  14.286 -0.0070  0.0731 -0.1182
33097ION     NA49171   8.405   8.375  12.708  0.1187  0.0422 -0.3159
33098ION     NA49172   3.959  14.984  11.071 -0.3359 -0.0977  0.1323
33099ION     NA49173   2.119  12.576   4.772  0.1232 -0.0536  0.0715
33100ION     NA49174   9.463  12.851   9.586  0.1009  0.0654  0.2176
33101ION     NA49175   7.799   6.035   0.673  0.0457 -0.0777  0.0020
33102ION     NA49176   4.596   5.362  10.589  0.3952 -0.1176 -0.0741
33103ION     NA49177   3.292   3.663  10.361 -0.1250  0.3605  0.2149
33104ION     NA49178  11.775   9.088   5.611 -0.2990 -0.0498  0.2103
33105ION     NA49179   2.922  10.534   9.497  0.3544  0.2608 -0.3057
33106ION     NA49180   8.839   0.164   9.592  0.0014  0.1156 -0.0614
33107ION     NA49181   4.556   9.006  12.727 -0.1345 -0.3828 -0.0313
33108ION     NA49182  11.692   1.489   1.920  0.0500  0.2663 -0.5058
33109ION     NA49183   5.826   2.352   0.095 -0.4201  0.0421  0.0230
33110ION     NA49184  14.007   2.120   4.751  0.2315 -0.1448 -0.0269
33111ION     NA49185   7.647   8.778  10.122  0.1813  0.4811 -0.2272
33112ION     NA49186   6.301  17.505   2.017  0.1254 -0.1681  0.3666
33113ION     NA49187   3.789  10.244   9.783  0.3721  0.2276  0.1074
33114ION     NA49188  15.549  17.198   4.312  0.2693 -0.1025 -0.2997
33115ION     NA49189  14.497   0.766   4.449 -0.2397 -0.0430  0.1354
33116ION     NA49190   1.148   3.164   9.567  0.0421 -0.1199 -0.0671
33117ION     NA49191   8.203   7.132   6.269  0.1696 -0.0506  0.0692
33118ION     NA49192   1.921  10.603   9.562  0.0178  0.1993 -0.1722
33119ION     NA49193   8.329  17.275  12.664  0.2243  0.1806  0.0313
33120ION     NA49194   5.567   6.162  11.061 -0.0041  0.3209 -0.2243
33121ION     NA49195   7.298  12.407   5.351  0.1859  0.3948  0.0974
33122ION     NA49196   5.073   0.722  10.094 -0.1268  0.1234  0.2079
33123ION     NA49197  10.305   3.231   5.415 -0.0299  0.2347 -0.0172
33124ION     NA49198  10.581  17.036  12.138  0.1942 -0.1524 -0.0663
33125ION     NA49199  14.110   1.940  12.005 -0.0348 -0.0317  0.0065
33126ION     NA49200  16.156   9.691   0.169 -0.5321 -0.0355  0.0837
33127ION     NA49201   3.426   2.374  10.594 -0.2715 -0.0496 -0.0222
33128ION     NA49202   2.748   4.125   2.391  0.1257 -0.0497  0.3000
33129ION     NA49203   3.792  18.101   9.838  0.2580  0.4026  0.0659
33130ION     NA49204   5.407  11.404  11.919  0.2721  0.1845  0.0385
33131ION     NA49205  19.251  17.850   9.206 -0.5096  0.1937  0.1414
33132ION     NA49206  13.760   3.262   9.633  0.1643 -0.0176  0.4585
33133ION     NA49207   1.734  13.204   3.632 -0.0779  0.0680  0.0756
33134ION     NA49208  18.091  14.696   9.141  0.1162 -0.0803 -0.1755
33135ION     NA49209  10.539  12.643  12.776  0.0373 -0.4205  0.3337
33136ION     NA49210   1.384  14.290  10.683  0.4791  0.1414  0.1688
33137ION     NA49211  12.078   4.627   3.168  0.3312 -0.1695  0.1809
33138ION     NA49212   2.963   2.047   4.124  0.1131 -0.3343 -0.1794
33139ION     NA49213  18.973   1.955   1.472 -0.0023 -0.0847 -0.0987
33140ION     NA49214  15.569   1.380   9.069  0.2727  0.0124  0.1546
33141ION     NA49215  14.864   1.903   0.824 -0.3850  0.2036  0.2808
33142ION     NA49216  11.164  13.265   9.988  0.1030 -0.1476  0.2408
33143ION     NA49217  16.436   5.280  10.221  0.0926 -0.1555 -0.1064
33144ION     NA49218  10.785  13.039   1.169  0.0489 -0.2329 -0.1246
33145ION     NA49219   0.437   6.251   9.731 -0.0419 -0.1940 -0.0883
33146ION     NA49220  11.828  13.740   5.166  0.5290 -0.1445  0.1526
33147ION     NA49221   4.570  14.455   9.525  0.0466 -0.1734 -0.2902
33148ION     NA49222  13.046   0.433   1.085 -0.4122 -0.3642 -0.1156
33149ION     NA49223  11.185   5.254   5.887  0.1598 -0.1657  0.0019
33150ION     NA49224   6.721  14.665   9.893 -0.0236  0.0213  0.0275
33151ION     NA49225   3.112   4.437  10.051 -0.0318 -0.0131  0.1074
33152ION     NA49226   5.310  10.722   4.783  0.4925 -0.0280  0.2760
33153ION     NA49227   9.232  18.721  10.861 -0.0060 -0.2171 -0.0145
33154ION     NA49228  19.161  15.231  10.339  0.0100  0.0415  0.0893
33155ION     NA49229   4.036   2.752   6.019 -0.0002 -0.3582  0.0299
33156ION     NA49230   1.878   4.670   9.490 -0.0853 -0.1385  0.0398
33157ION     NA49231  10.221  16.333   5.689  0.0884 -0.0879  0.0996
33158ION     NA49232   7.254   4.890   1.074  0.0976  0.1934  0.1842
33159ION     NA49233   2.736  15.095   9.375 -0.2208 -0.0696  0.0153
33160ION     NA49234   3.110   4.038   5.689 -0.0334  0.2708 -0.1116
33161ION     NA49235   4.107   7.221  10.312  0.0863  0.4618 -0.2669
33162ION     NA49236   3.140  12.655   1.540 -0.0927  0.2266 -0.3063
33163ION     NA49237   9.174  16.907   5.628  0.0650 -0.0252  0.2429
33164ION     NA49238   3.254  14.262   9.273 -0.2350  0.2526  0.4681
33165ION     NA49239  19.244  16.142  10.539  0.0602  0.1372 -0.1072
33166ION     NA49240   3.671  12.654   1.427  0.4846 -0.2422 -0.0429
33167ION     NA49241   4.130  19.063  10.224  0.1477 -0.1795 -0.1036
33168ION     NA49242   5.263  11.974   1.871  0.0717 -0.1418  0.1203
33169ION     NA49243  13.164  10.682   5.100  0.1662 -0.0835  0.1422
33170ION     NA49244  15.055   3.550  10.096 -0.2959  0.3058 -0.0649
33171ION     NA49245  14.032  12.664  10.518 -0.2798  0.0090 -0.1212
33172ION     NA49246  12.889   3.386  10.108  0.2790 -0.1374 -0.1802
33173ION     NA49247  18.418   9.140  14.233  0.0671  0.2241  0.1024
33174ION     NA49248  12.109   2.079   9.819  0.2213 -0.1913  0.1195
33175ION     NA49249   5.206  10.981   0.723 -0.1179 -0.0421  0.0070
33176ION     NA49250  11.749  15.793   1.404  0.2565 -0.2137 -0.1074
33177ION     NA49251  11.067  19.262   4.059 -0.0066 -0.0837  0.4163
33178ION     NA49252  17.444   7.911   3.222 -0.0102 -0.3121 -0.2805
33179ION     NA49253   3.152   0.238   1.378 -0.1741 -0.2940 -0.4166
33180ION     NA49254   6.937   0.704   9.729 -0.4277 -0.1008  0.1093
33181ION     NA49255   6.102   5.442  10.291  0.4412 -0.2050  0.4388
33182ION     NA49256   9.182  11.301   9.986  0.1419 -0.0520  0.1238
33183ION     NA49257  17.189   7.189  11.017  0.0889  0.0257  0.2320
33184ION     NA49258   4.469   6.257  10.539  0.1760 -0.1917 -0.3406
33185ION     NA49259  16.093  13.976   1.533  0.0958 -0.3993 -0.0108
33186ION     NA49260   8.742  10.298  10.008  0.0310 -0.1289  0.0304
33187ION     NA49261  15.912  18.559   8.954 -0.0995 -0.2223  0.1842
  19.30619  19.30619  15.05949
