#include "martini_v2.2.itp"
#include "martini_v2.0_allLipids.itp"
#include "martini_v2.0_ions.itp"

[ system ]
; name
INSANE! Membrane UpperLeaflet>loPI:POPI:DPPI:PYPI:ERGO=180.0:5.0:3.0:2.0:10.0 LowerLeaflet>PSPI:POPI:POPS:YOPS:POPE:YOPE:POPC:YOPC:ERGO=6.0:14.0:21.0:9.0:9.0:21.0:12.0:48.0:60.0

[ molecules ]
; name  number
loPI           608
POPI            16
DPPI            10
PYPI             6
ERGO            33
PSPI            19
POPI            44
POPS            66
YOPS            28
POPE            28
YOPE            66
POPC            38
YOPC           152
ERGO           190
W            31086
NA             797
